Protein in water
17150
    1LEU      N    1   3.283   3.389   1.392  0.0719  0.0132  0.1239
    1LEU     H1    2   3.241   3.298   1.393 -2.6722  1.1593 -1.4025
    1LEU     H2    3   3.221   3.452   1.344  0.0304  0.9350  1.3224
    1LEU     H3    4   3.373   3.382   1.346 -0.3760 -0.3600 -0.6993
    1LEU     CA    5   3.313   3.446   1.534 -0.2938  0.0942  0.1139
    1LEU     HA    6   3.388   3.373   1.563  0.3133  0.1831 -1.1696
    1LEU     CB    7   3.383   3.579   1.543 -0.3787 -0.1601  0.1237
    1LEU    HB1    8   3.343   3.633   1.629 -0.7623 -0.0819 -0.0994
    1LEU    HB2    9   3.350   3.636   1.456  0.5574  0.3240  0.0769
    1LEU     CG   10   3.537   3.582   1.546 -0.5385  0.5295 -1.0488
    1LEU     HG   11   3.581   3.537   1.457 -1.6607 -2.0711 -0.3734
    1LEU    CD1   12   3.588   3.727   1.553 -0.2194  0.4369 -0.7086
    1LEU   HD11   13   3.663   3.735   1.475  0.4554  2.0924  0.0499
    1LEU   HD12   14   3.502   3.794   1.546  0.4638  1.2245 -1.7628
    1LEU   HD13   15   3.638   3.739   1.650  0.0312 -1.6877 -0.5334
    1LEU    CD2   16   3.586   3.500   1.659 -0.0361 -0.5727 -0.1933
    1LEU   HD21   17   3.537   3.520   1.754 -0.6876 -1.9585 -0.2115
    1LEU   HD22   18   3.583   3.393   1.637 -0.2302 -0.3707 -1.2001
    1LEU   HD23   19   3.691   3.524   1.676 -0.4098  0.5826  0.6629
    1LEU      C   20   3.200   3.431   1.634 -0.7831  0.2871 -0.4327
    1LEU      O   21   3.205   3.355   1.733  0.6889  0.5097  0.1715
    2ILE      N   22   3.094   3.504   1.620 -0.3873  0.3179 -0.2038
    2ILE      H   23   3.094   3.571   1.544 -1.2697 -1.0984 -1.5222
    2ILE     CA   24   2.981   3.525   1.710 -0.2837  0.9556 -0.0768
    2ILE     HA   25   3.017   3.577   1.798  1.0053 -1.2465  0.7779
    2ILE     CB   26   2.872   3.615   1.640  0.0380  0.0708 -1.2205
    2ILE     HB   27   2.873   3.579   1.537  2.6011  0.7204 -1.4832
    2ILE    CG2   28   2.733   3.599   1.702 -0.0316  0.6357 -0.5813
    2ILE   HG21   29   2.755   3.619   1.807  2.8574  0.0962 -0.9962
    2ILE   HG22   30   2.660   3.661   1.650  0.5121  1.0052 -0.9093
    2ILE   HG23   31   2.693   3.498   1.695 -0.0466  0.4896  1.2821
    2ILE    CG1   32   2.924   3.762   1.632  0.0551 -0.1738  0.0129
    2ILE   HG11   33   3.005   3.782   1.563  1.0449 -0.9898  0.8964
    2ILE   HG12   34   2.973   3.792   1.724  0.8323 -1.6269  0.1047
    2ILE     CD   35   2.815   3.865   1.597 -0.6565  0.0237  0.1728
    2ILE    HD1   36   2.733   3.871   1.668 -0.6409 -0.1539  0.2058
    2ILE    HD2   37   2.858   3.965   1.592  0.5889 -0.5247 -0.5833
    2ILE    HD3   38   2.764   3.848   1.503  0.4174  0.6271 -0.5433
    2ILE      C   39   2.923   3.391   1.761  0.1088 -0.4768 -0.2612
    2ILE      O   40   2.895   3.379   1.883 -0.0508  0.0120  0.3318
    3LEU      N   41   2.923   3.293   1.673 -0.5238  0.4384  0.7499
    3LEU      H   42   2.957   3.306   1.578 -0.8260 -0.3594  0.5272
    3LEU     CA   43   2.880   3.158   1.709  0.1116 -0.0899  0.6055
    3LEU     HA   44   2.788   3.169   1.767 -1.2197  1.5183 -1.6344
    3LEU     CB   45   2.852   3.073   1.576  0.4288 -0.3974 -0.3042
    3LEU    HB1   46   2.877   2.968   1.589 -0.4580 -0.5138  0.5165
    3LEU    HB2   47   2.915   3.118   1.499  1.2841 -1.3319 -0.1656
    3LEU     CG   48   2.697   3.087   1.533 -0.5177  0.1440  0.4590
    3LEU     HG   49   2.666   3.190   1.516 -0.9816  0.0105  0.4736
    3LEU    CD1   50   2.673   3.005   1.404  0.3760  0.8153 -0.7833
    3LEU   HD11   51   2.748   3.040   1.334 -0.1686  0.3661 -1.6081
    3LEU   HD12   52   2.677   2.897   1.413 -1.4739  0.6525 -1.5524
    3LEU   HD13   53   2.578   3.027   1.354  0.3993 -0.1156 -1.2574
    3LEU    CD2   54   2.603   3.027   1.640  0.3936 -0.3820 -0.2328
    3LEU   HD21   55   2.500   3.027   1.604  0.4060 -0.0783 -0.2744
    3LEU   HD22   56   2.646   2.929   1.659  3.0266  0.7083 -0.0704
    3LEU   HD23   57   2.581   3.089   1.727  0.5411 -2.0714  1.0578
    3LEU      C   58   2.978   3.088   1.796 -0.8770  0.3590  0.5559
    3LEU      O   59   2.936   3.018   1.887 -0.0861  0.4350 -0.1547
    4LEU      N   60   3.110   3.095   1.778 -0.1669 -0.4814  0.8906
    4LEU      H   61   3.143   3.149   1.699  0.7910 -1.1516  0.8249
    4LEU     CA   62   3.214   3.047   1.870  0.7053  0.5862  0.0520
    4LEU     HA   63   3.198   2.939   1.868  1.9131  0.3959 -0.2898
    4LEU     CB   64   3.356   3.090   1.821 -0.0043  0.1970 -0.4044
    4LEU    HB1   65   3.385   3.184   1.869  0.3436 -1.2519  2.4315
    4LEU    HB2   66   3.342   3.102   1.714  2.0499 -3.2224 -1.2071
    4LEU     CG   67   3.465   2.979   1.836  0.1439  0.2423  0.1274
    4LEU     HG   68   3.425   2.885   1.800  0.0322  0.8030 -1.2937
    4LEU    CD1   69   3.586   3.015   1.751  0.7768  0.5674 -0.1994
    4LEU   HD11   70   3.662   2.937   1.757 -1.2301 -1.6894 -2.1168
    4LEU   HD12   71   3.551   3.019   1.648  0.0070 -0.3308  0.0055
    4LEU   HD13   72   3.623   3.110   1.790 -0.1683  0.2489  1.5789
    4LEU    CD2   73   3.507   2.963   1.982 -0.6540  0.0293 -0.3262
    4LEU   HD21   74   3.530   3.058   2.029 -2.7698 -0.1890  1.2832
    4LEU   HD22   75   3.425   2.931   2.047 -0.5860  1.7465  0.6556
    4LEU   HD23   76   3.588   2.894   2.005  0.6786  1.8483  0.7408
    4LEU      C   77   3.186   3.107   2.012 -0.3600  0.7623  0.1730
    4LEU      O   78   3.187   3.036   2.111 -0.0427 -0.4027  0.9495
    5VAL      N   79   3.169   3.238   2.022  0.8765 -0.2039  0.3308
    5VAL      H   80   3.170   3.284   1.932 -1.1179 -0.7355  0.0089
    5VAL     CA   81   3.138   3.306   2.145  0.1845 -0.5060  0.1451
    5VAL     HA   82   3.215   3.280   2.218  1.2150 -1.8790 -1.3638
    5VAL     CB   83   3.139   3.459   2.124 -0.3493  0.0153  0.1134
    5VAL     HB   84   3.050   3.488   2.069 -0.2111 -1.9467 -1.2486
    5VAL    CG1   85   3.140   3.534   2.265 -0.3311 -0.1559 -1.3106
    5VAL   HG11   86   3.045   3.524   2.318  0.2379  0.2806 -0.1796
    5VAL   HG12   87   3.223   3.520   2.334  1.0083  1.1939 -2.5758
    5VAL   HG13   88   3.135   3.640   2.240 -3.0610  0.3436  0.8765
    5VAL    CG2   89   3.262   3.507   2.042  0.3920  0.4839  0.3493
    5VAL   HG21   90   3.270   3.456   1.946  0.0583  0.0707  0.5372
    5VAL   HG22   91   3.250   3.614   2.020  0.9837  0.1851 -1.6441
    5VAL   HG23   92   3.349   3.492   2.105 -0.7305 -0.0228  1.8441
    5VAL      C   93   3.008   3.252   2.207 -0.1238 -1.2245 -0.2222
    5VAL      O   94   3.007   3.209   2.323  0.2062  0.0824  0.2607
    6LEU      N   95   2.904   3.237   2.128 -0.6094 -0.1664 -0.4438
    6LEU      H   96   2.916   3.256   2.029 -1.6349 -1.4488 -0.8440
    6LEU     CA   97   2.771   3.209   2.185  0.0866 -0.1487 -0.6884
    6LEU     HA   98   2.759   3.272   2.272 -1.7579 -1.4003  0.0224
    6LEU     CB   99   2.664   3.237   2.079  0.4640 -0.8663 -0.3269
    6LEU    HB1  100   2.668   3.164   1.998 -2.6743 -1.6851  0.0957
    6LEU    HB2  101   2.687   3.338   2.046  0.5395  0.0090  2.1774
    6LEU     CG  102   2.512   3.251   2.121 -0.3200  0.2359  0.1097
    6LEU     HG  103   2.506   3.297   2.219 -0.2711 -1.0156  0.7112
    6LEU    CD1  104   2.445   3.351   2.026  1.0258 -0.3688 -0.3597
    6LEU   HD11  105   2.456   3.322   1.921 -1.6011 -0.2272 -0.7486
    6LEU   HD12  106   2.338   3.357   2.042  0.9722  0.3448 -0.9264
    6LEU   HD13  107   2.480   3.453   2.042 -1.5139  0.5258 -0.1504
    6LEU    CD2  108   2.420   3.130   2.136 -0.6707  0.3996  0.7239
    6LEU   HD21  109   2.418   3.076   2.041 -0.4352  0.1055  0.8864
    6LEU   HD22  110   2.452   3.059   2.212 -2.1063  0.0392  1.0212
    6LEU   HD23  111   2.323   3.167   2.169 -0.0246  3.0889 -0.1258
    6LEU      C  112   2.759   3.063   2.226  0.6772 -0.2914 -0.2977
    6LEU      O  113   2.701   3.031   2.330  0.1713  0.4192  0.0897
    7VAL      N  114   2.824   2.972   2.147  0.3650  0.1927 -0.4867
    7VAL      H  115   2.873   3.002   2.064  0.6265 -0.7671 -0.6897
    7VAL     CA  116   2.834   2.828   2.191  0.8729 -0.3349  0.1596
    7VAL     HA  117   2.736   2.792   2.221  0.2394  1.0780 -0.1493
    7VAL     CB  118   2.880   2.739   2.079 -0.2883 -0.5632  0.2511
    7VAL     HB  119   2.972   2.779   2.036 -0.1530  0.4574  1.4464
    7VAL    CG1  120   2.898   2.596   2.119  0.0309 -0.0442 -0.2987
    7VAL   HG11  121   2.920   2.533   2.032  0.6806  0.0078 -0.1762
    7VAL   HG12  122   2.975   2.586   2.195  0.4467  1.8144 -0.4197
    7VAL   HG13  123   2.804   2.562   2.162  0.7449 -0.8933  0.6227
    7VAL    CG2  124   2.767   2.743   1.976 -1.1807 -0.0660  0.6458
    7VAL   HG21  125   2.672   2.709   2.019 -2.8889  0.2030 -2.6405
    7VAL   HG22  126   2.754   2.841   1.931 -0.6360 -0.0518  0.5140
    7VAL   HG23  127   2.783   2.673   1.895  0.9056 -1.1684  1.9218
    7VAL      C  128   2.926   2.811   2.310 -0.2731  0.2715  0.5714
    7VAL      O  129   2.910   2.720   2.390 -0.1776 -0.2948  0.3271
    8LEU      N  130   3.018   2.904   2.332 -0.0607  0.3220  0.1024
    8LEU      H  131   3.013   2.979   2.264 -0.3733 -1.4522 -1.9172
    8LEU     CA  132   3.114   2.902   2.448  0.1130  0.5887  0.0148
    8LEU     HA  133   3.149   2.800   2.461  0.4665  0.6807 -0.1793
    8LEU     CB  134   3.233   2.991   2.429 -0.2315  0.2452  0.0914
    8LEU    HB1  135   3.192   3.092   2.425  0.1916  0.4992  1.5612
    8LEU    HB2  136   3.264   2.966   2.328 -0.2634  0.1751  0.0991
    8LEU     CG  137   3.357   2.986   2.519 -0.5318  0.4549  0.3313
    8LEU     HG  138   3.366   2.878   2.533 -0.0444  0.6078  1.2766
    8LEU    CD1  139   3.481   3.039   2.442 -0.1423  0.1782  0.1060
    8LEU   HD11  140   3.462   3.143   2.419  0.1803  0.1306 -0.3704
    8LEU   HD12  141   3.576   3.009   2.487 -0.1895  1.6063  1.2320
    8LEU   HD13  142   3.472   2.993   2.344  1.2963  2.8627 -1.3831
    8LEU    CD2  143   3.353   3.069   2.642  0.5151  0.2613  0.2900
    8LEU   HD21  144   3.263   3.027   2.686  0.0604 -0.4127 -1.2111
    8LEU   HD22  145   3.438   3.044   2.706  1.0885  1.7358  0.1461
    8LEU   HD23  146   3.331   3.174   2.626 -0.8193  0.3134  2.1824
    8LEU      C  147   3.035   2.933   2.575  0.1358 -0.7066 -0.2262
    8LEU      O  148   3.037   2.858   2.673 -0.9779 -0.1796 -0.2940
    9ILE      N  149   2.961   3.047   2.567  0.4220  0.4199  0.0372
    9ILE      H  150   2.965   3.120   2.498 -0.1594 -0.0524 -0.5081
    9ILE     CA  151   2.871   3.087   2.673  0.7881  0.1067  0.4462
    9ILE     HA  152   2.924   3.086   2.768  0.6474 -2.2075  0.5639
    9ILE     CB  153   2.812   3.232   2.647  0.8783 -0.9069  1.2531
    9ILE     HB  154   2.758   3.220   2.553 -1.3179  1.3889  2.1086
    9ILE    CG2  155   2.712   3.286   2.756 -0.2216 -0.3422  0.0484
    9ILE   HG21  156   2.639   3.214   2.793 -0.2534 -0.1602  0.3392
    9ILE   HG22  157   2.768   3.330   2.837 -2.7077 -0.0926  1.7402
    9ILE   HG23  158   2.655   3.366   2.708  1.4411  0.5430 -0.5217
    9ILE    CG1  159   2.924   3.337   2.629  0.4682  0.4092 -0.2374
    9ILE   HG11  160   3.001   3.304   2.560  1.1450  1.0128  0.2197
    9ILE   HG12  161   2.967   3.340   2.729  0.5396 -5.1123  0.1937
    9ILE     CD  162   2.883   3.476   2.585 -0.1459  0.2444  0.1098
    9ILE    HD1  163   2.824   3.463   2.494  1.0211 -3.5501 -0.2741
    9ILE    HD2  164   2.825   3.506   2.672  1.5160  0.3935  1.1936
    9ILE    HD3  165   2.966   3.541   2.560 -0.6497  0.5655 -0.7874
    9ILE      C  166   2.759   2.986   2.698 -0.0128 -0.5007  0.0579
    9ILE      O  167   2.717   2.973   2.819  0.5416  0.4960  0.4076
   10VAL      N  168   2.713   2.914   2.595  0.2019  0.0966  0.3632
   10VAL      H  169   2.754   2.920   2.503 -0.9993 -1.0039 -0.2680
   10VAL     CA  170   2.612   2.806   2.633  0.5616 -0.0097  0.8453
   10VAL     HA  171   2.537   2.852   2.697 -2.6767 -4.4315  0.6593
   10VAL     CB  172   2.543   2.758   2.504  0.5865 -0.9309  0.4465
   10VAL     HB  173   2.619   2.738   2.429  1.3209  0.7725  0.6886
   10VAL    CG1  174   2.450   2.634   2.522 -0.4591 -1.0888  0.4574
   10VAL   HG11  175   2.361   2.658   2.463  0.7494  0.7145 -0.7384
   10VAL   HG12  176   2.501   2.552   2.472  0.5908 -0.4472  0.4482
   10VAL   HG13  177   2.423   2.618   2.626 -1.1317 -1.1178  0.2872
   10VAL    CG2  178   2.449   2.878   2.458  0.5083 -0.6443 -0.4667
   10VAL   HG21  179   2.396   2.854   2.366 -2.0463  1.8476  0.2305
   10VAL   HG22  180   2.375   2.886   2.538  0.1927  0.9161 -0.8843
   10VAL   HG23  181   2.492   2.977   2.451  0.1902 -0.2189  2.3016
   10VAL      C  182   2.671   2.694   2.714 -0.4224  0.3428  0.0798
   10VAL      O  183   2.614   2.651   2.806  0.6168 -0.6348 -0.1805
   11VAL      N  184   2.793   2.653   2.681 -0.4254  0.4021  0.0950
   11VAL      H  185   2.842   2.690   2.601  0.4602 -1.3593 -0.2236
   11VAL     CA  186   2.864   2.546   2.757  0.2774  0.2505  0.4225
   11VAL     HA  187   2.782   2.475   2.766 -0.1016  0.3882 -1.4948
   11VAL     CB  188   2.980   2.483   2.677 -0.0041  0.4439  0.1149
   11VAL     HB  189   3.050   2.561   2.648 -0.1782 -0.7875 -4.4405
   11VAL    CG1  190   3.055   2.372   2.756  0.1959 -0.8269  0.9207
   11VAL   HG11  191   3.105   2.289   2.706 -0.0919 -0.3292 -0.2401
   11VAL   HG12  192   3.128   2.434   2.807  0.0539  1.0146 -0.9757
   11VAL   HG13  193   2.982   2.327   2.822 -1.0384  0.1453  0.2680
   11VAL    CG2  194   2.927   2.415   2.558  0.1816 -0.3314  0.4404
   11VAL   HG21  195   2.841   2.353   2.582 -1.6012  1.4128 -1.0312
   11VAL   HG22  196   2.894   2.488   2.484 -2.3392  0.8912  2.5973
   11VAL   HG23  197   3.001   2.350   2.513 -0.3590 -0.4802 -0.2525
   11VAL      C  198   2.903   2.581   2.899 -0.0987 -0.7664 -0.2414
   11VAL      O  199   2.883   2.505   2.991  0.4689  0.2139 -0.4231
   12VAL      N  200   2.955   2.699   2.919 -0.1904 -0.1667 -0.2032
   12VAL      H  201   2.985   2.746   2.834  0.5703 -0.0650  0.1123
   12VAL     CA  202   2.967   2.765   3.051 -0.2030  0.1000 -0.2533
   12VAL     HA  203   3.034   2.708   3.115 -1.5295 -0.6249  0.4994
   12VAL     CB  204   3.039   2.905   3.052 -0.5370 -0.6019  0.1533
   12VAL     HB  205   2.975   2.958   2.982 -1.6590  0.0534  1.6115
   12VAL    CG1  206   3.043   2.991   3.178 -0.1221  0.3081  0.3723
   12VAL   HG11  207   3.085   2.922   3.252  2.6305 -0.0136 -1.3856
   12VAL   HG12  208   3.110   3.075   3.165  0.4550 -0.2468 -0.3611
   12VAL   HG13  209   2.939   3.013   3.206 -0.0628  2.0722 -0.6812
   12VAL    CG2  210   3.179   2.898   2.991  0.5054 -0.3098 -0.2238
   12VAL   HG21  211   3.207   2.995   2.952  1.8983 -1.3830 -2.0925
   12VAL   HG22  212   3.259   2.871   3.061  1.4347  2.0348 -0.3087
   12VAL   HG23  213   3.170   2.833   2.904 -0.9766 -1.0027  0.4043
   12VAL      C  214   2.841   2.775   3.133  0.4070  0.8590 -0.5720
   12VAL      O  215   2.839   2.724   3.250 -0.7209  0.0089  0.4125
   13LEU      N  216   2.729   2.810   3.069  0.3912 -0.0501 -0.5529
   13LEU      H  217   2.725   2.844   2.974 -3.8430  0.5739 -0.3640
   13LEU     CA  218   2.600   2.808   3.143 -0.0569 -0.1024  0.2292
   13LEU     HA  219   2.621   2.846   3.243  0.6786 -0.6934  0.3096
   13LEU     CB  220   2.488   2.885   3.068 -0.9250  0.2193  0.7107
   13LEU    HB1  221   2.392   2.842   3.097 -1.1175 -0.0963 -0.3534
   13LEU    HB2  222   2.516   2.862   2.965 -1.1042 -0.9377  0.9038
   13LEU     CG  223   2.496   3.032   3.087 -0.1258  0.6022 -0.3803
   13LEU     HG  224   2.599   3.057   3.059  0.1515 -0.8769 -0.7794
   13LEU    CD1  225   2.409   3.111   2.991 -0.1335  0.2790 -1.1836
   13LEU   HD11  226   2.427   3.077   2.889 -1.7065  0.6128 -1.5980
   13LEU   HD12  227   2.304   3.096   3.014 -0.0916  1.2645 -0.2765
   13LEU   HD13  228   2.431   3.217   3.007  0.6932 -0.1003  0.4165
   13LEU    CD2  229   2.466   3.086   3.227 -0.0874  0.1556  0.4153
   13LEU   HD21  230   2.362   3.064   3.249 -0.0626 -1.6221 -0.9946
   13LEU   HD22  231   2.535   3.040   3.298 -0.3157 -2.8403 -1.1112
   13LEU   HD23  232   2.478   3.193   3.242 -0.9754  0.1809  0.9941
   13LEU      C  233   2.546   2.668   3.177  0.5986 -0.6478  0.7685
   13LEU      O  234   2.503   2.655   3.292 -0.8606 -0.2082 -0.3332
   14VAL      N  235   2.557   2.571   3.085  0.2242  0.1014 -0.4952
   14VAL      H  236   2.591   2.591   2.992 -1.0105  2.5765 -0.4845
   14VAL     CA  237   2.522   2.430   3.122 -0.1513  0.0939 -0.0449
   14VAL     HA  238   2.418   2.423   3.154  0.5465 -0.5050  2.2789
   14VAL     CB  239   2.533   2.339   2.998 -0.6757 -0.2708  0.5894
   14VAL     HB  240   2.627   2.339   2.942 -2.3690  0.8486 -2.5371
   14VAL    CG1  241   2.507   2.188   3.027  0.0770 -0.5653  0.6766
   14VAL   HG11  242   2.517   2.137   2.931 -0.7918 -1.5987  1.1243
   14VAL   HG12  243   2.586   2.159   3.096  2.0329 -0.3904 -1.3853
   14VAL   HG13  244   2.407   2.180   3.070 -0.1741  2.2562  0.8161
   14VAL    CG2  245   2.435   2.389   2.880 -1.0106 -0.2488  0.1537
   14VAL   HG21  246   2.489   2.437   2.798 -1.2837  0.3391  0.3086
   14VAL   HG22  247   2.386   2.306   2.829 -1.8329 -0.8521  1.8428
   14VAL   HG23  248   2.359   2.463   2.905 -2.7384 -0.6398 -3.3733
   14VAL      C  249   2.605   2.380   3.237 -0.6082 -0.1940 -0.4657
   14VAL      O  250   2.553   2.330   3.335  0.1855 -0.1545  0.3522
   15LEU      N  251   2.738   2.402   3.236  0.2647 -0.7957 -0.0555
   15LEU      H  252   2.773   2.457   3.159 -1.0182 -1.0992 -0.8802
   15LEU     CA  253   2.832   2.343   3.327  0.7679 -0.3500 -0.6288
   15LEU     HA  254   2.809   2.238   3.344 -1.2512  0.4036  2.1633
   15LEU     CB  255   2.974   2.357   3.282 -0.0826  0.3485  0.1822
   15LEU    HB1  256   3.038   2.353   3.370 -1.1457 -1.1203  0.9398
   15LEU    HB2  257   2.990   2.460   3.252 -0.3072 -0.4929 -3.2476
   15LEU     CG  258   3.037   2.267   3.174 -0.0143  0.3112  0.5397
   15LEU     HG  259   2.979   2.275   3.082 -1.1467 -0.1495  1.2055
   15LEU    CD1  260   3.177   2.321   3.138 -0.0626 -0.7400  0.3648
   15LEU   HD11  261   3.208   2.277   3.043 -2.5193  1.6810 -1.7192
   15LEU   HD12  262   3.177   2.430   3.132  0.0639 -0.7940 -0.8571
   15LEU   HD13  263   3.252   2.302   3.216  0.8138  1.6713  0.1918
   15LEU    CD2  264   3.058   2.122   3.230  0.5282 -0.4250  0.4827
   15LEU   HD21  265   3.118   2.065   3.159  1.2256  1.3540 -0.4131
   15LEU   HD22  266   3.113   2.136   3.324  1.7309 -0.1604 -0.2346
   15LEU   HD23  267   2.968   2.062   3.244  1.6779 -2.1691  0.7186
   15LEU      C  268   2.817   2.400   3.468 -0.0855  0.3005 -0.2569
   15LEU      O  269   2.823   2.326   3.569  0.3497  0.5542 -0.0781
   16LEU      N  270   2.777   2.531   3.481 -0.1442 -0.2070  0.1407
   16LEU      H  271   2.785   2.593   3.401  1.1590  1.6575  1.6267
   16LEU     CA  272   2.751   2.604   3.606 -0.6085 -0.3683  0.1924
   16LEU     HA  273   2.835   2.592   3.675  1.8899  1.4820 -2.2741
   16LEU     CB  274   2.736   2.756   3.577 -0.3541  0.8595  0.2508
   16LEU    HB1  275   2.631   2.780   3.559 -0.1612  0.5539 -1.5102
   16LEU    HB2  276   2.791   2.768   3.484  1.7523 -1.7746  1.0507
   16LEU     CG  277   2.784   2.865   3.675 -0.3435  0.5092  0.9990
   16LEU     HG  278   2.884   2.840   3.708  1.6878  3.8939 -1.8969
   16LEU    CD1  279   2.802   2.991   3.595  0.1740 -0.0071 -0.0723
   16LEU   HD11  280   2.849   3.055   3.670  0.3621 -1.7018  1.3242
   16LEU   HD12  281   2.864   2.974   3.507 -0.8769 -0.0205 -0.8269
   16LEU   HD13  282   2.700   3.027   3.579  0.3413  1.1607  1.2885
   16LEU    CD2  283   2.683   2.880   3.788  0.2156  0.4661 -0.3813
   16LEU   HD21  284   2.724   2.940   3.869 -1.9069  0.5965  0.6726
   16LEU   HD22  285   2.597   2.931   3.744 -0.7567  1.1158  2.0925
   16LEU   HD23  286   2.648   2.783   3.825  0.3737 -0.2110 -1.9106
   16LEU      C  287   2.619   2.558   3.668  0.0295  0.1715 -0.6510
   16LEU      O  288   2.613   2.527   3.790  0.0292  0.4011 -0.0925
   17LEU      N  289   2.515   2.537   3.587 -0.1947  0.2094  0.4324
   17LEU      H  290   2.528   2.561   3.490 -1.1454 -1.5142 -0.1725
   17LEU     CA  291   2.390   2.473   3.625  0.4188  0.2155  0.3133
   17LEU     HA  292   2.345   2.533   3.704 -0.4540 -1.4937  1.1742
   17LEU     CB  293   2.289   2.478   3.503 -0.0420 -0.2312 -0.1030
   17LEU    HB1  294   2.331   2.415   3.425 -1.4858 -2.9714  1.2013
   17LEU    HB2  295   2.279   2.584   3.479 -1.0934 -0.2713  0.1396
   17LEU     CG  296   2.137   2.440   3.526 -0.3051 -0.3919 -0.2422
   17LEU     HG  297   2.105   2.481   3.622 -2.6808 -0.6386 -0.8450
   17LEU    CD1  298   2.060   2.499   3.406  0.2780  0.6328  0.6441
   17LEU   HD11  299   2.121   2.488   3.316 -0.3045 -0.5163  0.3683
   17LEU   HD12  300   1.971   2.441   3.386  0.1676  1.1244 -0.3723
   17LEU   HD13  301   2.051   2.604   3.435  1.6707  1.0005 -0.1501
   17LEU    CD2  302   2.124   2.290   3.525 -0.1533 -0.1421 -0.1313
   17LEU   HD21  303   2.157   2.252   3.621  3.2502  2.0581 -0.2386
   17LEU   HD22  304   2.025   2.254   3.496 -0.4050 -1.1915  1.8888
   17LEU   HD23  305   2.201   2.256   3.455 -0.4999  0.3224 -0.7495
   17LEU      C  306   2.418   2.330   3.679  0.1468  0.3100  0.8354
   17LEU      O  307   2.381   2.303   3.795 -0.0921 -0.2114 -0.4245
   18LEU      N  308   2.504   2.250   3.613  0.5213  0.0532  0.3425
   18LEU      H  309   2.545   2.289   3.529  0.7148  1.1405  0.9070
   18LEU     CA  310   2.538   2.110   3.659 -0.6400  0.0279 -0.7526
   18LEU     HA  311   2.444   2.056   3.668 -0.6460  0.0496 -0.6865
   18LEU     CB  312   2.621   2.041   3.542 -0.1451  0.2962  0.3009
   18LEU    HB1  313   2.684   1.961   3.582  1.6411  0.8889 -1.2049
   18LEU    HB2  314   2.690   2.116   3.506  0.3064  0.3919  1.3188
   18LEU     CG  315   2.540   1.994   3.418 -0.7997 -0.4531 -0.0152
   18LEU     HG  316   2.481   2.077   3.380  0.5462  0.1374 -0.9078
   18LEU    CD1  317   2.643   1.937   3.310  0.5190 -0.4590 -0.3920
   18LEU   HD11  318   2.583   1.912   3.223 -2.5928  1.4585  1.0152
   18LEU   HD12  319   2.727   2.005   3.293 -0.3206  1.2988  1.9537
   18LEU   HD13  320   2.678   1.846   3.358  0.6334 -0.4444 -0.4485
   18LEU    CD2  321   2.445   1.881   3.447 -0.2548  0.5396 -0.2012
   18LEU   HD21  322   2.349   1.929   3.465  0.1686  1.0271  0.9056
   18LEU   HD22  323   2.432   1.802   3.374 -2.2677 -0.5788  1.2556
   18LEU   HD23  324   2.483   1.833   3.538 -0.5373  0.9688  0.1448
   18LEU      C  325   2.621   2.105   3.792  0.2120 -0.1724 -0.1408
   18LEU      O  326   2.641   2.004   3.861  0.1380 -0.1172 -0.1967
   19LEU      N  327   2.681   2.219   3.823 -0.4074 -0.3583  0.7376
   19LEU      H  328   2.669   2.297   3.760  0.4322  0.1071  1.1278
   19LEU     CA  329   2.768   2.240   3.938  0.7020  0.3269 -0.0211
   19LEU     HA  330   2.817   2.147   3.967  2.7896  1.3072 -0.2121
   19LEU     CB  331   2.877   2.341   3.895 -0.6683  0.1412  0.1839
   19LEU    HB1  332   2.833   2.437   3.871 -2.9773 -0.6577  0.9855
   19LEU    HB2  333   2.915   2.300   3.801 -0.9468  0.9010 -0.2660
   19LEU     CG  334   2.996   2.346   4.004  0.5863  0.1555 -0.4483
   19LEU     HG  335   3.008   2.257   4.067 -0.4370  0.1023 -0.3137
   19LEU    CD1  336   3.124   2.360   3.921  1.5245  0.0085  0.4973
   19LEU   HD11  337   3.202   2.379   3.995  3.0399  0.4733 -1.1669
   19LEU   HD12  338   3.142   2.270   3.862 -0.9259  0.3756 -0.9130
   19LEU   HD13  339   3.112   2.440   3.848 -1.2530 -1.0973 -0.3770
   19LEU    CD2  340   2.970   2.454   4.106  0.2985 -0.4914 -0.0462
   19LEU   HD21  341   2.991   2.554   4.066  1.0059 -0.2154  0.9649
   19LEU   HD22  342   2.865   2.458   4.134  0.4115 -0.1439  0.3434
   19LEU   HD23  343   3.036   2.447   4.192  0.0296 -1.6406  0.0723
   19LEU      C  344   2.679   2.285   4.060 -0.0377  0.7241 -0.1120
   19LEU      O  345   2.704   2.237   4.172 -0.0036  0.0500 -0.1339
   20ILE      N  346   2.570   2.359   4.033  0.2470  0.0206 -0.1060
   20ILE      H  347   2.549   2.394   3.941  0.7064  2.0820  0.5225
   20ILE     CA  348   2.469   2.382   4.136 -0.6284 -0.4842  0.2435
   20ILE     HA  349   2.524   2.404   4.227  0.5453 -0.1875 -0.5115
   20ILE     CB  350   2.385   2.517   4.113  0.2634  0.4867 -0.2845
   20ILE     HB  351   2.339   2.510   4.015  0.4492 -0.2478 -0.3214
   20ILE    CG2  352   2.268   2.543   4.211 -0.3230 -0.0306 -0.4331
   20ILE   HG21  353   2.226   2.642   4.194 -1.7394  0.0989  3.0100
   20ILE   HG22  354   2.194   2.463   4.202 -0.0723 -0.3649  0.3425
   20ILE   HG23  355   2.313   2.544   4.311 -0.0991  1.6721 -0.5223
   20ILE    CG1  356   2.470   2.646   4.115 -0.3890 -0.0199  0.0418
   20ILE   HG11  357   2.574   2.618   4.097 -0.0866 -0.5258  2.2689
   20ILE   HG12  358   2.466   2.687   4.216  0.4940 -0.8273  0.4272
   20ILE     CD  359   2.423   2.756   4.013 -0.0185  0.3372 -0.4231
   20ILE    HD1  360   2.503   2.829   4.023 -0.2820  0.3063  3.7421
   20ILE    HD2  361   2.403   2.724   3.911 -0.0907  1.2569 -0.7123
   20ILE    HD3  362   2.332   2.803   4.051  0.1109 -0.5357  1.0434
   20ILE      C  363   2.381   2.260   4.177 -0.1710 -0.2837 -0.5112
   20ILE      O  364   2.325   2.269   4.289 -0.3209 -0.1500 -0.3147
   21LEU      N  365   2.349   2.169   4.090 -0.0538 -0.0824  0.0124
   21LEU      H  366   2.385   2.189   3.998 -2.3331 -0.0326 -0.9348
   21LEU     CA  367   2.258   2.058   4.118  0.7022  0.6128  0.4348
   21LEU     HA  368   2.170   2.115   4.149 -0.0557 -0.3101  0.0227
   21LEU     CB  369   2.211   1.979   3.996  0.5491  0.7076  0.7859
   21LEU    HB1  370   2.165   1.883   4.018 -2.4523  1.3737 -1.9369
   21LEU    HB2  371   2.301   1.952   3.941  0.0693 -1.9390  1.1394
   21LEU     CG  372   2.108   2.065   3.903  0.2900  0.4451  0.9283
   21LEU     HG  373   2.147   2.163   3.873 -0.8396 -0.0006 -2.4686
   21LEU    CD1  374   2.086   1.990   3.769 -0.7934 -0.0898  0.0447
   21LEU   HD11  375   2.025   2.044   3.696  1.5223  1.7710 -0.6554
   21LEU   HD12  376   2.184   1.990   3.720 -1.4566  2.2369 -1.4545
   21LEU   HD13  377   2.037   1.893   3.776 -2.3888  0.4723 -2.1887
   21LEU    CD2  378   1.970   2.084   3.975 -0.2428  0.2427 -0.1846
   21LEU   HD21  379   1.900   2.134   3.908 -0.4492 -0.3141 -0.3883
   21LEU   HD22  380   1.927   1.988   4.004 -0.0379  0.2875  0.2758
   21LEU   HD23  381   1.979   2.145   4.064 -1.1626  1.8402 -1.1463
   21LEU      C  382   2.307   1.963   4.228  0.1993  0.2272  0.1248
   21LEU    OC1  383   2.410   1.897   4.200 -0.6086 -0.0322  0.2752
   21LEU    OC2  384   2.222   1.933   4.317 -0.1611  0.4559  0.2100
   22SOL     OW  385   5.426   0.575   1.119 -0.1092 -0.7120  0.4786
   22SOL    HW1  386   5.466   0.491   1.155 -0.2129 -0.5304  1.0206
   22SOL    HW2  387   5.451   0.585   1.022  1.9609 -0.1256  1.0337
   23SOL     OW  388   0.083   5.032   0.561  0.1447 -0.1554 -0.0595
   23SOL    HW1  389  -0.014   5.054   0.553 -0.1998 -0.8977  1.6410
   23SOL    HW2  390   0.110   5.038   0.657  1.7011 -0.2987 -0.4695
   24SOL     OW  391   0.508   0.799   0.172 -0.0792 -0.5770  0.2032
   24SOL    HW1  392   0.582   0.828   0.113 -0.2904  0.7754  0.5651
   24SOL    HW2  393   0.467   0.714   0.137 -0.1412  0.1379 -1.5119
   25SOL     OW  394   0.049   1.327   0.865 -0.3218 -0.0415 -0.3716
   25SOL    HW1  395   0.095   1.243   0.838 -1.5084 -0.2123 -1.9580
   25SOL    HW2  396   0.046   1.333   0.965  2.7719 -0.1980 -0.1731
   26SOL     OW  397   1.729   0.952   1.194  0.2253  0.2016  0.3341
   26SOL    HW1  398   1.718   0.853   1.201 -1.4566  0.4086  1.0555
   26SOL    HW2  399   1.737   0.978   1.097  2.0963 -0.7401  0.1989
   27SOL     OW  400   0.079   5.549   2.036 -0.5602 -0.5967 -0.3961
   27SOL    HW1  401   0.114   5.582   2.125 -2.0198 -1.9681  0.7343
   27SOL    HW2  402   0.090   5.622   1.968  1.2346  0.2546  0.7081
   28SOL     OW  403   1.849   0.870   0.724 -0.0119 -0.0976  0.1840
   28SOL    HW1  404   1.875   0.774   0.735  2.7388  0.5860  0.5085
   28SOL    HW2  405   1.804   0.882   0.636 -0.8844 -1.7531  0.3615
   29SOL     OW  406   0.715   0.875   0.023  0.3814  0.5489 -0.2423
   29SOL    HW1  407   0.734   0.970   0.047  0.1297  0.7152 -0.7051
   29SOL    HW2  408   0.765   0.850  -0.060 -0.6813  0.7112 -0.9410
   30SOL     OW  409   0.648   0.093   2.006  0.0715  0.2054 -0.7902
   30SOL    HW1  410   0.565   0.127   2.050 -0.3759  0.4317 -1.7762
   30SOL    HW2  411   0.665  -0.001   2.035 -0.4622  0.1975 -0.4873
   31SOL     OW  412   5.529   5.582   0.520 -0.1578  0.0045  0.1097
   31SOL    HW1  413   5.530   5.497   0.468  1.2957 -1.0935  1.8083
   31SOL    HW2  414   5.454   5.640   0.488 -1.9397 -2.3938 -0.2894
   32SOL     OW  415   0.667   1.427   1.534  0.2693 -0.0694  0.0170
   32SOL    HW1  416   0.691   1.341   1.578 -1.6764 -1.3910 -1.3060
   32SOL    HW2  417   0.595   1.473   1.587  0.6998  0.3232  0.2681
   33SOL     OW  418   5.456   0.198   1.715  0.2014 -0.1467 -0.3215
   33SOL    HW1  419   5.367   0.192   1.762  0.2524  0.9780 -0.0443
   33SOL    HW2  420   5.483   0.294   1.709  0.5643 -0.3396 -2.0021
   34SOL     OW  421   0.645   1.348   0.892  0.1626 -0.1898 -0.0151
   34SOL    HW1  422   0.594   1.294   0.826 -1.6021  0.5110  0.7110
   34SOL    HW2  423   0.583   1.411   0.938  1.6906  0.6363  0.9952
   35SOL     OW  424   0.852   5.293   0.932 -0.0322 -0.2949  0.0130
   35SOL    HW1  425   0.856   5.224   1.004 -0.3953 -0.3000  0.0289
   35SOL    HW2  426   0.767   5.345   0.940  0.1267 -0.0082 -0.1482
   36SOL     OW  427   2.035   0.056   1.779 -0.0632  0.1640  0.5553
   36SOL    HW1  428   2.111   0.054   1.714 -2.0079 -0.1636 -1.8125
   36SOL    HW2  429   2.021   0.150   1.811 -1.0497  0.9586 -2.0081
   37SOL     OW  430   1.275   1.235   0.813  0.1790 -0.0531 -0.3917
   37SOL    HW1  431   1.205   1.291   0.857 -1.0879 -1.1113 -0.9973
   37SOL    HW2  432   1.255   1.138   0.828  1.2156 -0.3890 -1.0393
   38SOL     OW  433   0.247   2.550   1.092  0.0138 -0.2393 -0.6803
   38SOL    HW1  434   0.150   2.529   1.097  0.1680 -0.7723  0.2044
   38SOL    HW2  435   0.261   2.632   1.036 -1.1207  1.0266  0.7986
   39SOL     OW  436   1.235   1.126   0.240  0.0502 -0.2607 -0.2369
   39SOL    HW1  437   1.242   1.038   0.287 -1.1136 -0.2571 -0.0304
   39SOL    HW2  438   1.247   1.200   0.306  0.9574 -0.2585 -0.3981
   40SOL     OW  439   5.533   0.619   0.845 -0.7283 -0.1360 -0.2233
   40SOL    HW1  440   5.494   0.541   0.797 -1.7728  0.7335 -0.8498
   40SOL    HW2  441   5.633   0.615   0.840 -0.7724 -1.2588 -0.4945
   41SOL     OW  442   4.100   3.165   2.281  0.0048 -0.1441 -0.1868
   41SOL    HW1  443   4.104   3.183   2.183 -0.6749  2.3801  0.1762
   41SOL    HW2  444   4.054   3.241   2.327 -3.3717 -3.0189  1.6829
   42SOL     OW  445   0.279   0.126   1.002 -0.5497 -0.1356 -0.2797
   42SOL    HW1  446   0.278   0.029   1.027 -1.0860 -0.3331 -1.0311
   42SOL    HW2  447   0.187   0.164   1.011 -1.4568 -0.8940 -4.3349
   43SOL     OW  448   1.602   0.700   1.584 -0.3486 -0.4225  0.3637
   43SOL    HW1  449   1.585   0.674   1.679  1.0295 -1.3589  0.3780
   43SOL    HW2  450   1.650   0.625   1.537 -0.7517  0.1398 -0.9952
   44SOL     OW  451   0.447   0.379   0.655 -0.1849 -0.4464  0.2020
   44SOL    HW1  452   0.547   0.370   0.651 -0.0804 -0.3078  1.7761
   44SOL    HW2  453   0.406   0.289   0.667 -0.1192 -0.3324  1.3421
   45SOL     OW  454   1.502   2.056   1.023  0.0816 -0.5809 -0.6324
   45SOL    HW1  455   1.549   2.141   1.047 -2.3394  0.0523  2.4820
   45SOL    HW2  456   1.534   2.025   0.933  1.3923  3.3407 -1.7386
   46SOL     OW  457   0.583   1.657   0.444 -0.0236 -0.5317  0.2505
   46SOL    HW1  458   0.483   1.657   0.447  0.0002 -0.4816  2.1905
   46SOL    HW2  459   0.618   1.590   0.509  1.2120 -0.2403 -0.0950
   47SOL     OW  460   1.370   5.474   0.071  0.0252  0.2007  0.4051
   47SOL    HW1  461   1.327   5.448  -0.015  0.6650  1.3295 -0.2762
   47SOL    HW2  462   1.466   5.495   0.056 -0.1170  1.5219  1.1544
   48SOL     OW  463   2.408   2.096   0.519 -0.0690 -0.1200 -0.0096
   48SOL    HW1  464   2.335   2.033   0.494 -0.6284  0.7160 -0.5067
   48SOL    HW2  465   2.437   2.149   0.439 -0.5342  1.2008  0.6615
   49SOL     OW  466   0.894   0.727   1.899  0.5696  0.4772 -0.1403
   49SOL    HW1  467   0.994   0.722   1.894  0.5155 -1.4859  0.0182
   49SOL    HW2  468   0.858   0.752   1.809  1.2380  3.1051  0.2455
   50SOL     OW  469   0.236   1.010   5.590  0.5999 -0.2976 -0.1982
   50SOL    HW1  470   0.175   0.938   5.555 -1.7133  2.0385 -1.3489
   50SOL    HW2  471   0.311   1.024   5.525  1.2202 -1.7778  0.1569
   51SOL     OW  472   0.952   1.684   1.351 -0.7188  0.2049  0.1171
   51SOL    HW1  473   0.880   1.618   1.328 -0.6217  0.3418 -0.6000
   51SOL    HW2  474   0.952   1.700   1.450  0.0144 -1.7574  0.5018
   52SOL     OW  475   2.434   0.740   4.581  0.0958 -0.2555 -0.2860
   52SOL    HW1  476   2.369   0.693   4.641 -0.6944  1.9774  0.7043
   52SOL    HW2  477   2.520   0.689   4.581 -0.7896 -1.8385  0.4975
   53SOL     OW  478   5.293   1.632   0.959 -0.3874  0.1143  0.3063
   53SOL    HW1  479   5.267   1.708   1.018  1.6054  0.7973  0.3752
   53SOL    HW2  480   5.225   1.622   0.886  0.0158  2.9434 -0.5809
   54SOL     OW  481   2.015   1.916   5.184  0.0949  0.6459 -0.0822
   54SOL    HW1  482   2.103   1.938   5.226 -0.1008  1.5866 -0.1373
   54SOL    HW2  483   2.028   1.899   5.086  0.1905  1.0313 -0.1399
   55SOL     OW  484   1.390   2.565   0.880  0.2053 -0.4788  0.4299
   55SOL    HW1  485   1.429   2.541   0.791  0.9664 -0.7700  0.8316
   55SOL    HW2  486   1.298   2.526   0.888  1.1931 -2.8902  0.8456
   56SOL     OW  487   5.477   0.502   1.747 -0.4833 -0.2193 -0.3177
   56SOL    HW1  488   5.519   0.551   1.822 -0.1428 -0.0579 -0.6121
   56SOL    HW2  489   5.381   0.481   1.770 -0.0585 -1.2074  0.6468
   57SOL     OW  490   1.254   0.089   0.203 -0.3253 -0.0276  0.1312
   57SOL    HW1  491   1.174   0.116   0.149  0.8435 -0.4336 -1.9188
   57SOL    HW2  492   1.281  -0.004   0.177  1.7281  0.6774 -0.3947
   58SOL     OW  493   1.838   2.445   0.343  0.2657 -0.6718 -0.3998
   58SOL    HW1  494   1.762   2.505   0.318  0.2660 -0.4011  0.2147
   58SOL    HW2  495   1.854   2.452   0.442  0.3467 -1.6009 -0.3427
   59SOL     OW  496   1.140   1.067   1.111  0.0138  0.1374  0.3151
   59SOL    HW1  497   1.073   1.135   1.142  1.3417  1.7004 -0.1021
   59SOL    HW2  498   1.233   1.100   1.131  0.7451 -0.9696 -1.0703
   60SOL     OW  499   1.321   0.888   1.650 -0.3247 -0.8765 -0.7934
   60SOL    HW1  500   1.344   0.871   1.554 -0.3289 -1.6568 -0.6600
   60SOL    HW2  501   1.278   0.978   1.658  2.3718  0.5455 -1.0964
   61SOL     OW  502   1.638   5.510   5.565 -0.4216  0.3271  0.3779
   61SOL    HW1  503   1.679   5.539   5.478 -1.2459  0.8823  0.1654
   61SOL    HW2  504   1.711   5.489   5.630  0.2375  1.8347  0.1769
   62SOL     OW  505   1.282   0.472   1.280 -0.0157  1.0821  0.3785
   62SOL    HW1  506   1.356   0.537   1.265 -0.5706  1.7724  0.5686
   62SOL    HW2  507   1.311   0.381   1.250  0.8711  1.3569  0.3728
   63SOL     OW  508   1.212   0.992   2.394  0.0933  0.4704  0.2900
   63SOL    HW1  509   1.270   1.021   2.470 -0.3319 -0.3173  0.9291
   63SOL    HW2  510   1.206   0.892   2.393 -0.5086  0.5048 -0.3225
   64SOL     OW  511   5.116   0.789   2.053  0.0757  0.6590  0.4397
   64SOL    HW1  512   5.102   0.767   1.956 -1.0216  1.2531  0.4552
   64SOL    HW2  513   5.097   0.886   2.068 -0.3895  0.4259  1.3734
   65SOL     OW  514   1.309   0.252   0.818 -0.4199 -0.2873 -0.0350
   65SOL    HW1  515   1.243   0.180   0.796  0.0079 -0.7223  0.0897
   65SOL    HW2  516   1.366   0.270   0.738 -1.1082  0.5571 -0.3599
   66SOL     OW  517   2.114   4.626   0.397 -0.2664  0.3031 -0.1691
   66SOL    HW1  518   2.063   4.667   0.321 -0.8750 -0.0709  0.0380
   66SOL    HW2  519   2.186   4.690   0.427 -0.6363  0.8462 -0.4284
   67SOL     OW  520   0.538   4.608   1.169  0.4830 -0.1960  0.2564
   67SOL    HW1  521   0.454   4.555   1.163  0.9580 -0.8620 -0.7551
   67SOL    HW2  522   0.596   4.571   1.242  0.9365 -1.2774 -0.6300
   68SOL     OW  523   4.382   1.592   1.207 -0.1375 -0.3777  0.3256
   68SOL    HW1  524   4.369   1.645   1.123 -0.7675  3.1756  2.4434
   68SOL    HW2  525   4.312   1.522   1.213 -1.2156  0.4988 -1.2949
   69SOL     OW  526   0.993   0.676   5.128 -0.8332 -0.1119 -0.9138
   69SOL    HW1  527   0.937   0.603   5.167 -0.5919 -0.3118 -0.9410
   69SOL    HW2  528   1.087   0.668   5.162 -0.4518 -0.7026 -2.0614
   70SOL     OW  529   0.452   0.212   2.735 -0.1355 -0.8295 -0.6295
   70SOL    HW1  530   0.423   0.171   2.822  0.6234  1.1016  0.5901
   70SOL    HW2  531   0.444   0.311   2.741  0.4821 -0.6336 -2.5963
   71SOL     OW  532   1.880   1.128   4.229 -0.6192 -0.1806  0.2731
   71SOL    HW1  533   1.933   1.191   4.172 -1.5166  2.0158  1.7391
   71SOL    HW2  534   1.933   1.044   4.243  0.3402 -0.1039 -2.2982
   72SOL     OW  535   0.879   0.578   0.973 -0.3089  0.3060  0.1728
   72SOL    HW1  536   0.967   0.530   0.977 -0.1125  0.7278  1.0986
   72SOL    HW2  537   0.825   0.557   1.055 -0.8184  0.5251 -0.1022
   73SOL     OW  538   0.785   0.501   1.252  0.2641  0.5691 -0.0339
   73SOL    HW1  539   0.788   0.409   1.212 -0.8897  0.6064 -0.2671
   73SOL    HW2  540   0.877   0.533   1.270  0.6696 -0.9531  0.7878
   74SOL     OW  541   5.319   1.446   0.223 -0.1661  0.2698  0.6962
   74SOL    HW1  542   5.407   1.438   0.270  0.5172 -0.5580 -0.6691
   74SOL    HW2  543   5.285   1.355   0.201 -1.6149  0.5522  1.5955
   75SOL     OW  544   1.956   1.175   0.287  0.2843  0.0065 -0.1064
   75SOL    HW1  545   1.999   1.090   0.259 -1.0488 -1.0682  0.9672
   75SOL    HW2  546   2.025   1.248   0.291  1.8715 -1.4877  0.9965
   76SOL     OW  547   0.467   1.526   1.683 -0.4140  0.3791 -0.7979
   76SOL    HW1  548   0.508   1.617   1.691 -0.8308  0.5854 -0.9291
   76SOL    HW2  549   0.399   1.527   1.609  1.4188 -0.7255 -2.5839
   77SOL     OW  550   5.516   5.548   1.126  0.6272  0.2392  0.3366
   77SOL    HW1  551   5.581   5.472   1.133  0.1854 -0.1378  0.4110
   77SOL    HW2  552   5.444   5.535   1.194  0.0533  0.2431 -0.2728
   78SOL     OW  553   1.638   0.711   0.108 -0.1176  0.4508 -0.6804
   78SOL    HW1  554   1.602   0.792   0.062 -0.3492  1.9909  2.0341
   78SOL    HW2  555   1.591   0.698   0.195  0.4218 -2.2283 -0.7038
   79SOL     OW  556   0.544   1.077   1.928  0.1238 -0.0552  0.4795
   79SOL    HW1  557   0.579   1.119   2.012  0.8101  0.6550 -0.1513
   79SOL    HW2  558   0.463   1.127   1.898  1.8059  1.8781 -1.1098
   80SOL     OW  559   1.343   1.671   1.192 -0.2670  0.7038  1.1202
   80SOL    HW1  560   1.419   1.729   1.221  0.7756 -0.4870  0.8872
   80SOL    HW2  561   1.322   1.605   1.265 -0.2157  0.2084  0.6960
   81SOL     OW  562   0.932   5.280   1.815  0.5515  0.2925 -0.1028
   81SOL    HW1  563   0.836   5.301   1.835 -0.1232 -0.8568 -1.9452
   81SOL    HW2  564   0.990   5.349   1.858 -1.0504  0.7887  1.3990
   82SOL     OW  565   2.398   0.148   1.039  0.4163 -0.1020 -0.2502
   82SOL    HW1  566   2.436   0.233   1.076 -0.1261  1.2661 -2.5926
   82SOL    HW2  567   2.364   0.165   0.946 -0.7595 -2.6396 -0.3595
   83SOL     OW  568   5.322   1.860   0.074 -0.7867 -0.0010  0.4686
   83SOL    HW1  569   5.395   1.793   0.063  0.1015  0.5306  2.6675
   83SOL    HW2  570   5.269   1.866  -0.011  0.0987 -2.2796 -0.3212
   84SOL     OW  571   1.999   0.190   0.951  0.3059 -0.7300 -0.0098
   84SOL    HW1  572   1.987   0.154   0.859 -0.9374  0.4084 -0.3147
   84SOL    HW2  573   2.011   0.113   1.015 -2.5638 -1.7868 -0.5944
   85SOL     OW  574   5.531   0.813   1.316 -0.2857 -0.1483 -0.0846
   85SOL    HW1  575   5.512   0.737   1.254 -0.7308 -0.1724  0.0807
   85SOL    HW2  576   5.512   0.785   1.410  0.1973 -0.0480  0.0477
   86SOL     OW  577   1.365   0.212   1.213  0.9345  0.0497 -0.0329
   86SOL    HW1  578   1.365   0.120   1.173  1.3544  0.6818 -1.5438
   86SOL    HW2  579   1.459   0.245   1.218  1.0071 -0.3634  2.4072
   87SOL     OW  580  -0.029   1.082   2.176  0.9807  0.1114  0.7798
   87SOL    HW1  581  -0.010   1.082   2.078  0.0856 -1.1217  0.5823
   87SOL    HW2  582   0.051   1.046   2.225  0.7079 -1.1733  0.3176
   88SOL     OW  583   0.634   0.982   2.801  0.3688 -0.8310  0.0372
   88SOL    HW1  584   0.589   0.893   2.794 -3.4681  0.7166  1.6786
   88SOL    HW2  585   0.679   0.989   2.890 -1.7219 -0.3156  1.1292
   89SOL     OW  586   0.911   5.272   0.277 -0.1465  0.7299 -0.0865
   89SOL    HW1  587   0.919   5.199   0.345 -0.9771  0.5693 -0.1565
   89SOL    HW2  588   0.945   5.240   0.189 -0.3576  0.4822 -0.0769
   90SOL     OW  589   0.141   0.685   2.296 -0.7937 -0.0822  0.8997
   90SOL    HW1  590   0.140   0.781   2.323 -0.8945  0.2647 -0.3239
   90SOL    HW2  591   0.151   0.677   2.197  0.8081 -1.3604  1.1145
   91SOL     OW  592   4.856   2.959   2.291  0.3371 -0.0574 -0.0838
   91SOL    HW1  593   4.908   2.986   2.209 -0.0956  2.6918  0.4745
   91SOL    HW2  594   4.903   2.992   2.373 -0.7390 -0.2173  0.6144
   92SOL     OW  595   1.664   5.601   2.245  0.3290  0.1601 -0.3815
   92SOL    HW1  596   1.671   5.539   2.167  1.5314  0.3364 -0.4337
   92SOL    HW2  597   1.727   5.571   2.318  0.3142  0.8369 -0.0788
   93SOL     OW  598   0.616   0.713   1.267  0.0122  0.0944 -0.2821
   93SOL    HW1  599   0.617   0.775   1.188 -2.1336  1.3205  0.5648
   93SOL    HW2  600   0.689   0.645   1.257  2.1193  2.3934 -1.5015
   94SOL     OW  601   2.599   0.838   1.499 -0.3175  0.0558  0.0793
   94SOL    HW1  602   2.687   0.834   1.546 -0.9670  2.4617  1.7119
   94SOL    HW2  603   2.613   0.831   1.401  1.7695  0.8868  0.2754
   95SOL     OW  604   0.634   4.565   0.444  0.1431 -0.3830  0.1668
   95SOL    HW1  605   0.670   4.654   0.472 -0.3035 -0.1355 -0.0365
   95SOL    HW2  606   0.697   4.493   0.473 -0.3899 -0.1670  2.0337
   96SOL     OW  607   3.068   1.235   5.177  0.1191 -0.0449  0.0100
   96SOL    HW1  608   3.022   1.180   5.247 -1.8184  0.0596 -1.1114
   96SOL    HW2  609   3.128   1.176   5.123 -0.7826 -0.7780 -0.2201
   97SOL     OW  610   1.767   5.542   0.446  0.0997 -0.2289  0.1221
   97SOL    HW1  611   1.758   5.446   0.475  2.0444 -0.5010 -0.0903
   97SOL    HW2  612   1.722   5.601   0.513 -3.1243 -1.3626 -0.8541
   98SOL     OW  613   0.804   4.319   0.482  0.3140  0.0047  0.1955
   98SOL    HW1  614   0.840   4.252   0.547  1.5479  1.3637  0.9570
   98SOL    HW2  615   0.826   4.289   0.389  0.9790 -0.5843  0.5315
   99SOL     OW  616   0.271   0.247   2.499 -0.4437  0.5837 -0.2202
   99SOL    HW1  617   0.297   0.151   2.508  1.1502  0.8641 -1.3540
   99SOL    HW2  618   0.215   0.274   2.577 -2.0662 -1.5959 -0.5481
  100SOL     OW  619   0.356   0.635   0.597 -0.0678  0.1595 -0.2820
  100SOL    HW1  620   0.322   0.669   0.510 -2.0762 -1.3803 -0.1619
  100SOL    HW2  621   0.392   0.542   0.585  0.6404  0.3392  0.3468
  101SOL     OW  622   0.705   0.511   0.287 -0.3496 -0.2086  0.6710
  101SOL    HW1  623   0.754   0.440   0.338 -2.3874 -1.4468  1.0157
  101SOL    HW2  624   0.687   0.588   0.348  0.1206 -0.2610  0.8786
  102SOL     OW  625   1.874   1.211   1.090  0.3832 -0.3552  0.0599
  102SOL    HW1  626   1.891   1.135   1.028  1.7757  0.6524 -0.8582
  102SOL    HW2  627   1.958   1.233   1.141 -0.4854 -0.5756  1.6751
  103SOL     OW  628   1.761   0.067   1.175 -0.2453  0.5529  0.6009
  103SOL    HW1  629   1.723   0.044   1.265  0.9841  0.3026  1.0687
  103SOL    HW2  630   1.689   0.106   1.118 -1.6325 -1.4089  0.8908
  104SOL     OW  631   0.877   5.436   1.314 -0.1283  0.0076 -0.0573
  104SOL    HW1  632   0.870   5.459   1.217  0.6797 -0.0501 -0.1338
  104SOL    HW2  633   0.790   5.455   1.358 -0.5700 -0.1522 -0.8339
  105SOL     OW  634   1.259   0.560   2.196  0.3261 -0.0025 -0.5590
  105SOL    HW1  635   1.255   0.658   2.173  0.6078 -0.2787 -1.8726
  105SOL    HW2  636   1.190   0.511   2.144  0.3736 -0.5550 -0.1114
  106SOL     OW  637   1.806   0.913   1.471 -0.0355 -0.0758  0.1031
  106SOL    HW1  638   1.727   0.851   1.461 -0.9445  1.1697 -0.8050
  106SOL    HW2  639   1.804   0.980   1.397  1.4087  0.5206  0.5828
  107SOL     OW  640   0.684   0.154   1.574 -0.0288 -0.2077 -0.4856
  107SOL    HW1  641   0.668   0.078   1.511  1.9829 -1.3937  0.3266
  107SOL    HW2  642   0.626   0.144   1.654 -0.1818 -0.5708 -0.6420
  108SOL     OW  643   0.269   1.641   1.166 -0.9344  0.3536  0.5959
  108SOL    HW1  644   0.181   1.654   1.212 -1.5531  2.3585 -1.0122
  108SOL    HW2  645   0.257   1.650   1.067  0.9935  0.0588  0.2885
  109SOL     OW  646   2.518   0.581   1.514 -0.6659  0.7012 -0.0863
  109SOL    HW1  647   2.576   0.532   1.450 -1.4437 -1.2157  0.5919
  109SOL    HW2  648   2.553   0.674   1.527  1.8162 -0.1514 -0.2235
  110SOL     OW  649   2.313   0.400   0.455  0.2413  0.3140  0.2242
  110SOL    HW1  650   2.219   0.422   0.427  0.2483  0.8113  0.5702
  110SOL    HW2  651   2.360   0.354   0.380 -0.4708 -0.5047  0.2645
  111SOL     OW  652   0.411   1.221   5.168  0.0229 -0.0363 -0.0349
  111SOL    HW1  653   0.365   1.310   5.177  1.2909  0.8375 -1.6020
  111SOL    HW2  654   0.495   1.233   5.114  1.0317 -1.9280  1.0133
  112SOL     OW  655   2.224   0.637   4.754  0.1523  0.3761 -0.3433
  112SOL    HW1  656   2.163   0.699   4.804 -0.4463  0.4981 -1.2055
  112SOL    HW2  657   2.173   0.592   4.681  0.1851 -2.2640  1.1409
  113SOL     OW  658   2.620   4.227   5.565  0.1408 -0.2826 -0.2170
  113SOL    HW1  659   2.668   4.301   5.612 -1.3028  1.7209 -1.7541
  113SOL    HW2  660   2.548   4.265   5.508 -1.5226 -3.0007 -0.0860
  114SOL     OW  661   1.965   0.776   5.405  0.7486  0.0943 -0.4495
  114SOL    HW1  662   1.877   0.737   5.380  2.0167 -1.7941 -2.3864
  114SOL    HW2  663   1.977   0.770   5.504 -1.0033 -0.1800 -0.2211
  115SOL     OW  664   1.719   2.314   1.969 -0.4124  0.0000  0.5815
  115SOL    HW1  665   1.770   2.367   2.037 -1.2476  1.2118  0.2896
  115SOL    HW2  666   1.622   2.336   1.975 -0.2339  2.8716 -3.2136
  116SOL     OW  667   5.434   1.943   2.375  0.2067  0.7266  0.1767
  116SOL    HW1  668   5.532   1.949   2.360  0.2632 -0.5448 -0.1084
  116SOL    HW2  669   5.409   1.848   2.392 -0.9443  1.0678  0.4917
  117SOL     OW  670   0.412   1.083   5.423  0.3314  0.2914  0.2468
  117SOL    HW1  671   0.412   1.152   5.351  0.5244  1.6771  1.5331
  117SOL    HW2  672   0.449   0.997   5.387  0.8404  1.0835 -1.1797
  118SOL     OW  673   1.230   1.312   0.434 -0.0426 -0.1494  0.4633
  118SOL    HW1  674   1.157   1.353   0.488 -0.1499 -0.0979  0.2822
  118SOL    HW2  675   1.313   1.305   0.489 -0.2262 -0.3480  0.7179
  119SOL     OW  676   1.672   1.376   1.145  0.5006  0.4701 -0.2610
  119SOL    HW1  677   1.746   1.312   1.123  0.2887  0.3453 -0.6357
  119SOL    HW2  678   1.683   1.411   1.238  0.8878  0.2585 -0.2274
  120SOL     OW  679   1.701   5.101   1.746 -0.2728  0.2189 -0.4719
  120SOL    HW1  680   1.766   5.176   1.738 -1.2658  1.2583  0.7850
  120SOL    HW2  681   1.608   5.135   1.728 -0.7536 -0.6683  0.2756
  121SOL     OW  682   0.476   1.248   0.687 -0.4482 -0.0610 -0.2063
  121SOL    HW1  683   0.455   1.213   0.596 -0.1060  0.6890 -0.5805
  121SOL    HW2  684   0.414   1.205   0.754 -1.8822  0.6567 -1.0189
  122SOL     OW  685   0.911   1.394   0.825  0.3171  0.1014 -0.1803
  122SOL    HW1  686   0.953   1.426   0.910  2.0316 -2.7921  0.2145
  122SOL    HW2  687   0.813   1.381   0.838  0.6587 -0.9764  1.6488
  123SOL     OW  688   0.263   1.547   1.477  0.0096  0.0798 -0.4638
  123SOL    HW1  689   0.176   1.589   1.448 -0.6828 -1.1114 -0.1510
  123SOL    HW2  690   0.271   1.456   1.437  0.0334 -0.7559  1.3652
  124SOL     OW  691   1.483   0.610   0.924  0.0089  0.2276 -0.2546
  124SOL    HW1  692   1.556   0.553   0.886 -1.2981 -3.0900  1.7287
  124SOL    HW2  693   1.419   0.636   0.852  0.6226 -0.9022 -1.2292
  125SOL     OW  694   0.769   5.114   1.629  0.6876 -0.5038 -0.2683
  125SOL    HW1  695   0.815   5.200   1.651  2.0985 -0.8712 -1.5615
  125SOL    HW2  696   0.822   5.065   1.559 -0.3954 -2.1465  0.0029
  126SOL     OW  697   1.290   0.230   5.007  0.1324  0.1985 -0.3046
  126SOL    HW1  698   1.375   0.261   5.050 -0.1096 -0.2534  0.4970
  126SOL    HW2  699   1.303   0.139   4.968  0.4397  0.7208 -1.4831
  127SOL     OW  700   0.880   5.089   0.484 -0.0000 -0.3848  0.5773
  127SOL    HW1  701   0.784   5.066   0.471 -0.1268  1.0032 -1.4378
  127SOL    HW2  702   0.889   5.167   0.545 -0.4342  1.2264 -1.3054
  128SOL     OW  703   2.135   1.363   0.237 -0.0048 -0.4251  0.1333
  128SOL    HW1  704   2.131   1.407   0.327  1.2943 -0.4434  0.2251
  128SOL    HW2  705   2.231   1.348   0.212 -0.3882 -2.0869 -0.4490
  129SOL     OW  706   1.706   0.937   0.515 -0.2024  0.2552  0.1814
  129SOL    HW1  707   1.729   1.034   0.526 -0.3446  0.2458  0.5718
  129SOL    HW2  708   1.618   0.929   0.469 -0.6686  0.3267  1.0512
  130SOL     OW  709   1.961   0.400   5.624 -0.0487  0.2499  0.3700
  130SOL    HW1  710   1.875   0.449   5.609 -0.4138 -0.6271 -0.5596
  130SOL    HW2  711   2.011   0.392   5.537  0.1978 -0.6361  0.5784
  131SOL     OW  712   5.029   0.746   1.730  0.3522 -0.2304  0.1984
  131SOL    HW1  713   5.067   0.696   1.652 -2.4627  1.7834 -2.7560
  131SOL    HW2  714   4.954   0.694   1.771  0.8647 -0.6661  0.5791
  132SOL     OW  715   0.994   0.920   2.236 -0.5124  0.0611  0.6386
  132SOL    HW1  716   0.906   0.890   2.201 -0.2322 -1.1720  0.9555
  132SOL    HW2  717   1.067   0.867   2.194 -0.0609 -0.3184  1.8375
  133SOL     OW  718   1.756   1.011   2.906 -0.6499  0.2855  0.1524
  133SOL    HW1  719   1.787   1.085   2.966 -2.4104  0.9108  0.3564
  133SOL    HW2  720   1.822   0.997   2.833 -0.1492  1.8913  0.2601
  134SOL     OW  721   1.826   0.122   3.075  0.1328 -0.5937  0.7831
  134SOL    HW1  722   1.774   0.151   2.994 -0.1324  0.6590  1.3711
  134SOL    HW2  723   1.799   0.179   3.153  0.2909 -1.8714  1.7905
  135SOL     OW  724   5.603   0.172   0.998 -0.2114 -0.4484 -0.1031
  135SOL    HW1  725   5.544   0.180   0.917 -1.4575 -0.7820  0.7352
  135SOL    HW2  726   5.592   0.081   1.038  2.6095 -1.3668 -1.1754
  136SOL     OW  727  -0.006   0.961   1.842  0.5508 -0.2351  0.2542
  136SOL    HW1  728  -0.016   0.884   1.906  4.0067 -0.2179  1.0054
  136SOL    HW2  729   0.057   0.935   1.769  0.7459  1.4744 -0.2119
  137SOL     OW  730   1.036   1.051   1.816 -0.1130 -0.2669 -0.1215
  137SOL    HW1  731   1.126   1.092   1.827  1.1359 -2.6935 -0.6120
  137SOL    HW2  732   1.040   0.982   1.743 -2.5150 -0.0752 -0.5106
  138SOL     OW  733   1.307   5.221   5.049  0.0496  0.9569  0.1927
  138SOL    HW1  734   1.274   5.127   5.053 -0.4527  1.1342  0.3414
  138SOL    HW2  735   1.374   5.229   4.975  0.3588  0.4070  0.4085
  139SOL     OW  736   5.129   0.449   2.446  0.0872  0.1014  0.4335
  139SOL    HW1  737   5.048   0.435   2.389  0.7367  1.6200 -0.9625
  139SOL    HW2  738   5.126   0.387   2.524 -1.4639 -1.2105 -0.5882
  140SOL     OW  739   5.158   2.660   3.021  0.0456  0.4065  0.1497
  140SOL    HW1  740   5.137   2.755   2.999 -0.8812  0.4151  1.0258
  140SOL    HW2  741   5.129   2.640   3.114 -0.7891 -1.0487 -0.3971
  141SOL     OW  742   2.183   0.370   0.887  0.1410  0.4404 -0.1155
  141SOL    HW1  743   2.121   0.297   0.915 -0.0498 -0.1323 -1.9532
  141SOL    HW2  744   2.131   0.452   0.866  0.1934  0.5284  0.0859
  142SOL     OW  745   2.461   1.237   4.858  0.0663  0.0458  0.6659
  142SOL    HW1  746   2.445   1.224   4.760 -0.3717 -1.6027  0.9296
  142SOL    HW2  747   2.545   1.289   4.871 -0.6645  1.6409 -0.5915
  143SOL     OW  748   0.300   5.358   1.339  0.4259 -0.3708 -0.3248
  143SOL    HW1  749   0.287   5.453   1.367  1.1915 -0.8081  1.6234
  143SOL    HW2  750   0.280   5.297   1.416  1.0106 -1.7477 -1.2207
  144SOL     OW  751   1.042   0.410   0.031 -0.7207  0.0211 -0.8634
  144SOL    HW1  752   0.947   0.391   0.053 -0.9241  1.3393 -0.5100
  144SOL    HW2  753   1.065   0.371  -0.058 -0.9782 -2.1061 -0.0457
  145SOL     OW  754   0.134   0.937   1.608 -1.0377  0.2695 -0.1369
  145SOL    HW1  755   0.105   1.032   1.595 -1.1189  0.1586 -0.7649
  145SOL    HW2  756   0.234   0.934   1.620 -0.8088  0.2762 -1.8536
  146SOL     OW  757   1.471   0.880   0.981 -0.1477  0.8752 -1.0516
  146SOL    HW1  758   1.515   0.790   0.984 -0.2004  0.8590 -0.7595
  146SOL    HW2  759   1.381   0.871   0.937  0.7775  1.1814 -3.1558
  147SOL     OW  760   2.166   2.100   1.730 -0.7350 -0.7568  0.9059
  147SOL    HW1  761   2.095   2.153   1.777 -0.3190  0.8654 -0.2063
  147SOL    HW2  762   2.124   2.024   1.681 -1.7158  0.1453  0.3125
  148SOL     OW  763   4.984   1.628   1.512  0.1237 -0.2299 -0.7184
  148SOL    HW1  764   5.024   1.668   1.596  1.5647  0.0482 -1.5014
  148SOL    HW2  765   4.951   1.702   1.454  2.0323 -0.1493 -1.7925
  149SOL     OW  766   1.067   5.447   0.907 -0.5438 -0.4229  0.2774
  149SOL    HW1  767   0.993   5.381   0.900 -0.2305 -0.7898  0.4376
  149SOL    HW2  768   1.152   5.407   0.872 -0.1743 -0.3807  1.0989
  150SOL     OW  769   1.752   0.481   0.565 -0.3602  0.2187  0.3043
  150SOL    HW1  770   1.841   0.526   0.561  0.1369 -0.6331  1.2878
  150SOL    HW2  771   1.737   0.427   0.483 -0.2002  0.7727 -0.0913
  151SOL     OW  772   0.616   1.896   0.311 -0.1286 -0.6383 -0.2946
  151SOL    HW1  773   0.576   1.812   0.348  1.2586 -0.8772  0.7374
  151SOL    HW2  774   0.710   1.878   0.283  0.6804  0.9026  1.3164
  152SOL     OW  775   0.501   1.005   1.334 -0.5965  0.0764 -0.8111
  152SOL    HW1  776   0.405   1.019   1.311 -0.7150  0.2413 -0.2279
  152SOL    HW2  777   0.541   0.939   1.271 -1.4685 -1.1221 -0.1549
  153SOL     OW  778   1.179   5.031   0.489  0.1650  0.1495 -0.2492
  153SOL    HW1  779   1.083   5.036   0.462  0.2204  0.0320 -0.4669
  153SOL    HW2  780   1.195   4.949   0.543  0.0442  0.4082  0.1921
  154SOL     OW  781   0.030   1.295   2.490  0.0546 -0.3279 -0.4446
  154SOL    HW1  782   0.104   1.350   2.529  0.8126 -1.5475 -0.0723
  154SOL    HW2  783   0.053   1.198   2.500 -2.2455 -0.8141  1.0141
  155SOL     OW  784   0.599   0.393   1.481  0.1464  0.2143  0.0419
  155SOL    HW1  785   0.679   0.452   1.478  1.6058 -1.5251  2.0065
  155SOL    HW2  786   0.627   0.298   1.498 -2.3267 -0.3226  1.7553
  156SOL     OW  787   5.533   5.141   1.160 -0.2794  0.1285  0.2766
  156SOL    HW1  788   5.586   5.063   1.128 -0.5003 -0.4605  1.3391
  156SOL    HW2  789   5.590   5.223   1.158 -0.4625  0.2734 -2.2574
  157SOL     OW  790   0.686   1.844  -0.016 -0.1410 -0.0734  0.4770
  157SOL    HW1  791   0.647   1.760   0.019 -0.5994  0.7808  2.0877
  157SOL    HW2  792   0.639   1.923   0.023  1.3812  0.9633  0.3327
  158SOL     OW  793   0.502   1.507   1.068 -0.0452  0.0120 -0.5648
  158SOL    HW1  794   0.410   1.512   1.106  1.0103  0.0545  2.2037
  158SOL    HW2  795   0.537   1.600   1.053  0.4328  0.0789  0.8212
  159SOL     OW  796   1.133   0.417   0.982  0.6567  0.3570  0.0159
  159SOL    HW1  797   1.172   0.436   1.072 -0.4167 -1.5861  0.9586
  159SOL    HW2  798   1.193   0.353   0.933 -0.3743 -1.2698  0.7764
  160SOL     OW  799   5.468   0.874   0.385 -0.0106 -0.3558  0.2083
  160SOL    HW1  800   5.374   0.893   0.413  0.5604  2.0639  0.7430
  160SOL    HW2  801   5.521   0.842   0.463  0.5679  2.3659  1.0286
  161SOL     OW  802   0.608   0.438   2.292  0.4496 -0.2192 -0.8282
  161SOL    HW1  803   0.588   0.358   2.348  1.3867 -0.8285 -1.3346
  161SOL    HW2  804   0.645   0.408   2.204  1.1513  0.7796 -0.8867
  162SOL     OW  805   1.885   1.229   0.542 -0.1201 -0.2437  0.1667
  162SOL    HW1  806   1.869   1.218   0.444 -0.4045 -1.0333  0.2979
  162SOL    HW2  807   1.981   1.250   0.558  0.1362 -1.0952 -0.2094
  163SOL     OW  808   1.658   5.165   5.217  0.6248 -0.5461  0.1524
  163SOL    HW1  809   1.641   5.152   5.119  0.1013  1.5406 -0.0825
  163SOL    HW2  810   1.606   5.098   5.269 -1.0553 -0.1692 -0.9374
  164SOL     OW  811   1.384   0.614   5.067 -0.3780 -0.4156  0.3655
  164SOL    HW1  812   1.390   0.645   4.972 -0.0701 -1.6505 -0.0397
  164SOL    HW2  813   1.295   0.639   5.105 -0.5424 -0.0038 -0.2760
  165SOL     OW  814   0.456   1.475   1.961 -0.0334  0.5440  0.2063
  165SOL    HW1  815   0.367   1.519   1.947  0.0737  0.7598  0.1973
  165SOL    HW2  816   0.486   1.433   1.876 -1.0253 -1.2244  0.6795
  166SOL     OW  817   0.713   1.521   1.268 -0.1740  0.5037  0.4725
  166SOL    HW1  818   0.678   1.499   1.359 -0.0035  1.6417  0.8393
  166SOL    HW2  819   0.658   1.475   1.198  0.5729 -1.5416  1.1616
  167SOL     OW  820   0.686   1.466   2.119 -0.2678 -0.3434 -0.2713
  167SOL    HW1  821   0.603   1.487   2.067 -1.1081 -0.1833  1.0794
  167SOL    HW2  822   0.685   1.370   2.146 -0.6514 -0.0458  0.8128
  168SOL     OW  823   0.450   4.606   0.715 -0.1077 -0.7889 -0.0501
  168SOL    HW1  824   0.409   4.696   0.732  0.9299 -0.3030 -0.0661
  168SOL    HW2  825   0.465   4.594   0.617 -0.5353 -1.1172 -0.0788
  169SOL     OW  826   5.365   1.444   1.892 -0.6882 -0.6727 -0.1908
  169SOL    HW1  827   5.334   1.446   1.797 -1.0026 -0.8398 -0.0942
  169SOL    HW2  828   5.423   1.363   1.907  1.3718  0.6110 -0.8449
  170SOL     OW  829   1.013   0.611   1.295 -0.1341 -0.3239 -0.2659
  170SOL    HW1  830   1.019   0.711   1.283 -0.5537  0.0065  1.8790
  170SOL    HW2  831   1.103   0.576   1.322 -0.2181 -0.3626 -0.0333
  171SOL     OW  832   0.995   0.933   1.524 -0.4533 -0.7222 -0.0870
  171SOL    HW1  833   0.898   0.958   1.528 -0.0985  0.6870  0.3465
  171SOL    HW2  834   1.025   0.932   1.428 -0.6521 -0.1032 -0.1643
  172SOL     OW  835   1.887   0.270   1.381  0.0387  0.0877 -0.1469
  172SOL    HW1  836   1.976   0.289   1.342 -0.4113 -0.9792 -1.7786
  172SOL    HW2  837   1.898   0.235   1.474  1.3687 -0.7814 -0.6091
  173SOL     OW  838   0.771   1.118   0.072 -0.1091  0.5002  0.7844
  173SOL    HW1  839   0.840   1.181   0.108 -2.2453  1.0697  4.4696
  173SOL    HW2  840   0.685   1.167   0.061 -0.7924 -0.9141 -0.3893
  174SOL     OW  841   0.235   1.659   1.899 -0.2852 -0.7580 -0.5644
  174SOL    HW1  842   0.256   1.740   1.844  0.6040 -0.6634 -0.1006
  174SOL    HW2  843   0.183   1.686   1.980  3.2605  0.0210  1.6817
  175SOL     OW  844   0.656   1.201   2.156 -0.3755  0.1379 -0.0711
  175SOL    HW1  845   0.683   1.169   2.247 -1.6660 -3.0953 -0.7032
  175SOL    HW2  846   0.731   1.184   2.091  0.5006  2.3399  0.2662
  176SOL     OW  847   1.662   0.134   0.657  0.8791 -0.0586  0.1649
  176SOL    HW1  848   1.674   0.233   0.648 -0.4428  0.0698 -0.3563
  176SOL    HW2  849   1.571   0.114   0.692  0.5258 -1.1277 -1.2815
  177SOL     OW  850   3.534   0.214   0.335  0.0007 -0.0001  0.4059
  177SOL    HW1  851   3.466   0.150   0.300  1.5844 -1.1498 -0.7255
  177SOL    HW2  852   3.625   0.172   0.329  0.7341  1.0927  2.8001
  178SOL     OW  853   1.864   1.492   5.200 -0.0238  0.3552 -0.1859
  178SOL    HW1  854   1.891   1.551   5.276  1.2949 -0.0146 -0.3439
  178SOL    HW2  855   1.787   1.534   5.151 -0.0480  1.2209  0.5722
  179SOL     OW  856   0.204   0.872   1.164 -0.5523  0.0109 -0.3598
  179SOL    HW1  857   0.260   0.789   1.161  0.3902  0.6371 -2.8966
  179SOL    HW2  858   0.123   0.855   1.220 -0.1127 -2.4267 -0.3243
  180SOL     OW  859   0.853   5.585   1.035 -0.0061  0.3299  0.1305
  180SOL    HW1  860   0.762   5.544   1.023  0.1913 -0.2922  0.7017
  180SOL    HW2  861   0.919   5.534   0.981  0.4501 -0.8989  1.7799
  181SOL     OW  862   0.567   1.925   1.239 -0.0697  0.7079  0.2390
  181SOL    HW1  863   0.526   1.885   1.321  0.2610  0.9231  0.5132
  181SOL    HW2  864   0.636   1.992   1.266 -1.0838  1.9887 -0.1871
  182SOL     OW  865   0.384   0.886   4.624  0.9986 -0.4183 -0.4471
  182SOL    HW1  866   0.468   0.876   4.678  0.7162 -0.8186 -0.0721
  182SOL    HW2  867   0.406   0.926   4.535  1.4058  0.7849  0.1581
  183SOL     OW  868   1.549   1.280   1.818  0.0766 -0.3143 -0.2098
  183SOL    HW1  869   1.602   1.233   1.889 -0.0816 -0.7018 -0.3457
  183SOL    HW2  870   1.521   1.214   1.749 -1.8329 -0.4099  0.6059
  184SOL     OW  871   1.806   0.505   1.755  0.1879  0.4824  0.3240
  184SOL    HW1  872   1.751   0.583   1.783 -0.1016  0.8707 -1.2438
  184SOL    HW2  873   1.815   0.505   1.656 -1.0854 -2.3207  0.1256
  185SOL     OW  874   0.618   0.632   0.848  0.3406  0.0021  0.1291
  185SOL    HW1  875   0.696   0.602   0.902  0.3628  0.6832  0.4824
  185SOL    HW2  876   0.592   0.560   0.784  2.2432  0.3108 -1.0833
  186SOL     OW  877   1.690   1.006   0.886 -0.3391 -0.1119 -0.6224
  186SOL    HW1  878   1.730   0.934   0.830 -1.9033 -1.2966 -0.3055
  186SOL    HW2  879   1.601   0.975   0.920  0.3377  0.7611  2.1208
  187SOL     OW  880   1.225   0.819   2.083  0.3138  0.0866  0.3887
  187SOL    HW1  881   1.201   0.793   1.990 -1.3827 -1.6717  1.2565
  187SOL    HW2  882   1.317   0.859   2.084 -0.2821  1.7538 -2.2526
  188SOL     OW  883   1.520   0.976   0.278  0.2265  0.2333 -0.2350
  188SOL    HW1  884   1.528   1.047   0.209  1.8235  0.7291  0.4177
  188SOL    HW2  885   1.438   0.992   0.333  0.1995  1.1706 -0.5287
  189SOL     OW  886   1.128   2.409   4.555  0.0927 -0.4828 -0.3673
  189SOL    HW1  887   1.122   2.461   4.470 -0.5862 -1.1896 -0.7635
  189SOL    HW2  888   1.214   2.431   4.602 -0.0985  0.8442 -0.6064
  190SOL     OW  889   0.587   0.933   0.840  0.2262  0.1662 -0.4925
  190SOL    HW1  890   0.678   0.973   0.828  0.7333 -0.3637  1.2966
  190SOL    HW2  891   0.589   0.838   0.810 -0.0005  0.4222 -1.3338
  191SOL     OW  892   0.782   0.267   1.072 -0.0667  0.0980 -0.0848
  191SOL    HW1  893   0.692   0.268   1.030 -0.4747  1.0545  0.7617
  191SOL    HW2  894   0.814   0.173   1.081 -0.7008 -0.2083 -0.9673
  192SOL     OW  895   0.147   0.267   1.397 -0.0044  0.1604  0.6123
  192SOL    HW1  896   0.108   0.342   1.450  2.8496  1.0434  1.6429
  192SOL    HW2  897   0.237   0.294   1.362  1.3216 -2.8832  1.3581
  193SOL     OW  898   0.961   0.188   1.645  0.1278 -0.0727 -0.2147
  193SOL    HW1  899   0.997   0.127   1.574 -0.4671  1.4686 -1.9184
  193SOL    HW2  900   0.861   0.184   1.645  0.0972  0.5926 -0.0902
  194SOL     OW  901   0.702   0.722   0.604  0.5296 -0.2354  0.0654
  194SOL    HW1  902   0.667   0.683   0.689  0.2145 -0.3644 -0.1244
  194SOL    HW2  903   0.801   0.709   0.601  0.7464  0.9561  1.0350
  195SOL     OW  904   1.656   0.789   2.155  0.4623  0.4101  0.1598
  195SOL    HW1  905   1.738   0.794   2.212  1.6564 -0.5043 -1.3755
  195SOL    HW2  906   1.616   0.698   2.162  1.3654 -0.1424 -1.3690
  196SOL     OW  907   0.683   0.633   5.382  0.0338 -0.4065 -0.7564
  196SOL    HW1  908   0.780   0.611   5.372  0.7583  1.2938  1.6192
  196SOL    HW2  909   0.642   0.575   5.453 -0.6868 -1.0006 -1.6279
  197SOL     OW  910   5.544   1.348   2.223 -0.6837  0.0456 -0.1903
  197SOL    HW1  911   5.552   1.257   2.182  1.6939  0.7460 -1.5212
  197SOL    HW2  912   5.580   1.345   2.316 -0.4533 -0.3607 -0.2852
  198SOL     OW  913   1.293   0.210   1.952 -0.2503  0.7844 -0.0859
  198SOL    HW1  914   1.305   0.297   1.905 -0.4305  0.8642  0.0184
  198SOL    HW2  915   1.252   0.143   1.890  1.3662  0.2984 -0.6790
  199SOL     OW  916  -0.007   0.816   0.608  0.2416 -0.2281 -0.4908
  199SOL    HW1  917  -0.063   0.770   0.677  1.6945 -1.2579  0.0320
  199SOL    HW2  918   0.072   0.858   0.651  0.4027  0.3846 -1.3484
  200SOL     OW  919   1.036   0.444   1.694 -0.0383  0.4523  0.5816
  200SOL    HW1  920   1.018   0.349   1.668  1.0204 -0.8018  4.0015
  200SOL    HW2  921   1.124   0.472   1.657  0.3122 -0.3850  0.7693
  201SOL     OW  922   1.049   0.668   0.573 -0.3299  0.0802 -0.5949
  201SOL    HW1  923   1.060   0.570   0.554 -0.4333 -0.3676  1.4077
  201SOL    HW2  924   1.084   0.721   0.496  2.4233 -1.4882 -0.5778
  202SOL     OW  925   1.159   0.347   5.362  0.1301 -0.1155 -0.0446
  202SOL    HW1  926   1.207   0.433   5.376 -1.9478  1.1654 -0.3926
  202SOL    HW2  927   1.221   0.271   5.380  2.0013  1.4294  0.3411
  203SOL     OW  928   0.568   1.794   2.281  0.2433 -0.1308  0.1788
  203SOL    HW1  929   0.559   1.757   2.189  0.6112  0.8794 -0.2708
  203SOL    HW2  930   0.613   1.883   2.278  1.6247 -0.7387  1.4662
  204SOL     OW  931   3.265   2.090   1.434 -0.3319 -0.5751  0.1393
  204SOL    HW1  932   3.209   2.061   1.511 -0.6641 -0.7870 -0.1782
  204SOL    HW2  933   3.208   2.096   1.352  0.0904 -0.6987 -0.1664
  205SOL     OW  934   0.707   4.484   1.351 -0.9894 -0.4761 -0.5076
  205SOL    HW1  935   0.730   4.529   1.437 -2.1850  1.0821 -0.9524
  205SOL    HW2  936   0.719   4.385   1.361  4.4404 -0.0784 -0.3087
  206SOL     OW  937   0.761   2.001   0.916 -0.8493  0.5284 -0.5238
  206SOL    HW1  938   0.848   1.956   0.934 -1.2639 -0.4540 -0.9140
  206SOL    HW2  939   0.776   2.082   0.859 -0.2730 -0.0564 -1.2219
  207SOL     OW  940   4.492   1.721   1.998  0.6603  0.7003  0.2582
  207SOL    HW1  941   4.492   1.692   1.903  3.3211  0.4084  0.2595
  207SOL    HW2  942   4.410   1.775   2.017 -0.4239 -0.0941 -1.8944
  208SOL     OW  943   1.540   1.072   1.342 -0.2587 -0.6206 -0.0624
  208SOL    HW1  944   1.566   1.137   1.414  1.7122 -1.3741 -0.0188
  208SOL    HW2  945   1.622   1.046   1.291 -1.5413 -0.3734 -2.3919
  209SOL     OW  946   1.717   4.874   0.508 -0.2186  0.2460 -0.4902
  209SOL    HW1  947   1.720   4.776   0.489  1.4939 -0.2455  1.8995
  209SOL    HW2  948   1.748   4.891   0.601  0.7941  3.1823 -1.2573
  210SOL     OW  949   0.293   5.533   1.737  0.0231 -0.0671  0.1861
  210SOL    HW1  950   0.267   5.454   1.794 -1.6525 -0.6695 -1.3295
  210SOL    HW2  951   0.211   5.584   1.712  1.0888  2.3316  1.2624
  211SOL     OW  952   1.613   1.086   2.402 -0.4157  0.6620 -0.5411
  211SOL    HW1  953   1.529   1.091   2.455 -0.3933 -1.8828 -0.1386
  211SOL    HW2  954   1.614   1.002   2.348  2.0083  0.4559 -0.2995
  212SOL     OW  955   2.291   1.043   0.432 -0.0117 -0.2713 -0.0456
  212SOL    HW1  956   2.387   1.021   0.448 -0.1680 -1.8063 -1.0260
  212SOL    HW2  957   2.264   1.010   0.342 -1.8560 -1.2146  0.8121
  213SOL     OW  958   5.139   0.668   0.713 -0.9891 -0.5566 -0.9824
  213SOL    HW1  959   5.086   0.688   0.630  0.1925 -1.8108 -2.0829
  213SOL    HW2  960   5.112   0.731   0.785 -1.3480  1.2465 -2.6027
  214SOL     OW  961   0.982   1.276   0.156  0.2264 -0.4246  0.7354
  214SOL    HW1  962   1.055   1.227   0.204  0.4229 -0.2791  0.5809
  214SOL    HW2  963   0.967   1.364   0.200 -0.1860 -0.6512  1.0671
  215SOL     OW  964   1.662   2.106   1.510 -0.1359 -0.2345  0.4824
  215SOL    HW1  965   1.681   2.173   1.582 -1.0012  1.5676 -0.8693
  215SOL    HW2  966   1.599   2.037   1.544 -0.2083  0.3511  1.5770
  216SOL     OW  967   1.546   0.916   5.546  0.2033  0.2281  0.2045
  216SOL    HW1  968   1.558   1.002   5.595  1.6991  0.6115 -0.7649
  216SOL    HW2  969   1.454   0.910   5.508  0.3965  1.8504 -0.5656
  217SOL     OW  970   0.930   1.175   1.271 -0.5823  0.5753 -0.1379
  217SOL    HW1  971   0.875   1.138   1.346  0.8900 -0.8924  0.2801
  217SOL    HW2  972   0.894   1.144   1.184 -0.9161  0.3155  0.0905
  218SOL     OW  973   0.993   1.314   1.724 -0.2138  0.2416 -0.4918
  218SOL    HW1  974   1.055   1.347   1.796  0.8985  0.1627 -1.3881
  218SOL    HW2  975   1.021   1.222   1.696 -0.9841  0.0500 -0.6313
  219SOL     OW  976   5.535   5.231   5.168  0.0328  0.3494  0.2032
  219SOL    HW1  977   5.444   5.190   5.155  0.5627 -0.0952 -3.1916
  219SOL    HW2  978   5.567   5.213   5.261 -3.2285  0.3751  1.4651
  220SOL     OW  979   5.125   1.697   1.743  0.2519 -0.8792  0.3427
  220SOL    HW1  980   5.129   1.796   1.731 -0.5308 -1.0327 -1.4466
  220SOL    HW2  981   5.158   1.673   1.835 -1.5398  1.1939  1.6034
  221SOL     OW  982   2.434   5.190   1.035 -0.8438 -0.0503 -0.0835
  221SOL    HW1  983   2.359   5.159   0.976 -2.6540 -0.1324  2.1191
  221SOL    HW2  984   2.429   5.289   1.046 -1.8280 -0.2339  1.4952
  222SOL     OW  985   0.202   4.501   0.518 -0.0420 -0.1156  0.1806
  222SOL    HW1  986   0.196   4.599   0.535  1.4382 -0.0442  0.3964
  222SOL    HW2  987   0.272   4.483   0.449 -0.1242 -1.0353  0.3212
  223SOL     OW  988   2.002   1.823   0.082  0.5272  0.0330  0.5612
  223SOL    HW1  989   2.028   1.919   0.072  0.3456  0.0476  0.2260
  223SOL    HW2  990   2.063   1.765   0.027 -0.7703  0.1576 -1.0866
  224SOL     OW  991   1.493   0.564   0.586  0.2499 -0.1201 -0.2671
  224SOL    HW1  992   1.592   0.560   0.600  0.7654  2.7412 -2.1413
  224SOL    HW2  993   1.454   0.631   0.649 -0.2304 -0.1295 -0.5489
  225SOL     OW  994   0.814   1.873   5.354 -0.4777 -0.2699  0.3534
  225SOL    HW1  995   0.774   1.866   5.446 -0.0283  0.9071  0.6715
  225SOL    HW2  996   0.871   1.955   5.350  0.8931 -1.2245 -0.4591
  226SOL     OW  997   1.330   1.236   2.125  0.7203  0.2960 -0.5624
  226SOL    HW1  998   1.375   1.147   2.135 -1.8042 -0.9678  0.3017
  226SOL    HW2  999   1.363   1.298   2.196 -0.4869 -1.3324  1.5053
  227SOL     OW 1000   5.129   1.000   1.694 -0.7032 -0.1358 -0.1890
  227SOL    HW1 1001   5.227   0.992   1.681 -0.5265 -1.0275  1.3653
  227SOL    HW2 1002   5.088   0.908   1.696 -1.6759  0.2384 -1.4074
  228SOL     OW 1003   0.728   1.329   0.356  0.1224  0.0077  0.5464
  228SOL    HW1 1004   0.787   1.400   0.316  0.9835  0.3685  2.3244
  228SOL    HW2 1005   0.633   1.347   0.332  0.6764 -0.7798 -2.7122
  229SOL     OW 1006   0.317   2.203   1.323 -0.0572  0.5575  0.3257
  229SOL    HW1 1007   0.392   2.198   1.258 -1.7612  1.2330 -1.7925
  229SOL    HW2 1008   0.307   2.296   1.357 -1.2974  1.0129 -1.1730
  230SOL     OW 1009   2.028   5.379   1.507 -0.6315 -0.0370  0.1829
  230SOL    HW1 1010   1.974   5.379   1.422 -0.9414 -1.8570  0.3511
  230SOL    HW2 1011   2.118   5.341   1.488 -0.1235  1.0423  0.3592
  231SOL     OW 1012   1.781   0.517   1.475 -0.2251  0.6546 -0.5575
  231SOL    HW1 1013   1.765   0.586   1.404  1.5784  0.8114 -0.8667
  231SOL    HW2 1014   1.803   0.429   1.432  3.1418  1.2566 -0.3786
  232SOL     OW 1015   1.952   4.714   0.192  0.3613  0.0760 -0.0280
  232SOL    HW1 1016   1.913   4.804   0.213  0.2859  0.6004 -2.2072
  232SOL    HW2 1017   1.878   4.649   0.176  0.4174 -0.2339  0.9197
  233SOL     OW 1018   0.408   0.772   4.956 -0.2167 -0.3864 -0.3387
  233SOL    HW1 1019   0.366   0.788   4.867  2.0578  2.1112 -1.0847
  233SOL    HW2 1020   0.363   0.829   5.025 -1.7414 -2.0586  0.1463
  234SOL     OW 1021   0.891   2.151   0.268  0.0422  0.0551  0.4074
  234SOL    HW1 1022   0.924   2.234   0.313 -1.1722 -0.6138  2.6665
  234SOL    HW2 1023   0.939   2.072   0.305 -0.6647 -0.4906  0.1779
  235SOL     OW 1024   5.546   0.347   1.211 -0.5856  0.0172  0.1344
  235SOL    HW1 1025   5.604   0.333   1.291  1.1570  1.8204 -0.7378
  235SOL    HW2 1026   5.594   0.315   1.129 -1.4911  0.0789 -0.4336
  236SOL     OW 1027   4.065   1.499   4.003  0.5348 -0.1185 -0.0490
  236SOL    HW1 1028   4.083   1.400   4.004 -0.6964 -0.3902 -1.4600
  236SOL    HW2 1029   4.000   1.520   4.076  0.0346 -0.5355 -0.3603
  237SOL     OW 1030   0.107  -0.006   1.410  0.6019  0.1482 -0.2800
  237SOL    HW1 1031   0.011  -0.012   1.382  0.1664  0.3567  1.0793
  237SOL    HW2 1032   0.138   0.089   1.403  0.4654  0.2161  0.0116
  238SOL     OW 1033   0.321   0.777   3.934 -0.1820  0.9415  0.0845
  238SOL    HW1 1034   0.332   0.799   3.837 -1.1536  0.5347 -0.1215
  238SOL    HW2 1035   0.412   0.771   3.977  0.2460  1.3256 -0.7457
  239SOL     OW 1036   1.791   1.000   1.719 -0.0181  0.0071 -0.0886
  239SOL    HW1 1037   1.860   1.071   1.726 -1.9388  1.9995 -0.1998
  239SOL    HW2 1038   1.788   0.965   1.625  1.8925 -1.3127  0.2929
  240SOL     OW 1039   5.455   0.995   3.040  0.3566 -0.4367 -0.4870
  240SOL    HW1 1040   5.403   1.050   2.975 -1.2086 -0.8390  0.3860
  240SOL    HW2 1041   5.393   0.933   3.089  1.5795 -0.5409  0.9981
  241SOL     OW 1042   1.552   0.137   1.947  0.1190  0.1810  0.0617
  241SOL    HW1 1043   1.455   0.153   1.966  0.6500  1.2635  2.1316
  241SOL    HW2 1044   1.571   0.039   1.952 -0.9355 -0.0929 -0.8461
  242SOL     OW 1045   4.434   1.725   2.847  0.1250  0.2776 -0.1426
  242SOL    HW1 1046   4.364   1.772   2.793  0.5426 -0.1472 -1.0784
  242SOL    HW2 1047   4.489   1.793   2.895  0.3842  0.7427 -1.0611
  243SOL     OW 1048   0.631   0.894   4.757 -0.1476 -0.0628 -0.0077
  243SOL    HW1 1049   0.649   0.987   4.788  1.2101 -0.1586 -0.4481
  243SOL    HW2 1050   0.692   0.872   4.680 -0.7586 -1.1621 -0.1986
  244SOL     OW 1051   0.141   1.262   2.885  0.1752 -0.5564  0.2629
  244SOL    HW1 1052   0.183   1.171   2.879  0.7256 -0.2386 -1.5407
  244SOL    HW2 1053   0.082   1.276   2.806  1.7592  1.4128 -0.6664
  245SOL     OW 1054   0.333   1.661   4.326 -0.7238  0.0877 -0.5807
  245SOL    HW1 1055   0.307   1.756   4.305 -1.3308 -0.2128 -1.2598
  245SOL    HW2 1056   0.431   1.650   4.314 -0.5613  0.7581  0.0258
  246SOL     OW 1057   1.196   1.916   2.614 -0.7114 -0.9384  0.2335
  246SOL    HW1 1058   1.179   1.967   2.529 -0.5590 -3.0152 -1.1227
  246SOL    HW2 1059   1.242   1.976   2.680  0.7382  0.3094 -1.7716
  247SOL     OW 1060   1.161   1.371   3.436 -0.6616 -0.5862  0.0339
  247SOL    HW1 1061   1.195   1.317   3.514 -1.4550  0.4663  1.1391
  247SOL    HW2 1062   1.062   1.381   3.443 -0.4953  1.4187  0.1523
  248SOL     OW 1063   0.187   0.089   5.149 -0.6744 -0.3235  0.1038
  248SOL    HW1 1064   0.237   0.055   5.069  0.4426  1.0753  0.1689
  248SOL    HW2 1065   0.108   0.030   5.166 -0.8051 -0.7945 -1.8736
  249SOL     OW 1066   1.945   1.356   1.930  0.1641 -0.0360 -0.8526
  249SOL    HW1 1067   1.933   1.404   1.843  1.3709  0.5280 -0.7268
  249SOL    HW2 1068   2.030   1.304   1.928 -0.0426 -0.4113 -0.1840
  250SOL     OW 1069   0.018   3.120   2.060  0.5507 -0.1340 -0.1537
  250SOL    HW1 1070  -0.019   3.181   1.990  0.6394  0.9996  0.7547
  250SOL    HW2 1071   0.008   3.163   2.150  1.0158 -1.2833  0.4633
  251SOL     OW 1072   1.025   1.668   3.229 -0.2622  0.2450  0.4845
  251SOL    HW1 1073   1.084   1.664   3.310  1.0020 -0.5812 -0.4214
  251SOL    HW2 1074   1.078   1.703   3.152 -1.6331  1.6659  0.1540
  252SOL     OW 1075   5.311   1.926   2.123 -0.1043  0.3214  0.2890
  252SOL    HW1 1076   5.379   1.931   2.196  0.1108  0.6064  0.0711
  252SOL    HW2 1077   5.347   1.872   2.047  0.5605  1.8865 -0.5448
  253SOL     OW 1078   4.619   1.373   2.355 -0.1321 -0.5939 -0.0414
  253SOL    HW1 1079   4.710   1.332   2.348 -0.1667 -0.5584 -0.7852
  253SOL    HW2 1080   4.613   1.451   2.292  0.5996  1.8425  2.6853
  254SOL     OW 1081   0.722   1.380   2.615 -0.5206 -0.4548 -0.3115
  254SOL    HW1 1082   0.767   1.424   2.693  1.2332 -1.6945 -0.5676
  254SOL    HW2 1083   0.756   1.422   2.530 -2.2718  0.7516 -0.4680
  255SOL     OW 1084   5.138   0.221   0.904  0.1879  0.3727  0.1124
  255SOL    HW1 1085   5.111   0.309   0.943 -0.3593  0.4000 -0.3217
  255SOL    HW2 1086   5.138   0.152   0.976  0.3097  0.6557  0.3919
  256SOL     OW 1087   1.162   4.290   4.221 -0.0403 -0.1520  0.7993
  256SOL    HW1 1088   1.110   4.231   4.282  0.8060 -0.5370  1.1707
  256SOL    HW2 1089   1.110   4.373   4.203 -0.9772 -0.7241  0.7757
  257SOL     OW 1090   4.939   5.476   1.162  0.1832 -0.0206 -0.3577
  257SOL    HW1 1091   4.898   5.566   1.178 -1.1929 -0.4336 -1.3428
  257SOL    HW2 1092   4.885   5.426   1.094 -0.0528 -2.2278  1.3174
  258SOL     OW 1093   1.592   2.667   2.749 -0.5516  0.6407  0.2543
  258SOL    HW1 1094   1.545   2.749   2.782 -2.2626  0.6603 -1.9661
  258SOL    HW2 1095   1.530   2.588   2.754  0.0936  0.0807 -0.2614
  259SOL     OW 1096   0.039   1.847   1.070 -0.5482  0.2923  0.1752
  259SOL    HW1 1097  -0.056   1.876   1.078 -0.7857  0.9956 -3.4057
  259SOL    HW2 1098   0.098   1.919   1.107 -1.3577  0.4120  1.2876
  260SOL     OW 1099   1.768   1.504   3.256  0.0540  0.6737 -0.3522
  260SOL    HW1 1100   1.738   1.409   3.264 -0.8872  0.9937  0.0232
  260SOL    HW2 1101   1.866   1.506   3.235 -0.1661 -0.3889 -1.5900
  261SOL     OW 1102   3.270   5.448   2.691  0.1930  0.4297 -0.1011
  261SOL    HW1 1103   3.211   5.371   2.664  0.8470 -0.2954  0.4804
  261SOL    HW2 1104   3.242   5.480   2.782 -1.4795  2.3347 -1.1979
  262SOL     OW 1105   4.942   1.322   3.731  0.0623  0.3033 -0.1544
  262SOL    HW1 1106   4.914   1.315   3.827  0.9583  0.8352  0.1569
  262SOL    HW2 1107   4.919   1.412   3.695 -0.4766  0.0283 -0.5186
  263SOL     OW 1108   0.684   0.372   2.031 -0.2318  0.3226 -0.4588
  263SOL    HW1 1109   0.758   0.405   1.973  0.0594 -0.5219 -0.5888
  263SOL    HW2 1110   0.685   0.272   2.031 -2.0011  0.2798 -1.2692
  264SOL     OW 1111   0.439   0.655   3.009 -0.5467  0.0058  0.1895
  264SOL    HW1 1112   0.538   0.656   3.025 -0.6673 -1.4712  1.1510
  264SOL    HW2 1113   0.395   0.722   3.069  0.0781  2.7763 -2.2292
  265SOL     OW 1114   1.029   5.091   2.522 -0.9430 -0.0140  0.2272
  265SOL    HW1 1115   1.013   5.186   2.494 -3.0633  0.2768  2.1190
  265SOL    HW2 1116   0.965   5.031   2.474 -1.0966 -0.1871  0.6475
  266SOL     OW 1117   1.048   1.425   3.037 -0.0807  0.4238  0.3465
  266SOL    HW1 1118   1.047   1.334   3.078  2.3824 -0.5628 -1.5355
  266SOL    HW2 1119   1.066   1.493   3.107  1.2999 -0.9011  1.3318
  267SOL     OW 1120   0.953   0.252   2.577  0.2218  0.3721  0.1211
  267SOL    HW1 1121   1.033   0.201   2.607 -0.6183 -0.4943  0.9896
  267SOL    HW2 1122   0.949   0.252   2.477 -1.0411 -3.5442 -0.0105
  268SOL     OW 1123   1.576   1.966   3.112  0.0288  0.1196  0.0421
  268SOL    HW1 1124   1.612   2.028   3.042  0.9492 -0.3872  0.0503
  268SOL    HW2 1125   1.616   1.875   3.099  0.9197  0.2346  1.7650
  269SOL     OW 1126   0.091   5.529   3.833 -0.0365 -0.7946  0.8115
  269SOL    HW1 1127   0.002   5.493   3.807 -0.3283  0.2615  0.2885
  269SOL    HW2 1128   0.135   5.466   3.897 -0.5755 -1.9745  0.0494
  270SOL     OW 1129   1.453   0.505   2.655 -0.1779  0.4972  0.0227
  270SOL    HW1 1130   1.394   0.467   2.584  0.3342  0.5724 -0.4566
  270SOL    HW2 1131   1.537   0.450   2.660 -0.6144 -0.1070  1.2491
  271SOL     OW 1132   0.506   2.091   2.233 -0.1992 -0.3686  0.3186
  271SOL    HW1 1133   0.606   2.102   2.230 -0.2579 -0.0007 -0.3270
  271SOL    HW2 1134   0.474   2.051   2.147 -0.8882  1.8657 -0.5309
  272SOL     OW 1135   0.737   5.157   3.121 -0.4207  0.6941  0.4743
  272SOL    HW1 1136   0.731   5.072   3.068  0.3931  0.6754  0.3949
  272SOL    HW2 1137   0.815   5.210   3.089 -0.5576  1.1817  0.9455
  273SOL     OW 1138   1.461   0.165   2.275 -0.2262  0.5435  0.2491
  273SOL    HW1 1139   1.394   0.156   2.201 -0.5404 -1.9806  0.7490
  273SOL    HW2 1140   1.542   0.112   2.254  0.0357  0.4913  1.3273
  274SOL     OW 1141   0.434   0.687   1.663 -0.2080 -0.1831  0.4824
  274SOL    HW1 1142   0.517   0.727   1.625 -0.2788 -0.7973 -0.3246
  274SOL    HW2 1143   0.458   0.612   1.725 -0.1694 -0.4075  0.1932
  275SOL     OW 1144   5.311   0.438   2.234  0.0625 -0.0038  0.0117
  275SOL    HW1 1145   5.246   0.452   2.309  1.4939  1.5102  1.0308
  275SOL    HW2 1146   5.338   0.527   2.196  1.3163 -0.6115 -0.5744
  276SOL     OW 1147   0.823   0.855   3.291 -0.3067 -0.0249  0.0691
  276SOL    HW1 1148   0.903   0.908   3.260 -1.3685  0.9928 -1.0413
  276SOL    HW2 1149   0.854   0.776   3.343  1.3679  1.3759  1.3186
  277SOL     OW 1150   0.873   0.576   3.375 -0.7117  0.0627 -0.0480
  277SOL    HW1 1151   0.909   0.491   3.337 -1.6343  0.0298 -0.8929
  277SOL    HW2 1152   0.784   0.559   3.415  0.1359  0.1539  1.9748
  278SOL     OW 1153   4.366   1.468   2.768 -0.1443  0.0249 -0.8403
  278SOL    HW1 1154   4.376   1.566   2.783  0.3526 -0.0362 -0.7380
  278SOL    HW2 1155   4.270   1.445   2.754 -0.1814  0.6454 -1.7041
  279SOL     OW 1156   1.036   5.027   3.253  0.2309 -0.4060  0.7271
  279SOL    HW1 1157   1.078   4.971   3.324 -0.3300 -0.3981  1.0671
  279SOL    HW2 1158   1.057   5.123   3.270  3.2951 -0.6006 -1.2085
  280SOL     OW 1159   4.327   0.679   2.634 -0.0230 -0.0696  0.1260
  280SOL    HW1 1160   4.403   0.613   2.635 -0.7335 -0.9065 -0.3146
  280SOL    HW2 1161   4.358   0.764   2.591  1.0913  0.1377  1.2704
  281SOL     OW 1162   0.477   2.514   2.410  0.3024 -0.0791  0.3870
  281SOL    HW1 1163   0.550   2.452   2.438  0.0246 -0.5938 -0.0269
  281SOL    HW2 1164   0.390   2.481   2.446 -0.4218 -1.9398 -2.6935
  282SOL     OW 1165   0.098   0.112   1.795 -0.0115  0.1299 -0.4479
  282SOL    HW1 1166   0.166   0.179   1.764 -0.4720 -0.0887 -2.0528
  282SOL    HW2 1167   0.010   0.133   1.751 -0.5915 -0.5022  0.3989
  283SOL     OW 1168   1.462   0.470   3.039  0.0936 -0.3118  0.7029
  283SOL    HW1 1169   1.365   0.495   3.048  0.4372  0.8072  1.4971
  283SOL    HW2 1170   1.471   0.371   3.049 -0.9928 -0.4496  0.4477
  284SOL     OW 1171   1.066   1.295   2.209  0.1765 -0.3294 -0.1060
  284SOL    HW1 1172   1.159   1.279   2.175  0.3455  1.6481 -0.7220
  284SOL    HW2 1173   1.060   1.386   2.250 -1.3349 -0.6854  0.5515
  285SOL     OW 1174   0.739   1.015   3.080  0.2456 -0.4518  0.2243
  285SOL    HW1 1175   0.653   1.064   3.095  0.7854 -0.0226  2.2735
  285SOL    HW2 1176   0.739   0.930   3.134  1.3456 -0.1107  0.7950
  286SOL     OW 1177   2.210   1.341   2.267 -0.4114 -0.8615 -0.4734
  286SOL    HW1 1178   2.306   1.351   2.291 -0.7107  1.0588  0.0335
  286SOL    HW2 1179   2.193   1.382   2.177 -0.8048 -0.9705 -0.4524
  287SOL     OW 1180   0.488   1.533   2.595 -0.4607  0.1772 -0.0800
  287SOL    HW1 1181   0.570   1.476   2.592 -1.2375 -0.9752 -0.1288
  287SOL    HW2 1182   0.508   1.622   2.553  0.8280  0.0230  0.1549
  288SOL     OW 1183   1.684   1.719   3.082  0.3006 -0.1668 -0.0582
  288SOL    HW1 1184   1.711   1.652   3.151 -2.0397 -0.4718  0.6527
  288SOL    HW2 1185   1.668   1.673   2.995  1.7795 -0.0099 -0.4349
  289SOL     OW 1186   1.552   1.979   2.285 -0.0035  0.1499  0.6776
  289SOL    HW1 1187   1.630   1.918   2.271  0.3212  0.9573 -1.5954
  289SOL    HW2 1188   1.490   1.971   2.207 -0.9333  1.3271  1.2646
  290SOL     OW 1189   5.242   0.961   2.558 -0.2605  0.0663 -0.1289
  290SOL    HW1 1190   5.307   0.962   2.481 -0.2257  0.9139 -0.1035
  290SOL    HW2 1191   5.148   0.956   2.522 -0.2428  0.4194 -0.2283
  291SOL     OW 1192   1.198   5.022   2.302 -0.4450 -0.4583 -0.0505
  291SOL    HW1 1193   1.146   5.050   2.221 -1.6175 -2.7259 -0.1386
  291SOL    HW2 1194   1.156   5.060   2.384  1.0304  2.2738 -0.4220
  292SOL     OW 1195   1.341   1.643   2.823 -0.1279 -0.4071 -0.2475
  292SOL    HW1 1196   1.287   1.695   2.889  1.4980 -0.4022  1.1489
  292SOL    HW2 1197   1.282   1.614   2.747 -2.3097 -1.1410  1.5901
  293SOL     OW 1198   0.411   0.996   2.246 -0.7660  0.1124 -0.0483
  293SOL    HW1 1199   0.428   0.951   2.159  2.5570 -0.7747  0.9343
  293SOL    HW2 1200   0.419   1.095   2.235 -0.2262 -0.0053 -0.7410
  294SOL     OW 1201   0.338   1.144   3.612  0.5015 -0.2361 -0.2888
  294SOL    HW1 1202   0.362   1.155   3.516  1.6417  0.3844  0.0469
  294SOL    HW2 1203   0.243   1.173   3.627  0.8740  1.4125 -0.9161
  295SOL     OW 1204   1.025   1.533   2.634  0.3830  0.5773  0.1308
  295SOL    HW1 1205   0.978   1.619   2.656  0.9067  0.7982  0.3901
  295SOL    HW2 1206   1.013   1.469   2.709 -1.0209 -0.0197 -0.5582
  296SOL     OW 1207   0.579   2.421   1.832 -0.0520 -0.4585  0.4342
  296SOL    HW1 1208   0.566   2.491   1.901  0.5321  0.0428  0.0528
  296SOL    HW2 1209   0.673   2.426   1.796  0.0984 -1.6188  0.6000
  297SOL     OW 1210   1.355   4.833   2.243 -0.4590  0.0003 -0.2223
  297SOL    HW1 1211   1.283   4.897   2.270 -0.3341  0.1402 -0.2201
  297SOL    HW2 1212   1.329   4.788   2.157 -0.7694 -0.3076  0.0313
  298SOL     OW 1213   4.597   1.597   2.220  0.2785  0.4496 -0.5075
  298SOL    HW1 1214   4.652   1.652   2.283 -0.6676  2.2958 -1.2205
  298SOL    HW2 1215   4.566   1.654   2.144  0.5958 -1.4698 -2.1978
  299SOL     OW 1216   1.189   1.298   2.784  0.1302 -0.0063 -0.2448
  299SOL    HW1 1217   1.201   1.354   2.866  0.5841  1.5359 -1.3093
  299SOL    HW2 1218   1.193   1.201   2.809  0.7320  0.4180  1.4767
  300SOL     OW 1219   4.519   1.347   1.018 -0.1564 -0.0778  0.4723
  300SOL    HW1 1220   4.425   1.346   0.983 -0.6105  1.0942  1.5633
  300SOL    HW2 1221   4.522   1.403   1.101  1.5517  0.0624  0.3411
  301SOL     OW 1222   1.864   0.461   4.625  0.3097 -0.2532  0.4896
  301SOL    HW1 1223   1.945   0.485   4.571 -0.3238  0.8893  0.0024
  301SOL    HW2 1224   1.832   0.370   4.599  0.3588  0.0452 -0.6665
  302SOL     OW 1225   1.485   5.547   0.873 -0.2506 -0.6579 -0.1214
  302SOL    HW1 1226   1.505   5.629   0.927 -1.4529  0.1717 -0.8515
  302SOL    HW2 1227   1.569   5.514   0.830 -0.0605  1.7778 -1.9023
  303SOL     OW 1228   0.533   0.613   4.013  0.9442  0.3682 -0.4803
  303SOL    HW1 1229   0.466   0.615   4.087 -0.5245 -3.1480 -1.5117
  303SOL    HW2 1230   0.623   0.587   4.050  0.7482  0.8161  0.3352
  304SOL     OW 1231   4.089   0.379   2.936 -0.0444 -0.2517 -0.0011
  304SOL    HW1 1232   4.151   0.455   2.919 -0.0429 -0.0142  0.9915
  304SOL    HW2 1233   4.131   0.294   2.905  1.3732 -0.2775  1.8023
  305SOL     OW 1234   0.887   5.505   3.327  0.1717  0.4800 -0.7365
  305SOL    HW1 1235   0.836   5.564   3.265 -0.7677  0.1232 -0.3437
  305SOL    HW2 1236   0.908   5.555   3.411 -0.6567  0.2755 -0.3880
  306SOL     OW 1237   2.188   1.241   1.870  0.1276 -0.0238  0.5239
  306SOL    HW1 1238   2.230   1.171   1.929  0.9991  1.7499  2.1230
  306SOL    HW2 1239   2.223   1.231   1.777  1.1510 -0.9802  0.9866
  307SOL     OW 1240   0.102   0.865   3.006 -0.7550 -0.3931 -0.2104
  307SOL    HW1 1241   0.030   0.935   3.007 -1.7449 -1.3646 -0.8302
  307SOL    HW2 1242   0.068   0.784   2.958  1.8782  0.2839 -3.5250
  308SOL     OW 1243   0.379   1.272   4.108  0.6694 -0.1186 -0.1602
  308SOL    HW1 1244   0.389   1.316   4.019  0.2938  0.7781  0.2364
  308SOL    HW2 1245   0.330   1.185   4.096 -1.3303  1.0112 -0.5679
  309SOL     OW 1246   0.640   0.807   1.546  0.2468  0.1549  0.3799
  309SOL    HW1 1247   0.619   0.762   1.459  0.7768  0.3845  0.1278
  309SOL    HW2 1248   0.728   0.775   1.580  0.3014  0.4753  0.5467
  310SOL     OW 1249   0.452   0.523   2.030  0.5044 -0.1056 -0.4744
  310SOL    HW1 1250   0.534   0.467   2.028 -0.4494 -1.6131  0.7182
  310SOL    HW2 1251   0.423   0.538   2.124 -1.4179 -0.8824 -0.8953
  311SOL     OW 1252   1.608   4.589   3.712 -0.4519 -0.7625 -0.9771
  311SOL    HW1 1253   1.617   4.532   3.630  1.2302 -1.2182 -0.5152
  311SOL    HW2 1254   1.699   4.604   3.752 -1.1164  0.4330  0.1462
  312SOL     OW 1255   0.466   1.833   3.008  0.3381 -0.0516 -0.4036
  312SOL    HW1 1256   0.385   1.829   2.949  0.0986  0.5645 -0.1307
  312SOL    HW2 1257   0.436   1.830   3.104  0.6538 -0.0239 -0.3052
  313SOL     OW 1258   0.270   2.208   2.297 -0.0952 -0.0502  0.4783
  313SOL    HW1 1259   0.246   2.243   2.387  0.8726  1.1741  0.2852
  313SOL    HW2 1260   0.364   2.173   2.299 -0.4403 -1.0110  0.2095
  314SOL     OW 1261   0.664   0.166   3.418  0.2239 -0.2953  0.2428
  314SOL    HW1 1262   0.671   0.135   3.323  0.6711  1.2005 -0.2397
  314SOL    HW2 1263   0.756   0.186   3.452  0.0153 -0.3150  0.8147
  315SOL     OW 1264   1.354   2.999   1.788  0.2144  0.1712  0.2243
  315SOL    HW1 1265   1.436   2.950   1.759 -0.0855  0.5403 -1.3465
  315SOL    HW2 1266   1.340   3.079   1.730 -1.5972 -0.2375  0.0150
  316SOL     OW 1267   1.592   0.710   2.785 -0.3395 -0.4760  0.4131
  316SOL    HW1 1268   1.546   0.648   2.722  0.0073 -1.1200  0.7914
  316SOL    HW2 1269   1.679   0.740   2.745  0.5295 -1.9419  1.1267
  317SOL     OW 1270   5.476   0.056   3.018 -0.2542 -0.5109 -0.3133
  317SOL    HW1 1271   5.543   0.050   2.944 -1.0492 -1.2267 -0.9909
  317SOL    HW2 1272   5.390   0.092   2.982 -0.8584 -1.5026  0.1019
  318SOL     OW 1273   5.338   0.559   3.094  0.5732  0.0812 -0.2378
  318SOL    HW1 1274   5.355   0.577   2.998  0.2017  1.1750 -0.1232
  318SOL    HW2 1275   5.419   0.519   3.136  1.3992  1.3034 -0.6070
  319SOL     OW 1276   5.541   0.530   2.404 -0.0700  0.6079 -0.2416
  319SOL    HW1 1277   5.620   0.583   2.372  0.2195 -0.5485 -1.4874
  319SOL    HW2 1278   5.469   0.534   2.336 -0.2695 -0.1262 -0.0762
  320SOL     OW 1279   1.292   4.513   2.872  0.6789  0.1181  0.4356
  320SOL    HW1 1280   1.361   4.586   2.873 -0.7555  1.6035 -1.2223
  320SOL    HW2 1281   1.276   4.481   2.965  2.5687  0.7094  1.0103
  321SOL     OW 1282   0.496   0.806   2.039 -0.0493 -0.0941 -0.1357
  321SOL    HW1 1283   0.478   0.711   2.014  0.0772  0.0185 -0.6663
  321SOL    HW2 1284   0.497   0.863   1.957 -0.5911  0.4490  0.2250
  322SOL     OW 1285   1.175   0.741   3.131  0.1441 -0.0069  0.1241
  322SOL    HW1 1286   1.237   0.769   3.057 -2.0847 -0.1661 -1.9491
  322SOL    HW2 1287   1.149   0.821   3.185  0.7311  0.3550 -0.1167
  323SOL     OW 1288   2.044   0.182   2.901 -0.3444  0.3208 -0.0171
  323SOL    HW1 1289   1.959   0.153   2.945 -1.2970 -1.1535 -2.5828
  323SOL    HW2 1290   2.115   0.113   2.916 -0.3022  0.3935  0.1283
  324SOL     OW 1291   0.497   0.411   1.729  0.0709 -0.7204  0.3385
  324SOL    HW1 1292   0.533   0.331   1.778  1.4475 -1.6240 -1.9971
  324SOL    HW2 1293   0.524   0.406   1.633 -1.2051  1.7677 -0.2221
  325SOL     OW 1294   1.831   1.809   2.478 -0.0428 -0.3067 -0.2407
  325SOL    HW1 1295   1.887   1.728   2.492 -0.1115 -0.6048 -1.5948
  325SOL    HW2 1296   1.787   1.834   2.565  1.6199 -0.4622  0.6818
  326SOL     OW 1297   0.855   1.433   2.853  0.1190  0.6264 -0.1069
  326SOL    HW1 1298   0.906   1.355   2.889  0.9500  1.0457 -0.3435
  326SOL    HW2 1299   0.861   1.510   2.916  1.2744  1.2440 -0.9311
  327SOL     OW 1300   0.410   4.711   2.085  0.1567 -0.0825  0.5626
  327SOL    HW1 1301   0.406   4.612   2.092 -2.5384 -0.0642  0.2283
  327SOL    HW2 1302   0.442   4.750   2.171  0.4314 -1.2049  0.9766
  328SOL     OW 1303   1.622   2.159   3.335  0.5772 -0.1864 -0.1974
  328SOL    HW1 1304   1.592   2.096   3.263  0.8005 -0.0992 -0.3669
  328SOL    HW2 1305   1.547   2.219   3.359  0.2025 -0.8521  0.3241
  329SOL     OW 1306   2.018   1.619   2.491  0.0692 -0.2664 -0.6150
  329SOL    HW1 1307   2.118   1.624   2.491  0.2607 -1.8138  2.4551
  329SOL    HW2 1308   1.989   1.533   2.449  0.0555 -0.0630 -1.0230
  330SOL     OW 1309   0.851   1.566   3.960  0.2557 -0.4257 -0.2035
  330SOL    HW1 1310   0.930   1.587   4.018 -0.2049  0.1988  0.2076
  330SOL    HW2 1311   0.775   1.626   3.984 -0.7330 -1.8005  0.2026
  331SOL     OW 1312   1.508   1.077   2.800  0.0152  0.0143 -0.1799
  331SOL    HW1 1313   1.503   1.175   2.822  1.5596  0.4583 -1.5591
  331SOL    HW2 1314   1.591   1.039   2.841 -0.8792 -0.8935  0.8482
  332SOL     OW 1315   0.867   2.336   1.987  0.0508  0.2025  0.1684
  332SOL    HW1 1316   0.905   2.410   2.042  1.7442 -0.6865  0.2506
  332SOL    HW2 1317   0.816   2.375   1.910  2.7393  1.5431 -1.0810
  333SOL     OW 1318   1.444   4.731   3.342 -0.1836  0.3260 -0.2771
  333SOL    HW1 1319   1.357   4.711   3.296 -0.5266  2.0460 -0.4664
  333SOL    HW2 1320   1.470   4.826   3.322  2.8432 -0.7422 -1.9620
  334SOL     OW 1321   0.961   0.344   3.306 -0.7818 -0.1655  0.3055
  334SOL    HW1 1322   0.986   0.300   3.393 -1.7031 -0.8634  0.2343
  334SOL    HW2 1323   0.958   0.275   3.234  0.2621  0.4545 -0.3688
  335SOL     OW 1324   0.164   0.670   2.655  0.4086 -0.2486  0.7113
  335SOL    HW1 1325   0.066   0.673   2.677 -0.0340  2.4787 -1.1106
  335SOL    HW2 1326   0.177   0.620   2.570 -0.0808  2.7789 -1.3090
  336SOL     OW 1327   1.278   0.231   3.831  0.7600 -0.0260 -0.1112
  336SOL    HW1 1328   1.288   0.303   3.763  1.6192  0.6540  0.7191
  336SOL    HW2 1329   1.261   0.144   3.785 -0.0634  0.6540 -1.1336
  337SOL     OW 1330   0.679   5.033   2.638  0.1046  0.5874 -0.2373
  337SOL    HW1 1331   0.753   5.057   2.701  1.5536 -0.7728 -1.3217
  337SOL    HW2 1332   0.717   4.983   2.560 -1.5334  2.6435 -2.4989
  338SOL     OW 1333   0.378   1.988   1.994 -0.2334 -0.0134 -0.2442
  338SOL    HW1 1334   0.402   2.077   1.956 -0.7437  1.1533  1.9927
  338SOL    HW2 1335   0.279   1.974   1.985 -0.2123 -0.1655 -0.2410
  339SOL     OW 1336   0.062   2.270   1.927  0.2229  0.1142 -0.9245
  339SOL    HW1 1337   0.072   2.170   1.922 -0.2914  0.1050 -1.9881
  339SOL    HW2 1338   0.140   2.308   1.977 -1.4781 -1.1249  3.1064
  340SOL     OW 1339   0.948   4.977   2.963  0.7223  0.1758  0.3763
  340SOL    HW1 1340   0.995   5.026   3.037  0.8704 -1.2128  1.2266
  340SOL    HW2 1341   0.954   4.879   2.979  0.9989 -0.1697 -1.6442
  341SOL     OW 1342   0.406   1.014   1.615  0.2849 -0.0671  0.4759
  341SOL    HW1 1343   0.484   0.952   1.607  0.2433 -0.1348  0.5816
  341SOL    HW2 1344   0.397   1.068   1.532  0.4675 -0.0312  0.4812
  342SOL     OW 1345   1.054   5.336   2.423 -0.2558 -0.0942  0.4181
  342SOL    HW1 1346   1.025   5.367   2.332 -2.3211  2.6905  1.8612
  342SOL    HW2 1347   1.145   5.371   2.443 -0.5549  0.9102  0.0919
  343SOL     OW 1348   0.981   1.133   3.089  0.1148  0.6765 -0.1018
  343SOL    HW1 1349   0.887   1.107   3.065  0.3762 -0.0105 -0.4027
  343SOL    HW2 1350   1.042   1.107   3.014  1.1400 -2.5214  1.6614
  344SOL     OW 1351   0.543   1.761   1.990  0.6019  0.5947 -0.0309
  344SOL    HW1 1352   0.481   1.687   1.965 -0.1487 -0.2210  3.6636
  344SOL    HW2 1353   0.497   1.849   1.975 -1.5640  0.0227  2.4883
  345SOL     OW 1354   0.733   0.421   3.862  0.0463  0.6152 -0.2195
  345SOL    HW1 1355   0.671   0.399   3.786 -0.4673  0.3926  0.2557
  345SOL    HW2 1356   0.784   0.505   3.840 -1.3604  1.5433 -0.0987
  346SOL     OW 1357   0.725   1.124   3.679 -0.1225  0.1671  0.2997
  346SOL    HW1 1358   0.677   1.210   3.699  0.4112  0.1615  1.7344
  346SOL    HW2 1359   0.720   1.105   3.581 -1.6534  0.9891  0.1838
  347SOL     OW 1360   0.096   5.104   4.669 -1.0697  0.5494 -0.1217
  347SOL    HW1 1361   0.108   5.172   4.741 -2.8793  0.4799  0.2851
  347SOL    HW2 1362   0.008   5.058   4.681  0.1230 -1.9474 -0.3271
  348SOL     OW 1363   1.890   0.069   4.378 -0.2294  0.3872 -0.9413
  348SOL    HW1 1364   1.866  -0.028   4.377 -1.7409  0.7156 -0.1583
  348SOL    HW2 1365   1.843   0.114   4.455 -0.8541  2.0371 -2.2318
  349SOL     OW 1366   0.669   5.457   2.169 -0.6544  0.0898 -0.2727
  349SOL    HW1 1367   0.760   5.419   2.155 -0.4293  0.9126 -1.1377
  349SOL    HW2 1368   0.668   5.510   2.253 -0.8554 -1.4169  0.7161
  350SOL     OW 1369   1.667   5.196   3.455 -0.2059  0.2035 -1.1540
  350SOL    HW1 1370   1.732   5.257   3.410 -1.0107  2.2153  0.2575
  350SOL    HW2 1371   1.584   5.246   3.477 -0.6163 -1.2086  0.7776
  351SOL     OW 1372   2.482   1.199   4.075 -0.5037  0.4950 -0.0861
  351SOL    HW1 1373   2.528   1.279   4.114  1.6431 -0.7108  0.0021
  351SOL    HW2 1374   2.431   1.152   4.146 -0.0773  0.6534  0.3316
  352SOL     OW 1375   0.044   5.011   2.785  0.0024 -0.5108 -0.1044
  352SOL    HW1 1376   0.005   5.059   2.863 -2.5680 -2.5604  0.0094
  352SOL    HW2 1377  -0.027   4.993   2.717  1.5396 -1.3411 -1.5853
  353SOL     OW 1378   1.001   1.852   4.428 -0.0529 -0.1263  0.2273
  353SOL    HW1 1379   0.967   1.856   4.522 -0.0308 -0.7316  0.2621
  353SOL    HW2 1380   0.963   1.928   4.376  1.4547  1.3898  1.2184
  354SOL     OW 1381   0.166   0.949   2.329  0.2312 -0.3698  0.0690
  354SOL    HW1 1382   0.260   0.963   2.300  0.2196 -0.4898 -0.0302
  354SOL    HW2 1383   0.158   0.967   2.427  0.1759  0.4847 -0.0858
  355SOL     OW 1384   2.637   0.497   4.252 -0.0485  0.0955  0.2059
  355SOL    HW1 1385   2.709   0.436   4.219 -0.8677 -0.0250 -1.4631
  355SOL    HW2 1386   2.678   0.572   4.303  1.0923 -1.0311  1.0070
  356SOL     OW 1387   0.338   0.944   2.931 -0.5881 -0.0739  0.2780
  356SOL    HW1 1388   0.369   0.864   2.880 -1.2877 -0.4946  0.4909
  356SOL    HW2 1389   0.250   0.923   2.973 -0.8722  0.8866  0.1631
  357SOL     OW 1390   0.736   1.076   1.429 -0.6888 -0.1908  0.2862
  357SOL    HW1 1391   0.659   1.024   1.392 -0.2038 -1.7251  1.3088
  357SOL    HW2 1392   0.723   1.088   1.528  0.2426 -0.2387  0.4265
  358SOL     OW 1393   0.158   0.646   3.338  0.0919 -0.1888  0.1845
  358SOL    HW1 1394   0.163   0.549   3.312  1.6866 -0.4628  1.3538
  358SOL    HW2 1395   0.065   0.669   3.364 -0.2369 -1.5070  0.2320
  359SOL     OW 1396   5.212   1.919   2.714  0.0646  0.0362  0.0112
  359SOL    HW1 1397   5.155   1.888   2.790  0.1357  0.9043  0.4299
  359SOL    HW2 1398   5.172   1.888   2.628 -1.2382  0.8880  0.2709
  360SOL     OW 1399   2.239   1.142   3.368 -0.0702 -0.2790  0.5871
  360SOL    HW1 1400   2.279   1.215   3.313  0.0822 -1.4691 -0.9363
  360SOL    HW2 1401   2.296   1.060   3.361 -1.3048 -1.1707  0.6062
  361SOL     OW 1402   0.536   1.801   2.584  0.2482 -0.5850  0.0132
  361SOL    HW1 1403   0.588   1.806   2.499  0.4354 -2.2880  0.0004
  361SOL    HW2 1404   0.598   1.812   2.661  0.5582 -2.0258 -0.0159
  362SOL     OW 1405   1.045   5.597   1.459 -0.0092 -0.7467 -0.1801
  362SOL    HW1 1406   0.985   5.534   1.409  0.4008  0.0290 -1.7240
  362SOL    HW2 1407   1.139   5.587   1.425 -0.2051  1.9170 -1.8448
  363SOL     OW 1408   0.161   0.564   2.026  0.1080 -0.0445 -0.2923
  363SOL    HW1 1409   0.258   0.541   2.011  0.1067 -0.1886 -0.0883
  363SOL    HW2 1410   0.112   0.481   2.054 -0.1127 -0.0103 -0.5761
  364SOL     OW 1411   1.461   2.128   2.505  0.2357  0.1773 -0.0181
  364SOL    HW1 1412   1.481   2.103   2.600 -0.0673 -1.0640 -0.2680
  364SOL    HW2 1413   1.512   2.068   2.444 -0.7210 -0.0063 -0.6429
  365SOL     OW 1414   0.448   1.245   2.345 -0.1329 -0.7769  0.1861
  365SOL    HW1 1415   0.519   1.282   2.284 -0.9371 -0.7816 -0.7876
  365SOL    HW2 1416   0.490   1.215   2.431  0.8981  0.1302  0.0289
  366SOL     OW 1417   4.684   0.121   3.478 -0.0508 -0.5047 -0.0212
  366SOL    HW1 1418   4.624   0.107   3.556  0.2466 -2.5414 -0.1047
  366SOL    HW2 1419   4.779   0.103   3.505 -0.0363 -2.2309 -1.0109
  367SOL     OW 1420   1.239   5.199   3.863 -0.0681  0.3278 -0.0147
  367SOL    HW1 1421   1.275   5.152   3.944  2.1388 -1.9674 -2.1571
  367SOL    HW2 1422   1.170   5.142   3.819  0.9715  0.0801 -1.3943
  368SOL     OW 1423   1.367   0.427   3.376  0.3445  0.5730 -0.2816
  368SOL    HW1 1424   1.376   0.327   3.379 -1.3683  0.4053  0.8557
  368SOL    HW2 1425   1.314   0.453   3.296 -1.5333  0.2941  0.8106
  369SOL     OW 1426   0.047   1.692   1.356  0.4752 -0.4116 -0.4243
  369SOL    HW1 1427  -0.043   1.717   1.390  0.5884 -1.4600  0.7487
  369SOL    HW2 1428   0.096   1.773   1.326  0.6911  0.7727  2.7795
  370SOL     OW 1429   5.473   2.841   3.146  0.2319 -0.0226 -0.7220
  370SOL    HW1 1430   5.527   2.778   3.089  0.3507  0.5087 -1.2042
  370SOL    HW2 1431   5.411   2.893   3.088  0.7204  0.8957 -0.4315
  371SOL     OW 1432   4.138   1.980   1.654  0.9510  0.5860  0.5924
  371SOL    HW1 1433   4.065   1.915   1.675  0.9502  0.4201  0.0963
  371SOL    HW2 1434   4.226   1.932   1.654  0.8376  0.3310 -0.8736
  372SOL     OW 1435   5.090   1.820   2.474  0.5632 -0.3626  0.7577
  372SOL    HW1 1436   5.097   1.920   2.464 -0.9179 -0.4082 -1.0771
  372SOL    HW2 1437   5.004   1.797   2.518  0.7327 -0.8719  0.8277
  373SOL     OW 1438   4.804   1.273   2.150  0.1619  0.0117  0.3753
  373SOL    HW1 1439   4.836   1.185   2.115  0.1698 -0.7591  2.2040
  373SOL    HW2 1440   4.874   1.312   2.210 -0.6818  0.2241  1.2570
  374SOL     OW 1441   5.533   0.815   3.456 -0.1494 -0.0261  0.2953
  374SOL    HW1 1442   5.440   0.801   3.489  0.3257 -0.5103  1.4745
  374SOL    HW2 1443   5.590   0.851   3.530  0.1652  2.2147 -0.9456
  375SOL     OW 1444   2.340   1.562   3.203 -0.1820 -0.6340 -0.3965
  375SOL    HW1 1445   2.278   1.523   3.135 -0.5788  1.4833 -1.3424
  375SOL    HW2 1446   2.288   1.601   3.278  0.2101 -1.8325  0.5441
  376SOL     OW 1447   1.238   5.137   1.562 -0.0305 -0.1698  0.3056
  376SOL    HW1 1448   1.264   5.051   1.518  2.5793  1.1264 -0.9364
  376SOL    HW2 1449   1.155   5.172   1.519  0.3648 -0.7874 -1.0292
  377SOL     OW 1450   5.272   0.823   3.109 -0.0926  0.3260 -0.0306
  377SOL    HW1 1451   5.292   0.728   3.087  0.0606  0.2096  0.6019
  377SOL    HW2 1452   5.225   0.828   3.197 -1.4142  0.7185 -0.7201
  378SOL     OW 1453   1.888   5.399   4.378 -0.7595 -0.3578 -0.8086
  378SOL    HW1 1454   1.960   5.334   4.351 -1.5599 -0.3783 -3.0988
  378SOL    HW2 1455   1.816   5.400   4.308 -0.5599  3.3489 -1.1455
  379SOL     OW 1456   0.682   0.577   3.135  0.0912 -0.1121  0.2750
  379SOL    HW1 1457   0.759   0.640   3.131  0.6682 -0.7688  0.7497
  379SOL    HW2 1458   0.705   0.492   3.087 -0.2012 -0.4454  0.7110
  380SOL     OW 1459   4.668   1.222   1.546  0.5805  0.2730 -0.3840
  380SOL    HW1 1460   4.745   1.198   1.606  0.9237 -1.9345 -1.6189
  380SOL    HW2 1461   4.693   1.300   1.489  2.0580 -0.5799 -0.9620
  381SOL     OW 1462   0.592   1.757   1.672 -0.2326 -0.6730 -0.1638
  381SOL    HW1 1463   0.607   1.850   1.705 -1.0341 -0.1281 -1.2454
  381SOL    HW2 1464   0.675   1.703   1.685 -0.0128 -0.0360  1.1952
  382SOL     OW 1465   0.870   3.097   2.473  0.4264 -0.3947 -0.4628
  382SOL    HW1 1466   0.871   3.058   2.565  1.1644 -1.0038 -0.7136
  382SOL    HW2 1467   0.819   3.037   2.412 -2.1273  1.1714 -0.0005
  383SOL     OW 1468   1.428   1.972   0.116  0.0374 -0.0327 -0.5408
  383SOL    HW1 1469   1.480   1.893   0.149  0.7310  1.2254  1.5925
  383SOL    HW2 1470   1.491   2.047   0.096 -0.8257  1.2590  1.3394
  384SOL     OW 1471   3.026   1.802   2.379  0.1969  0.3898  0.0146
  384SOL    HW1 1472   3.044   1.797   2.280 -1.5735  1.4059 -0.4100
  384SOL    HW2 1473   2.986   1.890   2.401  0.3553  0.0908  1.6360
  385SOL     OW 1474   1.080   2.075   1.653 -0.1976  0.6637 -0.0273
  385SOL    HW1 1475   1.118   1.987   1.622 -2.1356 -0.4541  0.6047
  385SOL    HW2 1476   1.109   2.092   1.747 -0.2888  0.4107  0.0485
  386SOL     OW 1477   0.135   1.426   1.781 -0.1617 -0.3780  0.5181
  386SOL    HW1 1478   0.068   1.444   1.708 -1.4751  1.1694  2.0187
  386SOL    HW2 1479   0.157   1.511   1.827  2.0490 -1.0620  0.8006
  387SOL     OW 1480   1.348   1.579   3.231 -0.2377 -0.4041 -0.4645
  387SOL    HW1 1481   1.418   1.571   3.303 -0.0194 -0.6272 -0.6990
  387SOL    HW2 1482   1.314   1.672   3.228 -0.4072 -0.4404  0.0788
  388SOL     OW 1483   0.806   5.100   1.105  0.0697  0.6892 -0.0655
  388SOL    HW1 1484   0.752   5.107   1.188 -1.3887  2.2095 -1.0723
  388SOL    HW2 1485   0.767   5.030   1.045 -1.3639  2.3025 -1.1201
  389SOL     OW 1486   1.596   1.843   2.655  0.1069  0.0333 -0.5730
  389SOL    HW1 1487   1.557   1.918   2.709  0.3159 -1.1586  1.3524
  389SOL    HW2 1488   1.522   1.790   2.614 -0.1558 -0.0374 -0.0263
  390SOL     OW 1489   5.485   2.084   3.687  0.7987  0.3262 -0.4263
  390SOL    HW1 1490   5.475   2.002   3.631  0.7718 -0.4026  0.6139
  390SOL    HW2 1491   5.556   2.070   3.755  0.9259  1.2486 -0.3537
  391SOL     OW 1492   1.045   2.157   2.058 -0.2730  0.0870 -0.1388
  391SOL    HW1 1493   1.013   2.216   1.984  1.0549  0.8415 -0.1387
  391SOL    HW2 1494   0.991   2.174   2.141 -0.1036  1.1009 -0.2243
  392SOL     OW 1495   0.834   1.620   1.653 -0.0876  0.1318 -0.4662
  392SOL    HW1 1496   0.804   1.529   1.626  2.4963 -0.7936 -0.4604
  392SOL    HW2 1497   0.891   1.614   1.734  0.4977  1.6921 -0.7230
  393SOL     OW 1498   1.685   1.001   4.410  0.0342 -0.2071  0.3465
  393SOL    HW1 1499   1.753   0.979   4.480  0.1572  1.4824  0.7861
  393SOL    HW2 1500   1.727   1.059   4.341 -0.9915  0.9921  0.7054
  394SOL     OW 1501   1.750   0.289   3.267 -0.0146 -0.0323  0.0945
  394SOL    HW1 1502   1.721   0.382   3.247 -1.5817 -0.1345  1.7134
  394SOL    HW2 1503   1.814   0.289   3.343 -0.9561 -0.3607  0.9003
  395SOL     OW 1504   5.375   0.605   2.818  0.3269 -0.0994  0.1515
  395SOL    HW1 1505   5.423   0.542   2.758 -1.2050 -1.0646 -0.1082
  395SOL    HW2 1506   5.309   0.659   2.765  0.7796  0.8859  0.5634
  396SOL     OW 1507   0.229   1.928   1.315 -0.6216 -0.2487  0.3167
  396SOL    HW1 1508   0.311   1.888   1.356 -1.7266 -0.5741  2.3748
  396SOL    HW2 1509   0.238   2.028   1.315 -0.3010 -0.2699  0.7626
  397SOL     OW 1510   0.946   1.828   2.705 -0.5378  0.2766  0.3539
  397SOL    HW1 1511   0.950   1.847   2.804 -0.3857  1.2463  0.1730
  397SOL    HW2 1512   1.033   1.856   2.663 -0.7183  0.1519 -0.1055
  398SOL     OW 1513   0.243   1.456   2.608  0.2091  0.4491  0.5720
  398SOL    HW1 1514   0.332   1.501   2.604 -0.3515  1.6701  1.3055
  398SOL    HW2 1515   0.254   1.364   2.648  1.1416  0.5502  0.5702
  399SOL     OW 1516   3.089   2.022   1.635  0.3849  0.4199 -0.1303
  399SOL    HW1 1517   3.052   2.112   1.612  0.6772  0.3552 -0.8958
  399SOL    HW2 1518   3.151   2.030   1.714  0.6049  0.9355 -0.3534
  400SOL     OW 1519   1.043   2.223   3.219  0.1848 -0.8839 -0.4030
  400SOL    HW1 1520   1.044   2.310   3.169 -0.0709 -1.1213 -0.8330
  400SOL    HW2 1521   1.121   2.167   3.190  0.0672 -1.0000 -0.4981
  401SOL     OW 1522   0.893   4.947   3.565  0.0427 -0.2692  0.5034
  401SOL    HW1 1523   0.885   4.955   3.664  0.4314 -1.1051  0.6080
  401SOL    HW2 1524   0.818   4.998   3.522  0.2306  0.6233  1.1969
  402SOL     OW 1525   0.189   1.540   0.472 -0.4282 -0.5687  0.1882
  402SOL    HW1 1526   0.168   1.455   0.520 -2.6480 -0.2318 -0.1028
  402SOL    HW2 1527   0.170   1.529   0.374 -1.5136  0.4770  0.2618
  403SOL     OW 1528   0.406   0.018   3.427  0.4181  0.1514  0.3256
  403SOL    HW1 1529   0.469   0.047   3.499  0.4707 -0.0798  0.3734
  403SOL    HW2 1530   0.321  -0.014   3.468  0.8998 -1.1443  0.3685
  404SOL     OW 1531   1.221   0.923   0.896  0.1455  0.9443  0.5516
  404SOL    HW1 1532   1.230   0.984   0.975  0.4252  2.6918 -0.7813
  404SOL    HW2 1533   1.125   0.912   0.873  0.1461  2.2519 -0.1844
  405SOL     OW 1534   0.026   0.624   3.741  0.2958  0.0847 -0.1049
  405SOL    HW1 1535   0.114   0.645   3.698  0.5606 -0.0189  0.3801
  405SOL    HW2 1536  -0.032   0.576   3.676  1.8694 -2.9772  0.5792
  406SOL     OW 1537   5.199   1.944   1.791 -0.0663 -0.4098  0.5213
  406SOL    HW1 1538   5.170   2.038   1.770  0.8071 -0.6177 -1.9559
  406SOL    HW2 1539   5.266   1.946   1.865  1.1043  1.1382 -0.5089
  407SOL     OW 1540   0.409   1.447   3.335  0.4682 -0.3373 -0.6037
  407SOL    HW1 1541   0.453   1.470   3.248 -0.3294 -0.9800 -1.1970
  407SOL    HW2 1542   0.322   1.496   3.343  0.8006  0.1514  0.0982
  408SOL     OW 1543   0.940   5.151   2.758 -0.8009 -0.3810  0.3169
  408SOL    HW1 1544   0.977   5.109   2.676  1.9238 -0.0650  1.2867
  408SOL    HW2 1545   0.935   5.082   2.831 -1.4563 -0.2331  0.4186
  409SOL     OW 1546   0.462   4.329   1.883 -0.2682 -0.7825  0.0056
  409SOL    HW1 1547   0.404   4.408   1.859 -1.3735 -1.6572 -0.3043
  409SOL    HW2 1548   0.416   4.245   1.855  1.9277 -1.4643 -1.8451
  410SOL     OW 1549   1.895   5.196   5.505  0.4886 -0.3053 -0.0992
  410SOL    HW1 1550   1.967   5.228   5.567  0.5167 -1.8431  0.7038
  410SOL    HW2 1551   1.905   5.242   5.416  2.8348 -0.9101 -0.2191
  411SOL     OW 1552   0.558   0.231   2.439 -0.1404 -0.1728  0.0073
  411SOL    HW1 1553   0.536   0.236   2.537 -0.7729 -0.8394 -0.0898
  411SOL    HW2 1554   0.473   0.236   2.386  0.0015 -1.7317 -0.4310
  412SOL     OW 1555   0.556   0.577   2.534  0.4667  0.3807 -0.2405
  412SOL    HW1 1556   0.546   0.662   2.483  0.0305  0.1343 -0.5805
  412SOL    HW2 1557   0.538   0.499   2.472 -0.4741  0.0920  0.3752
  413SOL     OW 1558   0.585   0.830   3.440 -0.2001 -0.1631  0.6743
  413SOL    HW1 1559   0.600   0.755   3.504  0.4498  0.4499  1.2652
  413SOL    HW2 1560   0.665   0.839   3.380 -0.5644 -0.3720  0.1573
  414SOL     OW 1561   1.223   3.428   2.668  0.5302 -0.0091 -0.2776
  414SOL    HW1 1562   1.123   3.423   2.667  0.5449 -0.5907  0.4014
  414SOL    HW2 1563   1.260   3.360   2.605  0.5156 -0.7240  0.4728
  415SOL     OW 1564   1.344   1.673   2.529  0.0741 -0.1917  0.6327
  415SOL    HW1 1565   1.267   1.736   2.536 -1.1008 -1.2411 -1.6958
  415SOL    HW2 1566   1.381   1.675   2.436  0.6403 -2.1579  0.7564
  416SOL     OW 1567   1.150   1.788   2.977 -1.0993 -0.3802 -0.1004
  416SOL    HW1 1568   1.070   1.845   2.956  0.9154  1.3808 -4.3312
  416SOL    HW2 1569   1.211   1.837   3.039 -1.2325  0.3494 -0.5323
  417SOL     OW 1570   0.847   2.136   3.400 -0.2006 -0.3452  0.2568
  417SOL    HW1 1571   0.918   2.177   3.344 -1.4656 -0.6046 -1.6196
  417SOL    HW2 1572   0.874   2.043   3.425  1.2445  0.4380  1.8218
  418SOL     OW 1573   1.366   1.028   3.065  0.0158  0.2323  0.1419
  418SOL    HW1 1574   1.348   1.102   3.130  0.6450 -0.5601  1.2554
  418SOL    HW2 1575   1.439   0.970   3.100 -0.7249 -1.1560 -0.5053
  419SOL     OW 1576   1.638   5.572   1.402 -0.1584  0.3676  0.2900
  419SOL    HW1 1577   1.707   5.592   1.471  0.0624  2.2783 -0.4238
  419SOL    HW2 1578   1.551   5.552   1.446  0.4446 -0.4592  1.1474
  420SOL     OW 1579   5.214   0.935   0.494  0.0701  0.0002  0.3283
  420SOL    HW1 1580   5.119   0.960   0.508 -0.1552 -0.5968 -0.1233
  420SOL    HW2 1581   5.272   0.985   0.560 -0.5110  0.6112  0.3834
  421SOL     OW 1582   1.322   0.297   2.803  0.5098 -0.0620  0.2120
  421SOL    HW1 1583   1.370   0.364   2.745 -0.2070 -0.3233 -0.7143
  421SOL    HW2 1584   1.245   0.341   2.848 -0.4446 -0.4175 -1.0241
  422SOL     OW 1585   2.061   1.543   2.773 -0.1648 -0.2580 -0.0316
  422SOL    HW1 1586   2.053   1.626   2.717 -1.5948 -1.3050 -1.4871
  422SOL    HW2 1587   1.996   1.475   2.740 -1.1175 -0.9431  2.9648
  423SOL     OW 1588   1.136   1.043   2.896  0.2290 -0.6836  0.5471
  423SOL    HW1 1589   1.224   1.020   2.936 -0.5812 -2.3576  1.5054
  423SOL    HW2 1590   1.094   0.959   2.859 -1.6474 -0.2618  1.5784
  424SOL     OW 1591   0.388   1.371   2.923 -0.1760 -0.0054 -0.0122
  424SOL    HW1 1592   0.292   1.347   2.907  0.3564 -1.0618 -1.8883
  424SOL    HW2 1593   0.446   1.324   2.857  1.4471  2.4346 -0.4774
  425SOL     OW 1594   4.753   1.639   1.652  0.4688 -0.0366 -0.1062
  425SOL    HW1 1595   4.749   1.546   1.689 -0.0555  0.5909  1.5282
  425SOL    HW2 1596   4.837   1.651   1.600  0.0220 -1.7391 -1.2845
  426SOL     OW 1597   0.756   0.810   2.120  0.4823 -0.5985  0.2005
  426SOL    HW1 1598   0.797   0.779   2.034  1.7547  0.0289  0.5616
  426SOL    HW2 1599   0.664   0.845   2.102  0.0127 -2.1669 -0.6008
  427SOL     OW 1600   1.757   1.894   1.775 -0.0282  0.4371 -0.0497
  427SOL    HW1 1601   1.836   1.926   1.724 -0.0713 -1.2556 -1.2669
  427SOL    HW2 1602   1.747   1.948   1.859  1.0778  2.1350 -0.9477
  428SOL     OW 1603   0.475   3.140   2.085  0.0401 -0.3056 -0.1590
  428SOL    HW1 1604   0.550   3.073   2.082 -0.7198 -1.1681 -3.3616
  428SOL    HW2 1605   0.388   3.092   2.083 -0.5290  0.7283 -1.4019
  429SOL     OW 1606   4.482   1.019   1.454  0.3287  0.0451 -0.0419
  429SOL    HW1 1607   4.548   1.081   1.497 -0.7272  0.6042  0.8569
  429SOL    HW2 1608   4.508   0.924   1.473  0.8581  0.2570  0.3258
  430SOL     OW 1609   0.924   1.521   1.968 -0.4737 -0.2283 -0.7614
  430SOL    HW1 1610   0.843   1.464   1.955  0.0674 -1.0656 -0.5181
  430SOL    HW2 1611   0.896   1.613   1.996 -1.2850 -0.9207  0.8021
  431SOL     OW 1612   1.090   0.210   3.010 -0.5463  0.1852  0.1812
  431SOL    HW1 1613   1.056   0.297   2.972  1.7855  0.9929 -0.1987
  431SOL    HW2 1614   1.021   0.139   2.995 -1.8579  1.6061 -0.9386
  432SOL     OW 1615   5.361   0.973   2.298 -0.4560  0.1961 -0.5246
  432SOL    HW1 1616   5.288   1.040   2.315 -0.6817  0.0009 -0.7128
  432SOL    HW2 1617   5.432   1.014   2.241 -0.5572  0.2983 -0.5770
  433SOL     OW 1618   2.241   1.478   2.016  0.2184 -0.3777  0.2093
  433SOL    HW1 1619   2.199   1.553   1.965  0.4050 -1.2240 -1.2647
  433SOL    HW2 1620   2.229   1.393   1.965  0.4093 -1.2863  1.6156
  434SOL     OW 1621   5.471   0.907   2.739 -0.6015  0.3435 -0.4162
  434SOL    HW1 1622   5.451   0.917   2.837 -0.5501 -1.3377 -0.2070
  434SOL    HW2 1623   5.387   0.923   2.686 -1.2319 -1.1133  0.0874
  435SOL     OW 1624   0.871   2.952   1.789  0.4589  0.1798  0.4238
  435SOL    HW1 1625   0.851   2.929   1.694  1.8075  0.5172  0.0277
  435SOL    HW2 1626   0.823   3.036   1.814  1.2213  0.9002 -0.4476
  436SOL     OW 1627   1.196   0.475   3.172  0.2238  0.4072  0.1590
  436SOL    HW1 1628   1.115   0.450   3.225 -0.1659  0.5198 -0.3774
  436SOL    HW2 1629   1.187   0.569   3.138  0.1086  0.0702 -0.7668
  437SOL     OW 1630   5.324   4.510   3.499 -0.1881 -0.3280  0.5326
  437SOL    HW1 1631   5.311   4.501   3.598 -1.0026  1.6603  0.6617
  437SOL    HW2 1632   5.419   4.532   3.479 -0.4371  1.4900  1.1251
  438SOL     OW 1633   0.809   1.635   3.020 -0.0164 -0.2583  0.1352
  438SOL    HW1 1634   0.822   1.717   3.077 -1.1596  0.7355 -0.9681
  438SOL    HW2 1635   0.774   1.561   3.076  0.0842  0.3105  0.9751
  439SOL     OW 1636   0.541   1.227   2.752  0.1959 -0.0943  0.0637
  439SOL    HW1 1637   0.611   1.281   2.705  1.5196  0.0968  2.1727
  439SOL    HW2 1638   0.580   1.140   2.782 -0.7366 -0.3891  0.4730
  440SOL     OW 1639   1.650   0.637   3.704  0.3651 -0.5195 -0.2212
  440SOL    HW1 1640   1.714   0.613   3.631  2.2452  0.3550  1.0576
  440SOL    HW2 1641   1.657   0.569   3.777 -1.6506 -1.5014 -0.8778
  441SOL     OW 1642   1.624   4.575   2.725 -0.0514 -0.2227  0.6476
  441SOL    HW1 1643   1.720   4.597   2.714 -0.3538  0.1776 -1.5307
  441SOL    HW2 1644   1.576   4.652   2.766  0.1315  0.5296 -0.5280
  442SOL     OW 1645   3.669   0.201   1.973 -0.4661 -0.2595  0.4072
  442SOL    HW1 1646   3.643   0.283   2.024 -3.1231 -1.0387  0.4288
  442SOL    HW2 1647   3.705   0.229   1.883  0.1341  0.9475  0.9878
  443SOL     OW 1648   4.991   1.401   2.286  0.6103  0.0305 -0.1689
  443SOL    HW1 1649   4.987   1.470   2.358  1.2983 -0.5342  0.4240
  443SOL    HW2 1650   5.068   1.418   2.226 -0.4654  1.0079 -1.3256
  444SOL     OW 1651   1.245   1.208   1.848  0.6069  0.6776  0.2142
  444SOL    HW1 1652   1.297   1.214   1.763  1.6696 -1.9364  0.5695
  444SOL    HW2 1653   1.307   1.185   1.923 -0.5746  1.1125  1.3703
  445SOL     OW 1654   0.580   5.297   4.238 -0.4522 -0.1364  0.4937
  445SOL    HW1 1655   0.522   5.311   4.158 -1.8633  0.1573  1.5393
  445SOL    HW2 1656   0.524   5.297   4.320  0.9804 -0.3902  1.5028
  446SOL     OW 1657   5.322   1.165   4.169 -0.2333  0.2628  0.6756
  446SOL    HW1 1658   5.403   1.121   4.132 -0.4343 -0.1593  0.7260
  446SOL    HW2 1659   5.261   1.191   4.095 -0.9966 -1.2854  0.7052
  447SOL     OW 1660   5.568   1.482   3.559 -0.0339  0.3484  0.5596
  447SOL    HW1 1661   5.651   1.486   3.614  0.3979  1.3158 -0.1338
  447SOL    HW2 1662   5.493   1.528   3.608 -0.1529 -0.4374  1.1401
  448SOL     OW 1663   4.851   1.334   4.941 -0.3781 -0.5081 -0.0102
  448SOL    HW1 1664   4.838   1.395   4.863  1.1469 -1.4216 -1.0406
  448SOL    HW2 1665   4.928   1.367   4.997 -1.3371  0.0317  1.0282
  449SOL     OW 1666   1.335   1.430   3.016  0.0925 -0.4338  0.0419
  449SOL    HW1 1667   1.351   1.500   2.946 -1.2935 -0.5012 -0.3624
  449SOL    HW2 1668   1.348   1.471   3.107 -0.7448  0.3793 -0.1869
  450SOL     OW 1669   1.363   4.860   4.243 -0.0085  0.3471 -0.3904
  450SOL    HW1 1670   1.335   4.812   4.160 -0.4915  0.3641 -0.2404
  450SOL    HW2 1671   1.458   4.837   4.264 -0.2960 -0.7040 -0.2011
  451SOL     OW 1672   1.676   1.163   4.032 -0.1534 -0.2158  0.2910
  451SOL    HW1 1673   1.730   1.147   4.115 -0.7299 -2.0174  0.3533
  451SOL    HW2 1674   1.696   1.255   3.997  0.9850  0.1350  1.7509
  452SOL     OW 1675   0.346   0.640   1.251  0.0850 -0.0540 -0.2554
  452SOL    HW1 1676   0.289   0.666   1.329 -0.0878  1.0563 -0.7334
  452SOL    HW2 1677   0.441   0.662   1.271  0.7720 -3.6742  1.3443
  453SOL     OW 1678   1.616   2.143   0.028 -0.2681  0.8224 -0.1157
  453SOL    HW1 1679   1.647   2.138  -0.067  0.5172  0.8811  0.1320
  453SOL    HW2 1680   1.695   2.158   0.088 -0.1957 -2.7371  0.9142
  454SOL     OW 1681   1.082   2.251   4.152 -0.1802 -0.4443  0.0671
  454SOL    HW1 1682   1.053   2.343   4.126 -2.0768 -1.2004 -0.7103
  454SOL    HW2 1683   1.181   2.249   4.167  0.4961  0.9411 -3.3404
  455SOL     OW 1684   1.511   1.538   4.893 -0.1364 -0.4714 -0.0186
  455SOL    HW1 1685   1.454   1.616   4.869  0.8499  0.8975  1.8533
  455SOL    HW2 1686   1.527   1.482   4.812 -2.5018  0.1514 -0.9881
  456SOL     OW 1687   0.202   0.738   4.409  0.0915 -0.6265 -0.4981
  456SOL    HW1 1688   0.155   0.658   4.446  2.3085 -1.2861  1.1731
  456SOL    HW2 1689   0.229   0.799   4.484  0.4484  0.5270 -1.5232
  457SOL     OW 1690   2.249   2.060   4.541 -0.4730 -0.2005 -0.3684
  457SOL    HW1 1691   2.237   2.032   4.445 -0.8961 -0.8610 -0.1314
  457SOL    HW2 1692   2.267   1.979   4.597  0.2037  0.2364  0.0481
  458SOL     OW 1693   0.348   5.297   5.072 -0.0785 -0.7582  0.1701
  458SOL    HW1 1694   0.259   5.313   5.030  1.1353 -1.6427 -3.1099
  458SOL    HW2 1695   0.406   5.378   5.060 -0.1368 -0.4852  1.5554
  459SOL     OW 1696   1.730   0.497   3.942 -0.0017  0.0378  0.7214
  459SOL    HW1 1697   1.689   0.558   4.010  0.6866  0.2601  0.9442
  459SOL    HW2 1698   1.664   0.427   3.916 -1.5188  1.9672 -0.9685
  460SOL     OW 1699   5.202   1.674   3.236 -0.7875  0.2444  0.4827
  460SOL    HW1 1700   5.212   1.766   3.275 -1.2348 -0.2815  1.9131
  460SOL    HW2 1701   5.125   1.627   3.281 -2.2460  0.0551 -2.0072
  461SOL     OW 1702   0.852   1.023   0.808  0.2511  0.2340 -0.9023
  461SOL    HW1 1703   0.897   1.072   0.734 -1.1949  1.0532 -1.2776
  461SOL    HW2 1704   0.893   0.932   0.818  1.8266  0.8701 -1.3255
  462SOL     OW 1705   0.253   1.805   2.597 -0.0752 -0.0787 -0.3810
  462SOL    HW1 1706   0.348   1.817   2.569 -0.0532  1.7636  0.2977
  462SOL    HW2 1707   0.199   1.771   2.520  0.6737  1.3267 -1.5870
  463SOL     OW 1708   0.235   0.394   4.170 -0.5412  0.4019 -0.4417
  463SOL    HW1 1709   0.185   0.436   4.094 -0.0311  0.0490 -0.9869
  463SOL    HW2 1710   0.176   0.328   4.216 -0.3308 -0.6996 -1.6670
  464SOL     OW 1711   5.356   2.684   5.377 -0.1053  0.3450  0.1175
  464SOL    HW1 1712   5.286   2.625   5.334  0.9171 -0.3989 -0.5690
  464SOL    HW2 1713   5.393   2.746   5.308  0.0328  0.6175  0.4385
  465SOL     OW 1714   5.413   1.315   3.831 -0.2628  0.2579 -0.2692
  465SOL    HW1 1715   5.318   1.344   3.838 -1.0553 -2.0393 -0.5851
  465SOL    HW2 1716   5.470   1.394   3.810 -1.8100  2.0252  1.6632
  466SOL     OW 1717   2.704   5.128   0.188  0.2261  0.1806 -0.0311
  466SOL    HW1 1718   2.710   5.223   0.221 -2.0889  0.6374 -0.7105
  466SOL    HW2 1719   2.681   5.068   0.264  1.7452  0.1252  0.4122
  467SOL     OW 1720   0.522   1.996   3.731  0.0161  0.3317 -0.2028
  467SOL    HW1 1721   0.616   2.000   3.698  0.6641  0.8172  1.6189
  467SOL    HW2 1722   0.489   1.901   3.724  0.6115  0.1629 -0.8859
  468SOL     OW 1723   1.803   1.533   4.383 -0.3493 -0.0470  0.2443
  468SOL    HW1 1724   1.826   1.620   4.340  0.4897  0.2973  1.3612
  468SOL    HW2 1725   1.760   1.549   4.471 -2.1844 -0.7541 -0.4800
  469SOL     OW 1726   0.590   2.197   4.841  0.2436 -0.5770  0.3485
  469SOL    HW1 1727   0.601   2.178   4.938 -1.9042  0.7007  0.9285
  469SOL    HW2 1728   0.653   2.270   4.813 -0.3783  0.3591  1.2929
  470SOL     OW 1729   1.360   1.740   4.779  0.3822 -0.1690 -0.4359
  470SOL    HW1 1730   1.261   1.754   4.766  0.4323  0.1621 -0.4690
  470SOL    HW2 1731   1.405   1.829   4.788  0.8524 -0.2627 -1.7014
  471SOL     OW 1732   0.838   1.834   5.065  0.9822  0.5193 -0.0869
  471SOL    HW1 1733   0.745   1.859   5.039  1.1818  1.4053  0.0130
  471SOL    HW2 1734   0.846   1.735   5.072 -0.0847  0.4592  0.3701
  472SOL     OW 1735   4.677   0.994   3.914 -0.5294 -0.1956  0.4385
  472SOL    HW1 1736   4.744   0.980   3.987  0.7911  0.0623 -0.6786
  472SOL    HW2 1737   4.673   1.092   3.891 -0.2918 -0.3657 -0.3817
  473SOL     OW 1738   0.136   0.597   3.999  0.7975 -0.2461  0.0689
  473SOL    HW1 1739   0.090   0.585   3.912 -1.4111 -0.2976  1.1779
  473SOL    HW2 1740   0.216   0.656   3.987 -0.0476  0.5829 -1.8035
  474SOL     OW 1741   1.051   0.244   5.096 -0.2289 -0.2252 -0.4484
  474SOL    HW1 1742   1.140   0.260   5.055 -0.8204  1.4777 -1.2017
  474SOL    HW2 1743   1.049   0.286   5.187 -0.2713 -0.1833 -0.4684
  475SOL     OW 1744   1.095   4.813   3.436 -0.0786 -0.0853  0.0727
  475SOL    HW1 1745   1.155   4.780   3.508 -0.8985  0.0415  0.8308
  475SOL    HW2 1746   1.011   4.850   3.476  0.4893  2.2878 -0.7667
  476SOL     OW 1747   1.242   0.450   3.660 -0.8639 -0.5350 -0.4269
  476SOL    HW1 1748   1.294   0.426   3.578 -0.5262 -0.4436 -0.2401
  476SOL    HW2 1749   1.165   0.508   3.634 -1.1812 -1.1030 -0.7690
  477SOL     OW 1750   1.077   1.747   3.719  0.2553 -0.3078 -0.8197
  477SOL    HW1 1751   1.106   1.744   3.815 -0.1947  0.5091 -0.6586
  477SOL    HW2 1752   0.984   1.784   3.713  1.0621  1.6879 -1.7347
  478SOL     OW 1753   1.622   0.786   5.100 -0.3945  0.4185 -0.3333
  478SOL    HW1 1754   1.596   0.866   5.046  1.2183 -0.8587 -3.2736
  478SOL    HW2 1755   1.554   0.713   5.086  0.3482 -0.1277 -1.2555
  479SOL     OW 1756   1.287   5.562   1.076 -0.6997 -0.3652 -0.1121
  479SOL    HW1 1757   1.340   5.539   0.995 -1.4490  1.2339 -1.0872
  479SOL    HW2 1758   1.192   5.576   1.051 -0.9843 -0.0353  1.0876
  480SOL     OW 1759   1.420   1.036   4.432  0.5007  0.0511 -0.4842
  480SOL    HW1 1760   1.415   1.128   4.393  3.1888  0.2611 -0.4909
  480SOL    HW2 1761   1.502   0.990   4.399  1.2094 -0.9623  2.3871
  481SOL     OW 1762   0.590   1.903   5.213  0.9164  0.0986 -0.6912
  481SOL    HW1 1763   0.529   1.872   5.286  0.9387  0.2330 -0.6158
  481SOL    HW2 1764   0.685   1.893   5.242  0.9273  2.4154  0.2637
  482SOL     OW 1765   1.290   0.129   3.466 -0.0746 -0.0307 -0.1813
  482SOL    HW1 1766   1.285   0.059   3.537 -1.3113  0.6619  0.4482
  482SOL    HW2 1767   1.265   0.091   3.378  0.1087 -0.5691 -0.0021
  483SOL     OW 1768   0.740   0.910   4.273  0.2380  0.0321 -0.3559
  483SOL    HW1 1769   0.832   0.946   4.291  0.5602 -0.7722 -0.3032
  483SOL    HW2 1770   0.677   0.985   4.253  0.9448  0.5830 -0.5522
  484SOL     OW 1771   2.448   2.211   4.681  0.1738 -0.0155 -0.5713
  484SOL    HW1 1772   2.533   2.165   4.658 -0.1059 -1.3372  0.8934
  484SOL    HW2 1773   2.373   2.168   4.630  0.0070 -0.8110  0.3053
  485SOL     OW 1774   1.076   0.383   0.560 -0.5415  0.0130  0.7708
  485SOL    HW1 1775   1.030   0.329   0.631 -0.0074 -2.6305 -0.7646
  485SOL    HW2 1776   1.173   0.358   0.556 -0.8259 -1.0425 -1.7649
  486SOL     OW 1777   2.776   0.192   0.016  0.5058 -1.1281 -0.0088
  486SOL    HW1 1778   2.858   0.244  -0.007 -0.0303 -0.3187 -0.1052
  486SOL    HW2 1779   2.744   0.217   0.107 -0.3034 -0.5625 -0.4322
  487SOL     OW 1780   1.734   0.540   5.516 -0.2850 -0.4719  0.0774
  487SOL    HW1 1781   1.716   0.608   5.445  0.3872  1.1224  1.3975
  487SOL    HW2 1782   1.691   0.568   5.602  2.7486  0.0453  1.5421
  488SOL     OW 1783   1.169   1.173   5.031  0.1352 -0.3392  0.4573
  488SOL    HW1 1784   1.183   1.189   4.933 -0.0188 -0.3958  0.4241
  488SOL    HW2 1785   1.218   1.091   5.059  1.9741  0.8660  0.9020
  489SOL     OW 1786   1.005   1.580   5.018  0.0428  0.9320 -0.6093
  489SOL    HW1 1787   1.027   1.497   5.070 -0.9747  1.7279  1.2047
  489SOL    HW2 1788   1.073   1.651   5.037 -0.6767  1.4329  0.2199
  490SOL     OW 1789   5.341   5.156   4.520  0.9955  0.1035 -0.1706
  490SOL    HW1 1790   5.356   5.198   4.431  0.1670  0.0786 -0.3290
  490SOL    HW2 1791   5.253   5.109   4.520  0.6040  0.8004  0.9177
  491SOL     OW 1792   0.752   1.452   5.556 -0.2865 -0.3552 -0.3544
  491SOL    HW1 1793   0.833   1.507   5.535 -0.3156  0.0768  0.5936
  491SOL    HW2 1794   0.705   1.427   5.471 -0.4664  1.3908 -0.8030
  492SOL     OW 1795   0.886   0.039   2.948  0.5094 -0.0642  0.4689
  492SOL    HW1 1796   0.820   0.091   2.893 -0.5873 -1.3347  0.5427
  492SOL    HW2 1797   0.908  -0.047   2.902  1.4254 -0.0756  0.8996
  493SOL     OW 1798   2.868   1.032   4.549  0.0639 -0.4970 -0.1434
  493SOL    HW1 1799   2.911   1.006   4.463  1.4382  0.7012  0.1377
  493SOL    HW2 1800   2.769   1.016   4.543  0.1903 -0.8459 -1.7695
  494SOL     OW 1801   1.198   1.214   4.772  0.0067 -0.0834  0.6214
  494SOL    HW1 1802   1.178   1.307   4.740 -0.4373 -0.2669  0.3669
  494SOL    HW2 1803   1.116   1.158   4.767  0.3472 -0.5792  0.4698
  495SOL     OW 1804   5.106   4.829   4.683  0.8111 -0.4504  0.1828
  495SOL    HW1 1805   5.125   4.884   4.602  1.6384 -0.1401  0.5753
  495SOL    HW2 1806   5.041   4.878   4.741  1.0157 -0.1990  0.2032
  496SOL     OW 1807   0.600   1.442   4.297  0.6410 -0.5508 -0.0892
  496SOL    HW1 1808   0.621   1.345   4.287  1.9261 -0.4174  1.0644
  496SOL    HW2 1809   0.665   1.484   4.361 -0.8402  0.7443  0.6206
  497SOL     OW 1810   0.915   1.877   3.442  0.7769 -0.0084 -0.2555
  497SOL    HW1 1811   1.001   1.826   3.439  0.3639 -0.9152  1.7508
  497SOL    HW2 1812   0.884   1.884   3.537 -1.1716  0.6403 -0.8989
  498SOL     OW 1813   2.056   0.887   4.281  0.1096  0.0340 -0.4972
  498SOL    HW1 1814   2.082   0.825   4.207 -0.5431  1.6721 -2.1898
  498SOL    HW2 1815   1.975   0.850   4.327  1.3632 -1.7306  0.4237
  499SOL     OW 1816   2.120   2.003   0.413 -0.6774  0.0896  0.1376
  499SOL    HW1 1817   2.137   2.078   0.348 -0.5477 -1.2929 -1.4992
  499SOL    HW2 1818   2.139   1.916   0.368 -0.9375 -0.9503  1.9624
  500SOL     OW 1819   5.510   0.393   3.255 -0.0150  0.2180  0.1707
  500SOL    HW1 1820   5.609   0.384   3.262 -0.0288 -0.1448 -0.1147
  500SOL    HW2 1821   5.468   0.303   3.244 -0.2403  0.4754 -1.3904
  501SOL     OW 1822   1.245   0.603   4.463  0.0158  0.3970 -0.2206
  501SOL    HW1 1823   1.240   0.547   4.380 -3.9792  0.3000 -0.0930
  501SOL    HW2 1824   1.238   0.700   4.438 -0.5915  0.4007 -0.0427
  502SOL     OW 1825   0.295   0.964   5.105  0.1128 -0.0008  0.7805
  502SOL    HW1 1826   0.207   0.960   5.153 -0.4940 -2.1670 -0.3613
  502SOL    HW2 1827   0.341   1.050   5.127 -1.6246  0.5684  2.5419
  503SOL     OW 1828   1.072   5.499   4.612  0.6503  0.0494 -0.3875
  503SOL    HW1 1829   0.986   5.547   4.597  0.4155 -1.0230 -3.1512
  503SOL    HW2 1830   1.054   5.408   4.649  0.8906  0.9369  2.0615
  504SOL     OW 1831   1.952   1.058   5.360 -0.2023  0.0697 -0.7640
  504SOL    HW1 1832   1.966   0.961   5.382  1.6348  0.1119 -1.5846
  504SOL    HW2 1833   1.854   1.079   5.365 -0.4110 -1.0834  2.3815
  505SOL     OW 1834   2.975   1.730   3.311  0.0886  0.4659  0.2566
  505SOL    HW1 1835   2.939   1.663   3.375 -1.7116  2.8881  1.9541
  505SOL    HW2 1836   3.018   1.805   3.361  2.3031  0.5430 -1.5808
  506SOL     OW 1837   0.480   1.117   3.092 -0.3342 -0.2113 -0.0527
  506SOL    HW1 1838   0.451   1.207   3.059  0.7834 -0.5578 -2.1695
  506SOL    HW2 1839   0.438   1.046   3.035  0.4234 -0.9244  0.2611
  507SOL     OW 1840   1.190   0.862   4.417 -0.3925  0.3878  0.1334
  507SOL    HW1 1841   1.099   0.887   4.384 -0.4557 -0.4039 -0.3197
  507SOL    HW2 1842   1.253   0.938   4.403 -0.6837  0.4687 -0.7975
  508SOL     OW 1843   0.094   0.754   4.825  0.6810 -0.0697  0.3136
  508SOL    HW1 1844   0.163   0.714   4.765 -0.7616 -0.4740 -1.1660
  508SOL    HW2 1845   0.053   0.834   4.781 -0.8374 -0.7298  0.4453
  509SOL     OW 1846   0.260   0.990   4.112 -0.0424 -0.4608 -0.4182
  509SOL    HW1 1847   0.249   0.948   4.202 -2.0889  1.1560  0.1786
  509SOL    HW2 1848   0.250   0.921   4.041 -1.5193 -1.3236  0.5606
  510SOL     OW 1849   1.019   1.275   3.839  0.8844 -0.7667 -0.1196
  510SOL    HW1 1850   1.070   1.239   3.762  0.2694 -2.6698  0.3133
  510SOL    HW2 1851   0.951   1.341   3.807  2.1910  0.2456 -0.9082
  511SOL     OW 1852   2.698   4.972   0.426 -0.4342  0.3370 -0.6065
  511SOL    HW1 1853   2.635   4.920   0.484  0.6105  0.7523  0.9815
  511SOL    HW2 1854   2.700   5.067   0.455 -0.4817  0.7339 -1.8701
  512SOL     OW 1855   0.529   0.345   5.451 -0.0283 -0.0834  0.5883
  512SOL    HW1 1856   0.601   0.289   5.492 -1.3898 -3.0517 -0.8050
  512SOL    HW2 1857   0.547   0.355   5.353 -1.1870 -0.3761  0.3307
  513SOL     OW 1858   0.411   5.228   0.701 -0.0298  0.0189  0.1828
  513SOL    HW1 1859   0.428   5.171   0.781 -0.1172  0.0259  0.2061
  513SOL    HW2 1860   0.498   5.257   0.662  0.0373  1.9509  1.6443
  514SOL     OW 1861   0.659   0.329   4.520  0.5322  0.0757 -0.3127
  514SOL    HW1 1862   0.758   0.326   4.536  0.7985 -0.6868 -1.8351
  514SOL    HW2 1863   0.627   0.423   4.525  1.6976  0.5795 -1.5913
  515SOL     OW 1864   0.635   4.906   4.237  0.3196 -0.4261 -0.1925
  515SOL    HW1 1865   0.679   4.905   4.326 -1.8150 -0.4345  0.9181
  515SOL    HW2 1866   0.553   4.963   4.240  0.5263  0.0672 -2.3244
  516SOL     OW 1867  -0.004   0.965   4.660  0.2357 -0.3571  0.0352
  516SOL    HW1 1868  -0.070   1.019   4.713  1.0927  0.2789  0.4922
  516SOL    HW2 1869   0.088   0.990   4.688  0.6757 -1.2100 -0.6162
  517SOL     OW 1870   1.156   5.112   5.377 -0.7391  0.0993  0.2834
  517SOL    HW1 1871   1.080   5.167   5.343  0.0463  0.2340 -1.3599
  517SOL    HW2 1872   1.237   5.170   5.388  0.5664 -0.8944 -3.0139
  518SOL     OW 1873   2.066   5.224   4.286  0.0016  0.0036  0.4769
  518SOL    HW1 1874   2.146   5.284   4.288 -0.1368  0.3475 -1.6390
  518SOL    HW2 1875   2.092   5.134   4.321  1.3450  0.0885 -0.2153
  519SOL     OW 1876   1.598   0.281   4.385 -0.5779 -0.1483  0.3975
  519SOL    HW1 1877   1.653   0.259   4.466  1.6742 -0.8636 -1.2489
  519SOL    HW2 1878   1.504   0.297   4.414  0.3569  0.8744  3.3231
  520SOL     OW 1879   0.511   4.800   3.800  0.0299 -0.0860 -0.1359
  520SOL    HW1 1880   0.456   4.771   3.722  0.4894  1.1826 -0.9696
  520SOL    HW2 1881   0.515   4.900   3.802 -1.4678  0.0011  2.5924
  521SOL     OW 1882   0.775   4.903   4.464  0.0337  0.4542 -0.0710
  521SOL    HW1 1883   0.705   4.884   4.533 -1.2223 -0.8564 -1.6023
  521SOL    HW2 1884   0.846   4.834   4.468 -0.0307  0.3881 -0.0727
  522SOL     OW 1885   2.737   0.867   4.865  0.1186 -0.1086  0.2063
  522SOL    HW1 1886   2.704   0.951   4.907 -0.0040 -0.3217  0.5405
  522SOL    HW2 1887   2.769   0.804   4.936 -0.8713 -0.8055  0.0505
  523SOL     OW 1888   1.489   1.933   3.639  0.2969  0.3882 -0.8906
  523SOL    HW1 1889   1.553   1.857   3.630 -1.4397 -1.1995 -0.3436
  523SOL    HW2 1890   1.430   1.918   3.719 -0.8939  1.6834 -1.4812
  524SOL     OW 1891   4.731   2.093   3.134 -0.3823  0.3447  0.3575
  524SOL    HW1 1892   4.734   2.187   3.101  0.5989 -0.2174 -1.2956
  524SOL    HW2 1893   4.646   2.049   3.103  1.1858 -0.6463 -3.0715
  525SOL     OW 1894   2.072   1.302   3.663 -0.6637  0.1229 -0.2426
  525SOL    HW1 1895   2.126   1.272   3.742  1.1576  1.2798 -0.9763
  525SOL    HW2 1896   1.977   1.316   3.691  0.2012  1.9512  2.1851
  526SOL     OW 1897   0.798   1.996   3.971 -0.1168  0.3819  0.1455
  526SOL    HW1 1898   0.888   2.031   3.947 -0.7944  1.1820 -1.3514
  526SOL    HW2 1899   0.779   2.016   4.068  0.7239  1.4971  0.0952
  527SOL     OW 1900   5.540   1.710   4.338  0.7400  0.0543 -0.0628
  527SOL    HW1 1901   5.449   1.706   4.297 -0.2999  0.0827  2.0913
  527SOL    HW2 1902   5.568   1.619   4.368  2.0282 -0.1878 -1.8108
  528SOL     OW 1903   0.076   5.494   0.191 -0.0807 -0.1995  0.0597
  528SOL    HW1 1904   0.150   5.559   0.208  0.2260 -0.1767 -1.3107
  528SOL    HW2 1905   0.044   5.458   0.279  0.9072  0.4902  0.7341
  529SOL     OW 1906   0.639   0.586   3.570  0.1197 -0.0259 -0.0618
  529SOL    HW1 1907   0.724   0.610   3.617  0.7242  0.1698 -1.2365
  529SOL    HW2 1908   0.604   0.500   3.608 -0.1696  0.8120  1.7053
  530SOL     OW 1909   0.996   4.864   4.084 -0.3536  0.1950  0.1808
  530SOL    HW1 1910   0.909   4.817   4.073  0.1597 -0.7776  0.2451
  530SOL    HW2 1911   0.980   4.955   4.123 -1.3597  0.1449 -0.1111
  531SOL     OW 1912   1.509   0.343   5.102  0.0613 -0.7443  0.7204
  531SOL    HW1 1913   1.495   0.437   5.070  0.2100 -1.0683 -0.3424
  531SOL    HW2 1914   1.537   0.345   5.198  1.1641  0.3688  0.4183
  532SOL     OW 1915   0.303   0.217   0.046  0.1001  0.4830  0.2077
  532SOL    HW1 1916   0.263   0.175  -0.036  2.3160  0.7103 -1.0884
  532SOL    HW2 1917   0.368   0.287   0.018 -0.5023  1.9509  2.2582
  533SOL     OW 1918   1.317   5.436   3.267  0.1931  0.1114  0.4890
  533SOL    HW1 1919   1.391   5.392   3.217  0.7332 -0.5427  1.8017
  533SOL    HW2 1920   1.315   5.534   3.246  0.2940 -0.1649 -0.8955
  534SOL     OW 1921   5.596   2.816   2.436  0.3047  0.5601  0.1919
  534SOL    HW1 1922   5.582   2.864   2.350 -0.3318  0.1643  0.0692
  534SOL    HW2 1923   5.524   2.748   2.449  1.9504 -1.4043 -0.3473
  535SOL     OW 1924   1.495   1.366   3.570  0.6680  0.1397 -0.0390
  535SOL    HW1 1925   1.512   1.422   3.489 -1.1743 -1.0041 -1.2992
  535SOL    HW2 1926   1.476   1.272   3.542 -0.0617 -0.2759  1.7275
  536SOL     OW 1927   1.345   2.258   3.332 -0.0383  0.0737 -0.1295
  536SOL    HW1 1928   1.358   2.356   3.339 -0.1456  0.1940 -1.3759
  536SOL    HW2 1929   1.278   2.228   3.399 -1.6467  1.2001 -1.1712
  537SOL     OW 1930   0.336   5.570   5.429  0.2478  0.1683 -0.2785
  537SOL    HW1 1931   0.413   5.622   5.393 -0.6076  0.7521 -1.3535
  537SOL    HW2 1932   0.359   5.473   5.431  1.0525  0.3475 -0.4670
  538SOL     OW 1933   1.752   1.294   4.713 -0.4453  0.3202 -0.4781
  538SOL    HW1 1934   1.781   1.261   4.802  1.2433  1.0090 -0.7293
  538SOL    HW2 1935   1.813   1.258   4.642  0.5752  2.7133 -0.9077
  539SOL     OW 1936   0.890   1.132   5.262 -0.4327  0.0994  0.2251
  539SOL    HW1 1937   0.943   1.134   5.178  0.3423  3.5730  0.6364
  539SOL    HW2 1938   0.942   1.178   5.335 -2.8637  1.2616  1.3527
  540SOL     OW 1939   1.726   1.940   5.186  0.2081 -0.1015  0.4524
  540SOL    HW1 1940   1.825   1.929   5.181  0.2713 -1.1436  2.6433
  540SOL    HW2 1941   1.685   1.856   5.222 -1.7537 -0.5307 -2.3971
  541SOL     OW 1942   1.307   1.941   4.384  0.7106  0.0492  0.1834
  541SOL    HW1 1943   1.333   2.023   4.435  0.3668  0.2830 -0.0145
  541SOL    HW2 1944   1.214   1.915   4.410  0.5413  0.1611 -0.3152
  542SOL     OW 1945   1.728   2.142   4.315  0.2561  0.1311 -0.0067
  542SOL    HW1 1946   1.669   2.192   4.251  1.1481 -0.6274 -1.4870
  542SOL    HW2 1947   1.822   2.143   4.280  0.2244 -3.0749 -0.4305
  543SOL     OW 1948   2.451   0.701   3.914 -0.0286 -0.0614 -0.4242
  543SOL    HW1 1949   2.428   0.651   3.997 -0.2057 -0.7795 -0.9021
  543SOL    HW2 1950   2.453   0.799   3.934  1.1764 -0.2946  0.7144
  544SOL     OW 1951   0.719   0.346   0.638  0.2759 -0.2411  0.1168
  544SOL    HW1 1952   0.786   0.324   0.709 -0.0461 -2.5836 -0.2209
  544SOL    HW2 1953   0.765   0.355   0.550  0.6188  2.2703  0.4565
  545SOL     OW 1954   0.654   1.868   2.826 -0.3253  0.3827 -0.1092
  545SOL    HW1 1955   0.579   1.861   2.892  0.7048  1.8624  1.3060
  545SOL    HW2 1956   0.741   1.857   2.873  0.4086 -1.9577 -1.8364
  546SOL     OW 1957   0.575   0.378   5.191  0.4993 -0.4175 -0.0221
  546SOL    HW1 1958   0.536   0.438   5.122  1.9961  0.3993 -0.2136
  546SOL    HW2 1959   0.674   0.373   5.178  0.5186 -2.2305  0.5525
  547SOL     OW 1960   1.082   1.398   5.193  0.2270  0.3522 -0.4949
  547SOL    HW1 1961   1.071   1.371   5.288  0.7871 -0.5637 -0.6793
  547SOL    HW2 1962   1.124   1.323   5.141 -2.0370 -0.0193 -1.9529
  548SOL     OW 1963   1.376   0.975   0.497 -0.3466  0.2648  0.1003
  548SOL    HW1 1964   1.412   1.043   0.561  0.7728 -3.1010  3.5051
  548SOL    HW2 1965   1.310   0.917   0.544 -1.3040 -0.9939 -2.6013
  549SOL     OW 1966   0.293   1.734   2.325 -0.0402 -0.3496 -0.6153
  549SOL    HW1 1967   0.301   1.635   2.315  1.0608 -0.4000  0.4827
  549SOL    HW2 1968   0.384   1.775   2.327 -0.4331  0.5310  0.2542
  550SOL     OW 1969   5.344   0.752   4.052  0.2772 -0.4786 -0.2259
  550SOL    HW1 1970   5.378   0.766   3.959  3.3466  0.7662  0.9593
  550SOL    HW2 1971   5.409   0.697   4.103 -1.3361 -1.1057  1.2348
  551SOL     OW 1972   1.733   0.236   3.639  0.3187  0.2390 -0.5400
  551SOL    HW1 1973   1.677   0.200   3.565 -0.4759  0.9823 -0.3172
  551SOL    HW2 1974   1.805   0.170   3.662  0.7803  0.1441 -2.1853
  552SOL     OW 1975   1.298   0.046   4.643  0.4812 -0.2029  0.1282
  552SOL    HW1 1976   1.367  -0.025   4.625 -0.1235 -0.5540 -0.8677
  552SOL    HW2 1977   1.207   0.007   4.629  0.1050  0.5014  0.5859
  553SOL     OW 1978   1.264   5.563   4.188  0.0532 -0.3143  0.0343
  553SOL    HW1 1979   1.350   5.597   4.228 -0.3156  0.1594  0.4398
  553SOL    HW2 1980   1.230   5.487   4.243  0.2443 -0.5422 -0.1621
  554SOL     OW 1981   0.634   1.116   3.414  0.3268 -0.1629 -0.3906
  554SOL    HW1 1982   0.611   1.018   3.414  0.6151 -0.2956 -2.7104
  554SOL    HW2 1983   0.551   1.169   3.429 -0.0552 -0.7600 -0.3545
  555SOL     OW 1984   0.585  -0.001   0.638  0.0891  0.0759 -0.2578
  555SOL    HW1 1985   0.660   0.061   0.613  0.4004  0.1581  0.8245
  555SOL    HW2 1986   0.500   0.051   0.646 -0.3390 -0.1818 -2.5172
  556SOL     OW 1987   2.491   2.233   5.084 -0.0706  0.3424  0.8838
  556SOL    HW1 1988   2.396   2.252   5.059  0.4411  0.3205 -1.2267
  556SOL    HW2 1989   2.553   2.275   5.018  1.4553  0.8556  2.5353
  557SOL     OW 1990   2.067   5.178   0.297 -0.0446 -0.2661  0.0609
  557SOL    HW1 1991   1.969   5.197   0.306  0.0971  0.3140  0.4767
  557SOL    HW2 1992   2.099   5.205   0.207 -0.0006  0.8201  0.3901
  558SOL     OW 1993   2.289   1.053   4.273  0.2177 -0.3528  0.7688
  558SOL    HW1 1994   2.293   1.122   4.345 -1.5905  1.5214 -0.8361
  558SOL    HW2 1995   2.206   0.999   4.283 -0.2086  0.1299 -0.0652
  559SOL     OW 1996   1.340   2.211   4.478  0.2543 -0.1206 -0.3374
  559SOL    HW1 1997   1.419   2.221   4.539 -0.1163 -1.0035  0.3151
  559SOL    HW2 1998   1.262   2.261   4.515 -0.8443 -3.0069  1.5608
  560SOL     OW 1999   0.407   1.119   4.479 -0.0515 -0.4729 -0.1989
  560SOL    HW1 2000   0.315   1.116   4.440  0.6115 -0.9239 -1.8002
  560SOL    HW2 2001   0.408   1.181   4.558 -2.2691 -2.2188  1.3585
  561SOL     OW 2002   0.475   0.311   4.019 -0.0995  0.1432  0.2743
  561SOL    HW1 2003   0.537   0.385   3.992 -0.7246  0.1297 -1.2508
  561SOL    HW2 2004   0.395   0.351   4.066 -0.7503  0.5349 -1.1107
  562SOL     OW 2005   5.196   0.255   0.217 -0.1439 -0.4941 -0.5755
  562SOL    HW1 2006   5.248   0.211   0.143  1.4639  1.1425 -0.4892
  562SOL    HW2 2007   5.177   0.349   0.191 -0.3584 -0.1743  0.7251
  563SOL     OW 2008   4.410   1.073   4.417 -0.3997  0.2486  0.4465
  563SOL    HW1 2009   4.354   1.117   4.488 -0.3099 -0.8557  1.2275
  563SOL    HW2 2010   4.503   1.111   4.420 -0.6147  0.7987  0.3498
  564SOL     OW 2011   0.891   0.082   3.746 -0.3593 -0.4519 -0.2988
  564SOL    HW1 2012   0.820   0.013   3.759 -1.1774  0.2994 -0.6829
  564SOL    HW2 2013   0.897   0.139   3.827 -1.4352  0.5856 -0.9165
  565SOL     OW 2014   2.061   0.039   0.494 -0.2368 -0.1263  0.4778
  565SOL    HW1 2015   2.109  -0.026   0.436 -1.6287 -1.0779  0.3385
  565SOL    HW2 2016   1.978   0.071   0.448  0.3931  1.7536  0.5610
  566SOL     OW 2017   5.472   0.501   0.230 -0.0502 -0.2015  0.3475
  566SOL    HW1 2018   5.494   0.446   0.311  1.2277 -1.3682 -0.7279
  566SOL    HW2 2019   5.373   0.506   0.220 -0.2677  0.4452  2.2619
  567SOL     OW 2020   2.296   5.420   4.320  0.3418  0.0534  0.3887
  567SOL    HW1 2021   2.319   5.478   4.399 -0.7542  0.5162  0.3951
  567SOL    HW2 2022   2.239   5.472   4.257  1.8445 -0.0637 -1.1215
  568SOL     OW 2023   0.978   5.455   0.476  0.0854  0.0689 -0.5404
  568SOL    HW1 2024   0.966   5.405   0.390 -0.0905  0.6506 -0.8537
  568SOL    HW2 2025   0.965   5.392   0.552 -0.3304 -0.3249 -0.9298
  569SOL     OW 2026   0.470   1.359   4.773 -0.6111 -0.4378  0.0416
  569SOL    HW1 2027   0.459   1.422   4.695 -2.0026  0.5347  0.9638
  569SOL    HW2 2028   0.381   1.344   4.816  0.2684 -0.0513  2.1328
  570SOL     OW 2029   1.511   0.562   1.189 -0.7282  0.3955 -0.2766
  570SOL    HW1 2030   1.502   0.559   1.090 -0.8892 -0.3872 -0.2424
  570SOL    HW2 2031   1.542   0.473   1.223 -1.0674  0.5354  0.4155
  571SOL     OW 2032   0.423   0.511   5.015 -0.0915  0.1588 -0.3963
  571SOL    HW1 2033   0.332   0.480   5.044  0.4253 -0.4420  0.6202
  571SOL    HW2 2034   0.414   0.598   4.967 -1.3269 -0.4344 -1.3116
  572SOL     OW 2035   1.899   5.529   4.653  0.0980  0.2731  0.2330
  572SOL    HW1 2036   1.981   5.586   4.661  0.2111  0.3168 -1.0454
  572SOL    HW2 2037   1.900   5.482   4.564 -0.2667 -1.2838  1.0185
  573SOL     OW 2038   0.772   0.394   2.906 -0.3918  0.0443 -0.0915
  573SOL    HW1 2039   0.758   0.309   2.855  0.0573 -0.8484  1.2363
  573SOL    HW2 2040   0.867   0.424   2.894  0.1545 -0.9895  1.3841
  574SOL     OW 2041   1.053   5.016   3.782  0.0362  0.3843 -0.7954
  574SOL    HW1 2042   0.966   5.012   3.831  0.8809  0.4543  0.7885
  574SOL    HW2 2043   1.087   4.923   3.767  0.0431  0.3730 -0.7146
  575SOL     OW 2044   5.536   5.507   5.202  0.1951 -0.4571 -0.4954
  575SOL    HW1 2045   5.455   5.540   5.154 -1.0652 -1.7976  0.6328
  575SOL    HW2 2046   5.554   5.412   5.176 -0.5772 -1.2524  1.6768
  576SOL     OW 2047   0.211   5.163   4.437 -0.2067  0.1257 -0.2525
  576SOL    HW1 2048   0.143   5.146   4.508 -2.4578 -3.3226 -2.9160
  576SOL    HW2 2049   0.177   5.231   4.373  0.3962  0.7944  0.1057
  577SOL     OW 2050   1.812   5.228   0.259 -0.2448 -0.4691  0.3420
  577SOL    HW1 2051   1.745   5.219   0.333  0.3159 -1.8896  0.7118
  577SOL    HW2 2052   1.809   5.321   0.222 -0.2285  0.4102  2.4333
  578SOL     OW 2053   1.702   1.677   5.472 -0.4834 -0.4600  0.1713
  578SOL    HW1 2054   1.687   1.580   5.454 -1.0866 -0.3149 -0.1318
  578SOL    HW2 2055   1.800   1.698   5.462 -0.4298 -0.9223 -0.3153
  579SOL     OW 2056   5.071   1.858   4.546 -0.7802 -0.2833  0.8674
  579SOL    HW1 2057   5.121   1.904   4.472  0.0367 -1.6810  0.5100
  579SOL    HW2 2058   4.976   1.887   4.545 -0.7447 -0.1294 -0.6386
  580SOL     OW 2059   5.082   2.003   4.304 -0.0032 -0.0560  0.1580
  580SOL    HW1 2060   4.990   2.019   4.340 -0.3031 -1.0769 -0.1203
  580SOL    HW2 2061   5.076   1.974   4.209  0.6470  0.3067 -0.0027
  581SOL     OW 2062   0.113   2.809   4.690  0.5383 -0.2211  0.0370
  581SOL    HW1 2063   0.208   2.820   4.663  0.9718 -0.1506  1.4887
  581SOL    HW2 2064   0.096   2.713   4.715  1.0719  0.2674  2.5882
  582SOL     OW 2065   1.665   0.427   0.833  0.6223 -0.3737 -0.3779
  582SOL    HW1 2066   1.716   0.439   0.748  1.4560  0.2567  0.1962
  582SOL    HW2 2067   1.729   0.421   0.910 -0.1735  1.5905  0.5114
  583SOL     OW 2068   0.903   0.928   5.010  0.1143 -0.0647 -0.0359
  583SOL    HW1 2069   0.805   0.907   5.010  0.2274 -0.6374 -0.4477
  583SOL    HW2 2070   0.954   0.850   5.046  0.3569  0.6279  1.1721
  584SOL     OW 2071   5.191   5.572   0.602  0.2444 -0.0624  0.1215
  584SOL    HW1 2072   5.097   5.579   0.635 -0.6481  0.0238 -2.2355
  584SOL    HW2 2073   5.237   5.496   0.649 -0.7374  0.3417  1.8247
  585SOL     OW 2074   1.543   0.673   0.334  0.1658  0.0164 -0.4305
  585SOL    HW1 2075   1.507   0.648   0.424  4.2671 -1.6318  0.9755
  585SOL    HW2 2076   1.550   0.772   0.328 -2.6871  0.3307 -0.1570
  586SOL     OW 2077   0.083   0.026   5.426  0.5155  0.5254 -0.0731
  586SOL    HW1 2078   0.181   0.006   5.420  0.1892 -0.7695 -2.4315
  586SOL    HW2 2079   0.034  -0.030   5.360 -2.5058 -2.5857  4.2852
  587SOL     OW 2080   0.514   5.516   5.026  0.2950 -0.2587 -0.4480
  587SOL    HW1 2081   0.600   5.529   4.976 -0.0281  1.9158 -0.5313
  587SOL    HW2 2082   0.526   5.546   5.121 -0.7710  1.6642 -0.8778
  588SOL     OW 2083   0.541   1.257   5.599  0.4571  0.1266 -0.0133
  588SOL    HW1 2084   0.598   1.307   5.535 -1.3000  0.8268 -1.1179
  588SOL    HW2 2085   0.481   1.195   5.548  0.2644 -0.6302  1.0987
  589SOL     OW 2086   0.544   0.108   5.254 -0.5041 -0.4269  0.3104
  589SOL    HW1 2087   0.533   0.198   5.212  0.0788 -0.7313 -0.5088
  589SOL    HW2 2088   0.642   0.087   5.263 -0.5883 -0.1598  2.2894
  590SOL     OW 2089   2.289   1.212   5.068  0.4255  0.0927 -0.1633
  590SOL    HW1 2090   2.332   1.252   4.987  0.5957  0.5788  0.1605
  590SOL    HW2 2091   2.196   1.248   5.077  0.3872 -0.0033 -0.1741
  591SOL     OW 2092   5.071   0.379   3.128  0.0439 -0.0673 -0.1584
  591SOL    HW1 2093   4.993   0.431   3.092 -0.4896 -0.1390  0.8768
  591SOL    HW2 2094   5.155   0.427   3.105 -0.2218 -0.3465 -1.9211
  592SOL     OW 2095   5.116   0.891   4.052  0.0181  0.3455 -0.4522
  592SOL    HW1 2096   5.204   0.846   4.044  0.2509  0.7651 -0.3090
  592SOL    HW2 2097   5.052   0.833   4.103  0.3205  0.1926 -0.2500
  593SOL     OW 2098   1.554   0.184  -0.010 -0.2722 -0.6040 -0.1955
  593SOL    HW1 2099   1.484   0.202   0.059  0.5405  0.9878  0.2623
  593SOL    HW2 2100   1.599   0.097   0.010 -0.4646 -0.4571  0.9161
  594SOL     OW 2101   1.746   1.084   3.744 -0.0600 -0.2840  0.0248
  594SOL    HW1 2102   1.702   1.111   3.830  1.0658  1.2737  0.1592
  594SOL    HW2 2103   1.830   1.033   3.764  1.3378  1.8747 -0.0289
  595SOL     OW 2104   1.930   1.642   0.645 -0.0520  0.4125  0.0772
  595SOL    HW1 2105   1.952   1.563   0.702 -1.3076  1.1711  1.6950
  595SOL    HW2 2106   1.875   1.707   0.698 -1.3059  1.1497 -2.0168
  596SOL     OW 2107   1.372   1.648   5.243 -0.0663 -0.3146 -0.3227
  596SOL    HW1 2108   1.302   1.587   5.281  0.7483 -2.1407 -1.6010
  596SOL    HW2 2109   1.396   1.718   5.311 -0.3881 -1.9631  1.5913
  597SOL     OW 2110   0.306   0.007   4.864  0.3192  0.3411 -0.2602
  597SOL    HW1 2111   0.320   0.082   4.800  0.6738  0.3432 -0.1821
  597SOL    HW2 2112   0.392  -0.013   4.911 -0.0389  0.6378  0.5341
  598SOL     OW 2113   0.962   1.521   0.286 -0.3632  0.0955 -0.3469
  598SOL    HW1 2114   1.024   1.553   0.215  0.3367  0.9271  0.5979
  598SOL    HW2 2115   0.932   1.598   0.342  1.1307 -0.7553  1.8100
  599SOL     OW 2116   2.507   4.397   4.660 -0.0389  0.1486 -0.2049
  599SOL    HW1 2117   2.452   4.405   4.743  2.9389  0.7173  1.8970
  599SOL    HW2 2118   2.604   4.394   4.685  1.1127  2.0364 -3.7508
  600SOL     OW 2119   0.592   0.825   3.836  0.1800  0.4600  0.2675
  600SOL    HW1 2120   0.652   0.891   3.881  0.2343  0.1457  0.6553
  600SOL    HW2 2121   0.591   0.740   3.888  1.4734 -0.4682 -1.1480
  601SOL     OW 2122   0.642   1.343   5.327  0.2143 -0.0039  0.1153
  601SOL    HW1 2123   0.658   1.245   5.316  2.1796  0.2225  0.5314
  601SOL    HW2 2124   0.697   1.393   5.260 -0.8408  0.8283 -0.1550
  602SOL     OW 2125   0.688   1.051   3.979  0.2772  0.5736 -0.4268
  602SOL    HW1 2126   0.713   1.137   3.934  0.3711  0.2224 -1.0728
  602SOL    HW2 2127   0.633   1.070   4.060  2.1765  1.3555  0.7605
  603SOL     OW 2128   1.398   0.749   4.829  0.7448  0.6241 -0.6590
  603SOL    HW1 2129   1.331   0.816   4.797  0.1640  0.8776  0.9991
  603SOL    HW2 2130   1.463   0.730   4.755 -1.3169  0.0929 -2.4363
  604SOL     OW 2131   0.055   0.521   4.427 -0.5257 -0.7116 -0.5311
  604SOL    HW1 2132   0.087   0.448   4.488  0.9974  1.6395  1.6907
  604SOL    HW2 2133  -0.032   0.557   4.461  0.1185  0.3206  0.0969
  605SOL     OW 2134   1.442   0.627   4.187 -0.7457 -0.6751 -0.2035
  605SOL    HW1 2135   1.380   0.562   4.232 -1.4938  0.4200  0.3805
  605SOL    HW2 2136   1.423   0.628   4.089 -2.9690  0.9368  0.1544
  606SOL     OW 2137   1.989   0.930   3.808  0.3643  0.1314 -0.2495
  606SOL    HW1 2138   2.064   0.950   3.870  2.5489 -0.0809 -2.6717
  606SOL    HW2 2139   1.947   0.842   3.834 -0.7928  1.3830  2.5998
  607SOL     OW 2140   0.225   0.531   0.176 -0.5420 -0.7392 -0.4574
  607SOL    HW1 2141   0.314   0.533   0.131 -0.8036  0.5755 -0.9456
  607SOL    HW2 2142   0.226   0.593   0.255 -1.0257 -0.7178 -0.4649
  608SOL     OW 2143   1.029   0.699   4.600 -0.5460 -0.6334  0.2042
  608SOL    HW1 2144   1.094   0.659   4.535 -0.1192  1.1698 -0.5463
  608SOL    HW2 2145   1.050   0.668   4.692  2.1728  0.7483  0.1498
  609SOL     OW 2146   1.305   0.961   5.248  0.1242 -0.1040 -0.4243
  609SOL    HW1 2147   1.289   1.050   5.290  1.4598 -0.0822  0.0874
  609SOL    HW2 2148   1.370   0.972   5.172  1.4358 -0.8281  0.5610
  610SOL     OW 2149   1.568   0.302   3.857 -0.1198  0.1177 -0.1349
  610SOL    HW1 2150   1.472   0.279   3.871 -0.8044  1.5766 -2.0170
  610SOL    HW2 2151   1.596   0.272   3.766  0.3411  2.2591 -0.7434
  611SOL     OW 2152   1.303   1.901   3.441 -0.2957 -0.1560 -0.3486
  611SOL    HW1 2153   1.364   1.935   3.514  0.6281  0.4942 -1.3881
  611SOL    HW2 2154   1.265   1.813   3.468  1.6505 -0.9195  0.0575
  612SOL     OW 2155   0.063   1.498   4.706 -0.4258 -0.2262 -0.1420
  612SOL    HW1 2156   0.157   1.469   4.688 -0.1481 -1.1255  2.3526
  612SOL    HW2 2157   0.006   1.478   4.626  1.2841 -0.5300 -1.3571
  613SOL     OW 2158   2.316   2.620   4.849 -0.6663  0.0181  0.5719
  613SOL    HW1 2159   2.291   2.579   4.936 -1.3849 -0.7020  0.0350
  613SOL    HW2 2160   2.337   2.548   4.783 -1.5804  0.4949 -0.2696
  614SOL     OW 2161   0.155   1.135   4.401 -1.0748 -0.6021 -0.3201
  614SOL    HW1 2162   0.157   1.230   4.371 -1.2587 -0.6935 -0.6298
  614SOL    HW2 2163   0.081   1.121   4.466 -0.0231 -0.1637  1.0166
  615SOL     OW 2164   0.661   4.527   4.990  0.1106  0.6011  0.1121
  615SOL    HW1 2165   0.614   4.510   5.077  1.9692 -0.3052  1.0105
  615SOL    HW2 2166   0.745   4.473   4.987  0.8342  1.7356 -1.6303
  616SOL     OW 2167   0.893   0.513   4.341 -0.3683 -0.4530 -0.1096
  616SOL    HW1 2168   0.882   0.414   4.353 -3.0499 -0.2879 -0.7330
  616SOL    HW2 2169   0.959   0.547   4.409 -0.3540 -2.4531  0.9625
  617SOL     OW 2170   1.761   0.235   5.001 -0.4269  0.3857 -0.3242
  617SOL    HW1 2171   1.829   0.294   4.959  0.4612  1.4454  2.3673
  617SOL    HW2 2172   1.672   0.282   5.001 -0.3372  0.5558 -0.6292
  618SOL     OW 2173   0.328   2.766   2.847  0.1608 -0.1645 -0.3997
  618SOL    HW1 2174   0.300   2.729   2.935  0.2904 -1.7603 -0.9876
  618SOL    HW2 2175   0.247   2.785   2.792  0.0834  0.7503  0.0088
  619SOL     OW 2176   0.307   1.961   5.101  0.0665  0.0922  0.0406
  619SOL    HW1 2177   0.388   1.953   5.159  0.7641  1.5234 -0.6743
  619SOL    HW2 2178   0.227   1.930   5.151  1.0291 -1.2793  0.7984
  620SOL     OW 2179   0.382   4.763   5.012 -0.3587  0.1322 -0.5758
  620SOL    HW1 2180   0.444   4.705   4.960 -0.4008  0.8597 -1.4468
  620SOL    HW2 2181   0.434   4.832   5.062 -0.2203 -1.2143  1.2462
  621SOL     OW 2182   5.229   0.537   3.416  0.1056 -0.1005  0.3828
  621SOL    HW1 2183   5.153   0.475   3.393  1.0280 -0.4645 -1.8807
  621SOL    HW2 2184   5.290   0.547   3.337  1.2381  1.9333  1.4284
  622SOL     OW 2185   1.702   0.736   5.344 -0.6295  0.5299  0.0236
  622SOL    HW1 2186   1.682   0.769   5.252 -1.3093  0.3714  0.1062
  622SOL    HW2 2187   1.627   0.762   5.405 -0.3208  0.3810  0.4668
  623SOL     OW 2188   0.417   0.193   4.665  0.1551 -0.1606  0.3048
  623SOL    HW1 2189   0.499   0.245   4.642  1.1296 -1.7734 -0.1059
  623SOL    HW2 2190   0.412   0.113   4.605 -0.4300 -1.3695  1.8995
  624SOL     OW 2191   1.193   1.270   4.075 -0.1227  0.0643 -0.5633
  624SOL    HW1 2192   1.169   1.257   3.979  1.9607  0.5462 -1.2101
  624SOL    HW2 2193   1.280   1.223   4.094 -0.6695 -0.3122  1.1875
  625SOL     OW 2194   1.286   1.189   5.408 -0.4040  0.3696  0.0876
  625SOL    HW1 2195   1.327   1.268   5.456 -0.6626  0.3246  0.3839
  625SOL    HW2 2196   1.287   1.110   5.469 -2.2523  0.7329  0.6355
  626SOL     OW 2197   1.844   1.819   0.428  0.0098  0.4991  0.2891
  626SOL    HW1 2198   1.932   1.836   0.384  0.7825  0.0065  1.5853
  626SOL    HW2 2199   1.858   1.764   0.511 -1.6294 -0.4941 -0.0417
  627SOL     OW 2200   2.424   0.158   0.287 -0.0558 -0.5381 -0.5918
  627SOL    HW1 2201   2.516   0.195   0.271  0.1609 -0.9413 -0.3021
  627SOL    HW2 2202   2.357   0.213   0.238  0.1940  0.5959  0.3114
  628SOL     OW 2203   1.413   1.109   4.005  0.0174 -0.3383  0.0562
  628SOL    HW1 2204   1.418   1.135   3.909  0.5592  0.8657  0.3892
  628SOL    HW2 2205   1.505   1.093   4.040 -0.2682 -2.7357 -0.0964
  629SOL     OW 2206   0.672   1.149   5.104  0.1084 -0.2399 -0.1378
  629SOL    HW1 2207   0.636   1.057   5.090  0.6552 -0.4159 -0.3964
  629SOL    HW2 2208   0.756   1.144   5.158 -0.3859  0.1915  0.6870
  630SOL     OW 2209   1.530   0.972   1.816 -0.0901 -0.5247  0.2608
  630SOL    HW1 2210   1.461   0.930   1.756 -1.5347  1.3198  0.5157
  630SOL    HW2 2211   1.614   0.987   1.764 -0.7556 -0.4686 -0.8575
  631SOL     OW 2212   0.949   0.586   4.855  0.0834  0.1178 -0.0795
  631SOL    HW1 2213   0.862   0.541   4.834  0.1931  0.5772 -1.6563
  631SOL    HW2 2214   0.944   0.627   4.946 -0.7927 -1.1631  0.4853
  632SOL     OW 2215   1.223   1.204   3.659 -0.2687 -0.2063 -0.1463
  632SOL    HW1 2216   1.293   1.234   3.724 -0.9694  1.7180 -0.2195
  632SOL    HW2 2217   1.233   1.106   3.642  1.0570 -0.3897  1.4654
  633SOL     OW 2218   2.072   0.466   0.352  0.1749 -0.7436 -0.3680
  633SOL    HW1 2219   2.030   0.380   0.322  1.3645 -1.5361  0.1567
  633SOL    HW2 2220   2.123   0.507   0.276 -2.2935  0.7753 -1.3328
  634SOL     OW 2221   0.237   1.028   4.806  0.0119  0.1446  0.0361
  634SOL    HW1 2222   0.288   0.976   4.737 -0.0311  1.4346 -1.0107
  634SOL    HW2 2223   0.273   1.007   4.897  0.4793 -1.1342 -0.4222
  635SOL     OW 2224   0.372   0.803   3.235 -0.6888  0.3504  0.2033
  635SOL    HW1 2225   0.428   0.832   3.313 -0.7978 -0.5343  0.6283
  635SOL    HW2 2226   0.308   0.733   3.265 -0.5785 -0.1693 -0.7424
  636SOL     OW 2227   0.018   0.767   4.197  0.4722 -0.3221 -0.1897
  636SOL    HW1 2228   0.067   0.751   4.282  2.6486  1.1017 -1.0747
  636SOL    HW2 2229   0.044   0.698   4.129  0.4418 -0.1822 -0.3459
  637SOL     OW 2230   0.874   0.887   3.737  0.0280 -0.3324 -0.4832
  637SOL    HW1 2231   0.958   0.927   3.774 -1.3403  0.8613  1.5816
  637SOL    HW2 2232   0.804   0.959   3.729 -1.0613 -1.4406 -1.3208
  638SOL     OW 2233   0.889   0.619   3.763  0.3643  0.0588 -0.4332
  638SOL    HW1 2234   0.873   0.717   3.774 -0.1676 -0.0141 -0.5451
  638SOL    HW2 2235   0.965   0.605   3.699  0.1209  0.3903 -0.7982
  639SOL     OW 2236   1.461   2.009   4.750  0.3162  0.4216 -0.1954
  639SOL    HW1 2237   1.510   2.062   4.679  1.4359 -1.3774 -0.8353
  639SOL    HW2 2238   1.500   2.031   4.839  1.1421  0.2934 -0.5116
  640SOL     OW 2239   1.064   0.647   3.996  0.1546  0.1071  0.1229
  640SOL    HW1 2240   1.095   0.739   3.970 -1.3755  1.0033  1.3431
  640SOL    HW2 2241   0.971   0.632   3.962 -0.0379 -0.5503  0.9236
  641SOL     OW 2242   0.532   1.530   4.985 -0.1276 -0.0235 -0.5926
  641SOL    HW1 2243   0.471   1.514   5.062 -0.0149 -0.1634 -0.5326
  641SOL    HW2 2244   0.488   1.499   4.901 -1.4492  2.6716 -1.0141
  642SOL     OW 2245   0.964   1.113   4.801 -0.1568 -0.3201 -0.6854
  642SOL    HW1 2246   0.947   1.049   4.876 -0.4711 -0.5383 -0.9362
  642SOL    HW2 2247   0.904   1.193   4.811  1.2112  0.6146  0.3974
  643SOL     OW 2248   2.598   1.019   4.547 -0.0758 -0.2081  0.1722
  643SOL    HW1 2249   2.530   1.093   4.552  0.4110  0.3457 -1.0480
  643SOL    HW2 2250   2.556   0.933   4.576 -1.6009 -0.0700 -1.4767
  644SOL     OW 2251   1.086   0.650   3.579  0.2905 -0.0542 -0.5179
  644SOL    HW1 2252   1.161   0.702   3.621  0.7555 -1.4872  0.5057
  644SOL    HW2 2253   1.046   0.703   3.505  2.2974  0.7659 -1.0739
  645SOL     OW 2254   2.669   1.746   4.524 -0.3362 -0.6359  0.2691
  645SOL    HW1 2255   2.588   1.693   4.499  0.2767 -1.1292 -0.7277
  645SOL    HW2 2256   2.751   1.697   4.496  0.2482  1.2791 -1.6125
  646SOL     OW 2257   1.073   0.054   5.310 -0.1014  0.2530 -0.1362
  646SOL    HW1 2258   1.169   0.027   5.325  0.6492  2.7548 -0.0144
  646SOL    HW2 2259   1.065   0.097   5.220 -1.4141 -1.0185 -0.6617
  647SOL     OW 2260   5.167   1.618   3.573  0.4033 -0.0307 -0.2350
  647SOL    HW1 2261   5.154   1.697   3.513  0.6705 -1.2598 -1.9613
  647SOL    HW2 2262   5.153   1.647   3.668 -0.8736  1.7818 -0.9105
  648SOL     OW 2263   1.206   0.477   4.221 -0.3276  0.1386  0.0565
  648SOL    HW1 2264   1.212   0.406   4.151 -0.5273  1.3596 -1.2337
  648SOL    HW2 2265   1.119   0.525   4.212 -0.7311 -0.2174  1.6954
  649SOL     OW 2266   0.147   5.313   4.036  0.1717  0.1332 -0.7004
  649SOL    HW1 2267   0.049   5.298   4.032  0.4060 -2.6058  0.9641
  649SOL    HW2 2268   0.173   5.338   4.130  1.2801 -1.9477 -0.3860
  650SOL     OW 2269   0.985   1.015   4.274  0.1538  0.3934 -0.3060
  650SOL    HW1 2270   0.982   1.033   4.176 -0.4214  0.4787 -0.2774
  650SOL    HW2 2271   0.968   1.101   4.323  0.1680  0.2969 -0.1324
  651SOL     OW 2272   0.892   0.228   3.963 -0.2373 -0.1107 -0.5341
  651SOL    HW1 2273   0.850   0.315   3.935 -0.7304 -0.3450 -0.5368
  651SOL    HW2 2274   0.971   0.246   4.021 -0.6310  0.3363 -0.1270
  652SOL     OW 2275   2.123   0.257   3.596 -0.1304 -0.4276  0.2411
  652SOL    HW1 2276   2.080   0.184   3.649  1.6130 -1.6159  0.0587
  652SOL    HW2 2277   2.128   0.340   3.652 -0.8247 -0.8469  0.9462
  653SOL     OW 2278   1.127   5.455   3.956  0.0391 -0.4027  0.2740
  653SOL    HW1 2279   1.187   5.384   3.921  0.0935 -0.2998  0.1599
  653SOL    HW2 2280   1.161   5.487   4.045 -1.0039 -1.8338  1.2353
  654SOL     OW 2281   1.151   4.921   4.865  0.3112 -0.1032 -0.7103
  654SOL    HW1 2282   1.077   4.922   4.931 -0.7721  1.2150 -1.8841
  654SOL    HW2 2283   1.229   4.870   4.902 -1.2258 -1.6834  0.4680
  655SOL     OW 2284   5.256   0.798   3.542 -0.4278  0.0745  0.2258
  655SOL    HW1 2285   5.228   0.703   3.525 -0.4264  0.3656 -1.6203
  655SOL    HW2 2286   5.196   0.839   3.610  0.3065 -1.5758  1.9781
  656SOL     OW 2287  -0.024   3.047   4.733 -0.1144  0.1294  0.3368
  656SOL    HW1 2288   0.035   2.966   4.732  0.0239  0.2304 -0.3268
  656SOL    HW2 2289   0.026   3.125   4.770 -0.3717 -0.1754  1.3401
  657SOL     OW 2290   0.058   2.175   0.194 -0.2011 -0.2283 -0.4423
  657SOL    HW1 2291   0.058   2.140   0.288  0.2452  0.2655 -0.2583
  657SOL    HW2 2292   0.011   2.263   0.191  0.0776 -0.0857 -0.6226
  658SOL     OW 2293   5.014   2.042   0.694  0.3342 -0.4459 -0.1819
  658SOL    HW1 2294   5.095   2.052   0.752  1.4830 -1.5310 -1.5256
  658SOL    HW2 2295   4.932   2.059   0.748  1.3234 -1.6661  1.8281
  659SOL     OW 2296   1.318   0.699   0.745  0.3052  0.5999  0.1558
  659SOL    HW1 2297   1.275   0.780   0.784  0.7915  0.8054  0.2716
  659SOL    HW2 2298   1.249   0.645   0.696  0.2098  1.7098 -0.9856
  660SOL     OW 2299   0.345   3.393   2.344 -0.1824 -0.2538  0.1634
  660SOL    HW1 2300   0.436   3.427   2.319 -0.8109  2.4855  1.2335
  660SOL    HW2 2301   0.276   3.446   2.295 -1.2551 -1.7855 -0.0504
  661SOL     OW 2302   1.605   4.205   5.377  0.0199  0.1487 -0.0918
  661SOL    HW1 2303   1.676   4.203   5.447 -1.8931  0.4930  1.9413
  661SOL    HW2 2304   1.563   4.295   5.373 -0.9891 -0.3231 -0.5632
  662SOL     OW 2305   5.450   2.723   0.781 -0.2325 -0.1067 -0.2465
  662SOL    HW1 2306   5.537   2.678   0.802 -1.2782 -1.7080  0.8410
  662SOL    HW2 2307   5.403   2.746   0.865 -0.5252  1.5538 -0.8142
  663SOL     OW 2308   1.014   2.072   5.274  0.1207 -0.2937 -0.3109
  663SOL    HW1 2309   1.000   2.069   5.175 -0.2943 -0.3573 -0.2551
  663SOL    HW2 2310   1.085   2.008   5.301 -0.7607 -1.3355 -0.4066
  664SOL     OW 2311   0.984   3.647   1.285 -0.5433  0.9330 -0.0128
  664SOL    HW1 2312   0.934   3.561   1.297 -0.0115  0.3668 -1.5790
  664SOL    HW2 2313   0.920   3.724   1.293 -1.2682  0.3272  0.1078
  665SOL     OW 2314   1.041   3.240   1.629  0.1431  0.3187 -0.4919
  665SOL    HW1 2315   0.962   3.221   1.687 -0.4115 -0.7377 -1.5489
  665SOL    HW2 2316   1.011   3.259   1.536  1.1835 -2.8985 -1.6164
  666SOL     OW 2317   1.381   2.277   0.014 -0.1247 -0.6355  0.0793
  666SOL    HW1 2318   1.473   2.245   0.036 -0.3091 -0.5654  1.0041
  666SOL    HW2 2319   1.314   2.210   0.045 -0.4025 -0.4934 -0.2104
  667SOL     OW 2320   0.279   3.101   2.877  0.1896  0.2937  0.4342
  667SOL    HW1 2321   0.181   3.099   2.855  0.4493  1.7000 -1.1289
  667SOL    HW2 2322   0.303   3.191   2.915  0.7824 -0.2436  1.3603
  668SOL     OW 2323   0.047   2.418   0.687 -0.0811 -0.0740  0.2533
  668SOL    HW1 2324  -0.052   2.429   0.676 -0.1050  0.0734  0.5997
  668SOL    HW2 2325   0.066   2.329   0.728 -0.1861  0.5943  1.8056
  669SOL     OW 2326   1.315   3.232   1.955  0.4836  0.0659  0.0112
  669SOL    HW1 2327   1.371   3.240   2.037  0.1958  0.0323  0.2117
  669SOL    HW2 2328   1.296   3.136   1.937  0.0541  0.1027  0.2435
  670SOL     OW 2329   0.039   2.096   0.463  0.0652  0.3481 -0.5704
  670SOL    HW1 2330  -0.037   2.125   0.521 -0.5398  1.1503 -1.7353
  670SOL    HW2 2331   0.034   1.998   0.448  0.3319  0.0872  0.8445
  671SOL     OW 2332   0.924   1.833   0.680 -0.2967  0.8441 -0.1550
  671SOL    HW1 2333   0.853   1.903   0.670 -0.0577  1.3639  1.4973
  671SOL    HW2 2334   0.942   1.818   0.777  0.6826 -0.4866 -0.5270
  672SOL     OW 2335   0.644   2.867   0.812 -0.1188  0.1092 -0.0847
  672SOL    HW1 2336   0.600   2.894   0.726 -1.5046 -1.3089  0.1171
  672SOL    HW2 2337   0.689   2.946   0.854  1.2020  0.6942 -2.4363
  673SOL     OW 2338   0.278   3.155   2.424 -0.2826 -0.0147 -0.3180
  673SOL    HW1 2339   0.298   3.238   2.373  0.0851  0.7035  0.9492
  673SOL    HW2 2340   0.195   3.168   2.478 -0.4491 -0.6245 -0.4138
  674SOL     OW 2341   5.593   2.830   0.387 -1.1091 -0.3222 -0.2411
  674SOL    HW1 2342   5.629   2.748   0.431  0.3445 -0.0567 -0.8454
  674SOL    HW2 2343   5.560   2.894   0.456  1.4744  0.2554  0.5691
  675SOL     OW 2344   1.118   2.384   0.574 -0.1862  0.3575  0.6859
  675SOL    HW1 2345   1.022   2.387   0.548  0.1014 -0.5472 -0.5511
  675SOL    HW2 2346   1.133   2.304   0.633  0.0775 -0.4226 -0.3996
  676SOL     OW 2347   0.311   4.128   2.461 -0.5542 -0.0276  0.1877
  676SOL    HW1 2348   0.292   4.188   2.539  0.5877  0.1450  0.3488
  676SOL    HW2 2349   0.381   4.062   2.486  1.0485  1.0821 -1.1549
  677SOL     OW 2350   1.091   3.201   0.027  0.6518 -0.3354  0.1958
  677SOL    HW1 2351   1.067   3.188  -0.069  1.3800  1.2987 -0.2528
  677SOL    HW2 2352   1.049   3.129   0.082 -1.4371 -0.2023 -1.0937
  678SOL     OW 2353   2.062   2.824   1.333  0.2306 -0.3115 -0.6445
  678SOL    HW1 2354   2.006   2.777   1.402  0.1730  0.9510  0.2079
  678SOL    HW2 2355   2.075   2.764   1.254 -2.8350 -0.4841 -1.1497
  679SOL     OW 2356   4.577   2.171   5.199  0.5413  0.4687 -0.9289
  679SOL    HW1 2357   4.575   2.125   5.288  0.3108  2.1377 -0.0392
  679SOL    HW2 2358   4.521   2.119   5.133  0.5566 -0.6801 -0.0687
  680SOL     OW 2359   2.502   2.304   5.335  0.0764 -0.0849 -0.0305
  680SOL    HW1 2360   2.452   2.239   5.393  0.8559  0.9547  1.9094
  680SOL    HW2 2361   2.512   2.266   5.243 -1.7901 -1.5281  0.2931
  681SOL     OW 2362   0.279   5.421   0.919 -0.4951 -0.4973 -0.0689
  681SOL    HW1 2363   0.215   5.472   0.861 -1.1128 -1.0718  0.0960
  681SOL    HW2 2364   0.314   5.342   0.868 -0.5499 -0.6444  0.1219
  682SOL     OW 2365   2.747   2.071   0.893 -0.3006 -0.3046 -0.2600
  682SOL    HW1 2366   2.717   2.024   0.977 -2.1334  0.7764 -0.2617
  682SOL    HW2 2367   2.842   2.048   0.875 -0.6577 -2.7809  0.5821
  683SOL     OW 2368   2.295   2.303   0.742 -0.3806 -0.1168 -0.2287
  683SOL    HW1 2369   2.355   2.269   0.670 -0.4723  0.3626 -0.5386
  683SOL    HW2 2370   2.241   2.380   0.707 -0.5455  0.0150  0.3017
  684SOL     OW 2371   0.923   2.731   1.105 -0.0291  0.4489  0.0435
  684SOL    HW1 2372   0.885   2.661   1.165 -1.0979  1.8059  1.0396
  684SOL    HW2 2373   0.853   2.799   1.085  0.5529  0.5001 -2.0975
  685SOL     OW 2374   0.448   1.981   0.125  0.2462  0.1701 -0.2285
  685SOL    HW1 2375   0.359   1.945   0.151  0.7828 -0.3310  0.9710
  685SOL    HW2 2376   0.515   1.961   0.197  0.9045  2.2662 -0.1920
  686SOL     OW 2377   1.633   2.651   2.457 -0.0066 -0.2032  0.7900
  686SOL    HW1 2378   1.609   2.646   2.554 -0.5575  0.1910  0.6751
  686SOL    HW2 2379   1.554   2.683   2.404  0.5233  0.3320  0.3056
  687SOL     OW 2380   1.539   1.451   0.907  0.0635  0.0220  0.3612
  687SOL    HW1 2381   1.613   1.409   0.854  2.0080  0.7918  2.3084
  687SOL    HW2 2382   1.570   1.465   1.001 -2.9061 -0.4103  1.5035
  688SOL     OW 2383   5.303   3.893   2.136 -0.1223  0.2687  0.1917
  688SOL    HW1 2384   5.344   3.803   2.123  1.4265  0.8133  1.0503
  688SOL    HW2 2385   5.370   3.964   2.115 -1.1167  1.2250  0.1288
  689SOL     OW 2386   1.919   2.940   1.037 -0.1510  0.0031  0.0897
  689SOL    HW1 2387   1.983   2.894   0.975  1.4135 -0.3542  1.8809
  689SOL    HW2 2388   1.868   3.009   0.986 -0.5543 -1.7539 -2.0699
  690SOL     OW 2389   0.853   4.275   0.224  0.0205 -0.2870 -0.1018
  690SOL    HW1 2390   0.928   4.210   0.212 -2.4276 -3.0599 -1.5218
  690SOL    HW2 2391   0.863   4.350   0.158  2.0347 -0.0129  0.4505
  691SOL     OW 2392   0.679   2.626   1.360 -0.3099  0.0616  0.1921
  691SOL    HW1 2393   0.639   2.615   1.269 -2.3349  1.9404  0.7661
  691SOL    HW2 2394   0.616   2.590   1.429 -0.7707  2.3951  1.0833
  692SOL     OW 2395   1.558   2.790   1.429 -0.7737 -0.2994  0.0837
  692SOL    HW1 2396   1.459   2.784   1.441 -1.2290  1.8339 -1.8228
  692SOL    HW2 2397   1.578   2.828   1.338  1.6297  3.1641  1.8162
  693SOL     OW 2398   1.335   4.414   0.952  0.0440  0.0782  0.0408
  693SOL    HW1 2399   1.345   4.318   0.978  0.0876  0.1912  0.4382
  693SOL    HW2 2400   1.305   4.467   1.031 -1.2904  0.1704 -0.4953
  694SOL     OW 2401   0.896   2.309   5.366  0.0167  0.6966  0.0434
  694SOL    HW1 2402   0.928   2.222   5.328 -1.1669  0.8081 -1.3024
  694SOL    HW2 2403   0.835   2.292   5.443  0.3111  0.3534  0.2012
  695SOL     OW 2404   1.846   3.943   5.528  0.0648  0.8296 -0.0170
  695SOL    HW1 2405   1.930   3.940   5.474  1.4995 -0.6963  2.1297
  695SOL    HW2 2406   1.830   4.037   5.559  0.5908  1.2632 -1.0011
  696SOL     OW 2407   0.332   2.787   0.645  0.4342 -0.4493  0.2955
  696SOL    HW1 2408   0.346   2.878   0.682 -1.3853 -0.0593  0.1024
  696SOL    HW2 2409   0.392   2.773   0.566  0.5067  0.7128  0.1258
  697SOL     OW 2410   1.720   2.569   1.534  0.0631  0.1918 -0.4476
  697SOL    HW1 2411   1.657   2.636   1.494  0.6695  0.1612 -1.4714
  697SOL    HW2 2412   1.811   2.611   1.542  0.1034 -0.0261  0.2947
  698SOL     OW 2413   1.981   3.499   2.093 -0.6618  0.2696  0.2944
  698SOL    HW1 2414   2.008   3.499   2.189 -0.3237  2.2592  0.2404
  698SOL    HW2 2415   1.900   3.441   2.081  0.5929 -1.8289  1.3372
  699SOL     OW 2416   5.298   2.625   2.796  0.1098 -0.0299  0.0309
  699SOL    HW1 2417   5.376   2.564   2.805 -0.7656 -1.0648  0.9764
  699SOL    HW2 2418   5.245   2.624   2.881 -0.6617  1.0328 -0.4093
  700SOL     OW 2419   0.600   1.596   0.096 -0.2534 -0.4191  0.0736
  700SOL    HW1 2420   0.672   1.540   0.054 -0.2193  0.1866 -0.6765
  700SOL    HW2 2421   0.571   1.553   0.182 -0.9895 -2.1849 -1.0023
  701SOL     OW 2422   0.043   3.293   2.556  0.3018  0.1495 -0.5274
  701SOL    HW1 2423   0.079   3.229   2.623 -0.1771 -2.3224 -2.4880
  701SOL    HW2 2424   0.004   3.373   2.603  1.1249 -0.8376  1.9943
  702SOL     OW 2425   5.285   2.674   1.255  0.2916  0.6487  0.2921
  702SOL    HW1 2426   5.302   2.753   1.314 -0.7441  1.5652 -0.5968
  702SOL    HW2 2427   5.188   2.650   1.259  0.3124  0.3756 -0.6061
  703SOL     OW 2428   1.556   1.178   0.094  0.0589 -0.8566 -0.0508
  703SOL    HW1 2429   1.496   1.244   0.049  0.3252 -0.8620 -0.4097
  703SOL    HW2 2430   1.627   1.227   0.144 -0.3540 -0.8441  0.5350
  704SOL     OW 2431   2.378   3.153   0.811 -0.0336  0.1323  0.2608
  704SOL    HW1 2432   2.374   3.087   0.886 -1.6846 -0.8948 -0.6593
  704SOL    HW2 2433   2.450   3.126   0.747 -0.3858 -0.5199  0.1324
  705SOL     OW 2434   2.601   2.715   1.100 -0.2443  0.2964  0.0492
  705SOL    HW1 2435   2.528   2.764   1.148 -1.5327 -1.0035 -0.5217
  705SOL    HW2 2436   2.574   2.700   1.005  0.0586 -1.5904  0.2270
  706SOL     OW 2437   4.990   2.628   1.807  0.5357  0.1657  0.1139
  706SOL    HW1 2438   4.955   2.545   1.851  0.6929  0.5696  1.0201
  706SOL    HW2 2439   4.914   2.689   1.786  0.6212  1.1061  2.2124
  707SOL     OW 2440   0.377   3.422   0.802  0.2287  0.1032  0.1655
  707SOL    HW1 2441   0.310   3.396   0.732  0.2102 -0.3212  0.3389
  707SOL    HW2 2442   0.347   3.507   0.847 -0.1246 -0.0103  0.1488
  708SOL     OW 2443   4.461   4.196   0.383  0.6979 -0.1308 -0.3692
  708SOL    HW1 2444   4.544   4.218   0.434  0.0685  2.3897 -0.3022
  708SOL    HW2 2445   4.381   4.215   0.440 -0.0219  2.7380 -2.1333
  709SOL     OW 2446   1.259   3.024   1.345  0.1270 -0.5575 -0.6651
  709SOL    HW1 2447   1.321   2.964   1.295  1.2747  0.6478 -0.7590
  709SOL    HW2 2448   1.179   3.045   1.288  0.9410  0.0068 -1.6210
  710SOL     OW 2449   1.213   2.953   0.802 -0.5372  0.3677  0.1137
  710SOL    HW1 2450   1.260   2.934   0.716 -0.7902 -0.0222  0.0573
  710SOL    HW2 2451   1.126   2.903   0.804  0.0401 -0.6533  1.1177
  711SOL     OW 2452   5.265   4.239   1.002  0.0831  0.4294 -0.1864
  711SOL    HW1 2453   5.306   4.290   0.926  0.7981  2.1256  1.2720
  711SOL    HW2 2454   5.215   4.160   0.966  0.9810  0.7821 -2.3465
  712SOL     OW 2455   2.102   1.457   0.477 -0.3489 -0.0709  0.2258
  712SOL    HW1 2456   2.014   1.487   0.514  0.1319  1.7599 -0.0154
  712SOL    HW2 2457   2.176   1.508   0.520  0.4471 -0.1512 -0.9918
  713SOL     OW 2458   0.872   3.557   2.406 -0.0942 -0.4985  0.6663
  713SOL    HW1 2459   0.909   3.505   2.484 -1.0121  0.1850  1.5844
  713SOL    HW2 2460   0.912   3.522   2.321  2.0339 -0.3037  1.5351
  714SOL     OW 2461   1.315   3.861   5.309  0.5595 -0.0641  0.0963
  714SOL    HW1 2462   1.294   3.959   5.316  1.4364  0.2410 -1.1331
  714SOL    HW2 2463   1.231   3.808   5.322  0.3418  0.7479  2.3583
  715SOL     OW 2464   5.139   2.980   0.941  0.0183 -1.3434  0.3812
  715SOL    HW1 2465   5.083   2.987   0.858  0.2644  0.5564  0.3319
  715SOL    HW2 2466   5.082   2.952   1.018 -0.7169 -0.7594  0.0568
  716SOL     OW 2467   2.797   1.596   0.512 -0.4459 -0.2201 -0.0765
  716SOL    HW1 2468   2.808   1.507   0.555  1.4779 -0.3732 -0.7870
  716SOL    HW2 2469   2.812   1.587   0.413  3.3098  1.3537  0.1865
  717SOL     OW 2470   5.340   3.641   1.089 -0.3538 -0.1631 -0.5795
  717SOL    HW1 2471   5.409   3.711   1.073  0.1151 -0.8544 -1.6435
  717SOL    HW2 2472   5.347   3.609   1.184  1.9085 -1.3917 -1.0894
  718SOL     OW 2473   1.485   1.191   0.630 -0.2416  0.3991 -0.0311
  718SOL    HW1 2474   1.559   1.218   0.691 -0.1676 -0.0170  0.0641
  718SOL    HW2 2475   1.398   1.192   0.679 -0.1663 -0.0491  0.1143
  719SOL     OW 2476   0.087   3.961   0.419  0.0508 -0.1425 -0.3571
  719SOL    HW1 2477   0.138   4.042   0.391  1.6195 -1.4233 -1.3780
  719SOL    HW2 2478   0.112   3.937   0.513  0.6250 -0.2016 -0.5183
  720SOL     OW 2479   5.435   3.551   0.052  0.3221  0.8943  0.4335
  720SOL    HW1 2480   5.475   3.524   0.139 -0.3550 -1.0586  0.1870
  720SOL    HW2 2481   5.382   3.635   0.064  0.4433  0.7952  1.8379
  721SOL     OW 2482   0.310   2.282   0.142  0.0990 -0.3572 -0.0701
  721SOL    HW1 2483   0.217   2.248   0.157  0.0994  0.1607  1.1555
  721SOL    HW2 2484   0.374   2.233   0.201  0.2237  1.1094  1.0498
  722SOL     OW 2485   0.924   2.659   1.545 -0.1601  0.1632 -0.0591
  722SOL    HW1 2486   1.020   2.679   1.525 -0.0307 -0.3467  0.0159
  722SOL    HW2 2487   0.867   2.736   1.518  0.2326  0.3192 -0.4493
  723SOL     OW 2488   1.519   0.199   0.971 -0.2429 -0.3433 -0.1141
  723SOL    HW1 2489   1.601   0.255   0.961  1.1256 -2.5934 -3.6614
  723SOL    HW2 2490   1.444   0.239   0.917 -0.5307  0.0726  0.5785
  724SOL     OW 2491   4.965   2.882   1.137  0.0560  0.0752  0.5129
  724SOL    HW1 2492   4.901   2.837   1.076  1.3382 -0.3043 -0.6028
  724SOL    HW2 2493   4.925   2.967   1.171 -0.2883  0.8588 -1.7254
  725SOL     OW 2494   1.164   3.303   0.791  0.2671 -0.4359  0.3169
  725SOL    HW1 2495   1.148   3.286   0.888  1.6813  0.7455  0.7957
  725SOL    HW2 2496   1.261   3.289   0.771  0.1898  0.3580 -0.6881
  726SOL     OW 2497   1.012   1.861   0.941 -0.3809 -0.0879  0.6581
  726SOL    HW1 2498   0.979   1.868   1.035  0.7788 -0.2846  1.0934
  726SOL    HW2 2499   1.111   1.854   0.941 -0.4733 -2.1320 -0.4773
  727SOL     OW 2500   1.294   1.846   0.959  0.0311  0.5473  0.0834
  727SOL    HW1 2501   1.324   1.786   1.033  1.4073  1.8608  0.6408
  727SOL    HW2 2502   1.352   1.927   0.956 -1.8634  1.9468 -0.5431
  728SOL     OW 2503   1.418   1.381   5.553 -0.7039 -0.0935  0.5847
  728SOL    HW1 2504   1.510   1.393   5.516 -0.1450  0.0869  1.9546
  728SOL    HW2 2505   1.409   1.435   5.637 -2.1430  0.0605  0.3612
  729SOL     OW 2506   1.166   1.642   5.441  0.1590  0.3784 -0.1447
  729SOL    HW1 2507   1.182   1.592   5.526 -0.0898 -1.6124 -1.2238
  729SOL    HW2 2508   1.076   1.618   5.404 -0.0392  1.7671 -0.6283
  730SOL     OW 2509   1.601   2.888   0.126  0.2140 -0.0139  0.4684
  730SOL    HW1 2510   1.652   2.842   0.199  0.3780  0.3431  0.5807
  730SOL    HW2 2511   1.512   2.845   0.115 -0.0165  0.2570  1.2288
  731SOL     OW 2512   0.759   1.523   5.124 -0.5673  0.5225  0.4182
  731SOL    HW1 2513   0.840   1.512   5.066 -1.5772 -1.6845 -0.6884
  731SOL    HW2 2514   0.679   1.544   5.068 -0.9876  1.6460  1.3901
  732SOL     OW 2515   1.439   1.540   0.174  0.3571 -0.0830  0.2121
  732SOL    HW1 2516   1.518   1.601   0.176 -0.7845  1.5039 -0.7179
  732SOL    HW2 2517   1.393   1.542   0.262  2.4114 -2.6203  1.5024
  733SOL     OW 2518   5.248   2.589   1.635 -0.2387  0.1274  0.3200
  733SOL    HW1 2519   5.164   2.594   1.689 -0.4567 -0.3722  0.0395
  733SOL    HW2 2520   5.301   2.673   1.647 -0.2582  0.0015  1.3423
  734SOL     OW 2521   5.210   3.248   1.016  0.1832 -0.1573  0.5402
  734SOL    HW1 2522   5.218   3.220   1.112 -0.2245 -1.7449  0.1362
  734SOL    HW2 2523   5.179   3.170   0.961 -0.0170  0.8503 -0.8166
  735SOL     OW 2524   0.442   3.668   0.507  0.5788 -0.2333 -0.1677
  735SOL    HW1 2525   0.521   3.614   0.477  1.1457 -0.0269  0.9038
  735SOL    HW2 2526   0.456   3.697   0.602 -0.9006 -0.4055  0.1226
  736SOL     OW 2527   1.657   4.092   4.503  0.3009  0.2602 -0.5003
  736SOL    HW1 2528   1.639   4.172   4.561 -0.0854 -1.3199  1.6741
  736SOL    HW2 2529   1.743   4.105   4.454  0.4678  1.8199  0.1558
  737SOL     OW 2530   1.212   1.929   0.641 -0.2460 -0.4206  0.4149
  737SOL    HW1 2531   1.151   1.962   0.570  0.5433 -0.7836 -0.4453
  737SOL    HW2 2532   1.203   1.829   0.649 -2.1787 -0.1591  2.5858
  738SOL     OW 2533   5.388   2.509   0.656  0.2279 -0.7513  0.1446
  738SOL    HW1 2534   5.388   2.607   0.674  2.4947 -0.5633 -0.5964
  738SOL    HW2 2535   5.328   2.489   0.579  0.8190  0.2676 -0.6057
  739SOL     OW 2536   5.153   2.138   2.195 -0.1272  0.6773 -0.2954
  739SOL    HW1 2537   5.205   2.060   2.160 -0.4607  0.2295  0.2044
  739SOL    HW2 2538   5.210   2.221   2.189  0.2974  0.3666 -0.6409
  740SOL     OW 2539   1.762   0.663   1.222 -0.5043 -0.0604 -0.4690
  740SOL    HW1 2540   1.672   0.619   1.217 -0.1911 -0.7559 -0.1401
  740SOL    HW2 2541   1.802   0.666   1.130 -0.3521 -0.8599 -0.4366
  741SOL     OW 2542   0.780   2.044   0.567 -0.7563  0.6228 -0.2956
  741SOL    HW1 2543   0.681   2.036   0.573 -0.6692 -1.2855 -0.7535
  741SOL    HW2 2544   0.812   2.113   0.632 -2.4244  1.8595 -0.7044
  742SOL     OW 2545   1.742   2.592   5.587  0.0644  0.1878  0.2727
  742SOL    HW1 2546   1.701   2.542   5.511  1.3288 -0.6659  0.1343
  742SOL    HW2 2547   1.755   2.688   5.560 -0.0216  0.0227 -0.3680
  743SOL     OW 2548   0.097   3.104   0.568  0.1560  0.0314 -0.1856
  743SOL    HW1 2549   0.009   3.057   0.575  0.0653  0.2832  0.4026
  743SOL    HW2 2550   0.171   3.039   0.582  0.0378  0.0089  0.3432
  744SOL     OW 2551   2.181   3.525   0.968  0.0249  0.2636 -0.4449
  744SOL    HW1 2552   2.197   3.598   1.034  4.9870 -0.6664 -0.1757
  744SOL    HW2 2553   2.269   3.489   0.936 -2.1059 -2.3219 -4.3334
  745SOL     OW 2554   1.314   3.140   5.019 -0.0585  0.5533 -0.4373
  745SOL    HW1 2555   1.373   3.211   4.981 -0.8454  0.8666 -1.1050
  745SOL    HW2 2556   1.360   3.097   5.098 -0.5050  3.3898  1.5283
  746SOL     OW 2557   1.929   2.864   0.053  0.1104  0.1160  0.4169
  746SOL    HW1 2558   1.988   2.944   0.045  0.4110 -0.1388  0.0609
  746SOL    HW2 2559   1.855   2.870  -0.014  0.7495 -0.4233 -0.3472
  747SOL     OW 2560   1.466   3.308   0.859 -0.2901  0.1428  0.0859
  747SOL    HW1 2561   1.471   3.240   0.932  0.8601  0.5563  0.4272
  747SOL    HW2 2562   1.557   3.318   0.817 -0.3692  1.6524  0.2336
  748SOL     OW 2563   0.998   5.595   5.587  0.4848 -0.5519  0.0253
  748SOL    HW1 2564   0.961   5.506   5.561 -0.5542  0.1170 -0.8666
  748SOL    HW2 2565   1.048   5.634   5.509 -0.0652  0.1418  0.0068
  749SOL     OW 2566   1.654   3.356   0.679 -0.4167  0.5856 -0.1169
  749SOL    HW1 2567   1.728   3.304   0.637 -0.7433 -1.0801  1.2817
  749SOL    HW2 2568   1.682   3.452   0.688  0.3476  0.6421 -2.3734
  750SOL     OW 2569   0.271   3.080   0.986 -0.3530 -0.6122 -0.6127
  750SOL    HW1 2570   0.242   3.171   0.955  0.1800 -0.2231 -0.0082
  750SOL    HW2 2571   0.191   3.027   1.011 -0.6052  0.4300  0.9780
  751SOL     OW 2572   2.935   3.663   0.439 -0.7975 -0.4973  0.1861
  751SOL    HW1 2573   2.983   3.744   0.403 -1.8143 -0.3283 -0.8584
  751SOL    HW2 2574   2.996   3.584   0.436  0.3800  0.3138  1.6995
  752SOL     OW 2575   5.393   3.310   0.642  0.8942  0.9012 -0.3740
  752SOL    HW1 2576   5.464   3.343   0.579  0.5669  1.0695 -0.6602
  752SOL    HW2 2577   5.426   3.317   0.736  1.2456  1.0054 -0.5020
  753SOL     OW 2578   5.499   2.944   0.627 -0.0189 -0.2284 -0.5858
  753SOL    HW1 2579   5.423   3.009   0.637 -1.2280 -1.1663 -2.7862
  753SOL    HW2 2580   5.494   2.876   0.700  0.4184  1.2729  0.9137
  754SOL     OW 2581   0.865   0.660   1.627 -0.1648  0.3107  0.0226
  754SOL    HW1 2582   0.895   0.568   1.650 -1.1122 -0.2160 -0.8023
  754SOL    HW2 2583   0.945   0.717   1.608  0.4076 -0.4467  0.1120
  755SOL     OW 2584   1.250   2.215   1.053  0.4486  0.3287  0.4879
  755SOL    HW1 2585   1.212   2.177   1.138  0.1610 -0.3638  0.0572
  755SOL    HW2 2586   1.349   2.221   1.060  0.3663  1.0943  1.1974
  756SOL     OW 2587   5.507   3.992   0.074 -0.2668 -0.1069 -0.1203
  756SOL    HW1 2588   5.586   4.002   0.014 -0.4947  0.1199 -0.3836
  756SOL    HW2 2589   5.538   3.982   0.169  0.0403  2.6414  0.1577
  757SOL     OW 2590   1.552   2.560   1.079 -0.5446 -0.1798 -0.0182
  757SOL    HW1 2591   1.495   2.573   0.998 -0.8403 -0.3016  0.1686
  757SOL    HW2 2592   1.601   2.645   1.100 -2.1779  0.5718  0.9839
  758SOL     OW 2593   1.171   2.166   0.788 -0.3589 -0.4824  0.0183
  758SOL    HW1 2594   1.189   2.079   0.742 -0.0980  0.4460 -1.7226
  758SOL    HW2 2595   1.170   2.152   0.887 -0.7389 -2.5276 -0.2308
  759SOL     OW 2596   5.008   4.359   0.922 -0.0524 -0.0257 -0.0408
  759SOL    HW1 2597   5.104   4.331   0.917  0.3380  1.1840  0.3734
  759SOL    HW2 2598   4.958   4.298   0.983  0.8483  0.3389  1.0973
  760SOL     OW 2599   1.180   3.678   4.165  0.2848 -0.6935  0.0097
  760SOL    HW1 2600   1.180   3.774   4.137  2.0903 -0.1048  1.7736
  760SOL    HW2 2601   1.108   3.629   4.117 -1.5869  1.8304  0.0568
  761SOL     OW 2602   5.023   2.314   0.996  0.0943 -0.4051 -0.1615
  761SOL    HW1 2603   4.945   2.372   1.021 -0.1052 -0.0363 -1.5634
  761SOL    HW2 2604   5.093   2.319   1.068 -0.5159  0.4779  0.3856
  762SOL     OW 2605   2.504   2.599   0.864  0.0638  0.1911  0.3781
  762SOL    HW1 2606   2.445   2.521   0.888 -0.8005  0.1243 -1.7937
  762SOL    HW2 2607   2.448   2.679   0.847  0.8414  0.8834  0.9807
  763SOL     OW 2608   5.572   2.466   1.081  0.0548 -0.3849 -0.6632
  763SOL    HW1 2609   5.535   2.460   1.174  0.3871 -0.7094 -0.5474
  763SOL    HW2 2610   5.505   2.507   1.020  0.1847  0.7616 -0.0711
  764SOL     OW 2611   1.440   2.483   0.249  0.0314  0.1347  0.2501
  764SOL    HW1 2612   1.373   2.547   0.288  0.6496  0.5041  0.7146
  764SOL    HW2 2613   1.395   2.395   0.231 -1.3174  1.1755 -2.0689
  765SOL     OW 2614   1.378   4.154   0.992  0.6170  0.2523 -0.2187
  765SOL    HW1 2615   1.289   4.112   1.008  0.6610 -0.5538 -1.9137
  765SOL    HW2 2616   1.446   4.114   1.054 -0.2215  1.0892  1.2930
  766SOL     OW 2617   0.451   2.235   0.708 -0.2976 -0.3129  0.1144
  766SOL    HW1 2618   0.454   2.327   0.670  1.6852  0.0104  0.9459
  766SOL    HW2 2619   0.461   2.168   0.634 -1.0934  0.1452 -0.4177
  767SOL     OW 2620   2.426   2.675   1.863 -0.0295 -0.6987 -0.3315
  767SOL    HW1 2621   2.353   2.739   1.840  1.7365  1.2754 -0.7656
  767SOL    HW2 2622   2.510   2.702   1.815  0.8631 -3.2628 -0.3806
  768SOL     OW 2623   0.516   2.518   1.546  0.0874  0.7517  0.7255
  768SOL    HW1 2624   0.490   2.476   1.633  1.1332 -2.9291 -0.5728
  768SOL    HW2 2625   0.437   2.519   1.484 -0.2930  2.1105  1.1877
  769SOL     OW 2626   5.440   2.713   1.857 -0.1090  0.5149  0.3801
  769SOL    HW1 2627   5.344   2.723   1.885  0.1373  1.4264  0.9422
  769SOL    HW2 2628   5.490   2.661   1.926  0.0133  0.8927  0.5815
  770SOL     OW 2629   0.368   2.072   1.651 -0.3009  0.1387 -0.4230
  770SOL    HW1 2630   0.361   2.128   1.569 -0.8457 -0.8600 -1.0718
  770SOL    HW2 2631   0.354   2.130   1.732 -0.0804  1.0703 -1.0333
  771SOL     OW 2632   0.923   3.153   0.733 -0.3289 -0.5578 -0.1749
  771SOL    HW1 2633   1.002   3.204   0.765  0.6778 -1.4563 -1.1303
  771SOL    HW2 2634   0.898   3.184   0.641  0.1153 -1.5446 -0.6512
  772SOL     OW 2635   0.618   2.415   0.134  0.3282  0.0184 -0.0292
  772SOL    HW1 2636   0.712   2.434   0.161  0.4819 -0.5496 -0.1523
  772SOL    HW2 2637   0.570   2.502   0.116  1.4855  0.2888 -2.2176
  773SOL     OW 2638   0.750   2.115   1.294  0.2822 -0.5736 -0.5937
  773SOL    HW1 2639   0.796   2.042   1.243  1.0478  0.0994 -0.8975
  773SOL    HW2 2640   0.806   2.141   1.373  1.5496  1.6737 -2.0938
  774SOL     OW 2641   0.564   2.646   2.028 -0.0164 -0.5082  0.0758
  774SOL    HW1 2642   0.563   2.697   1.942  0.6899  0.6951  0.7484
  774SOL    HW2 2643   0.479   2.663   2.078  0.1539 -0.0997  0.2305
  775SOL     OW 2644   1.177   2.344   1.350  0.2801  0.0794  0.7304
  775SOL    HW1 2645   1.098   2.401   1.329 -0.3646 -1.0575  0.0008
  775SOL    HW2 2646   1.261   2.392   1.321 -0.4200 -0.5260 -2.7132
  776SOL     OW 2647   2.459   3.806   2.522  0.1327 -0.2022  0.2383
  776SOL    HW1 2648   2.477   3.896   2.482  0.8918  0.1815  1.4099
  776SOL    HW2 2649   2.391   3.815   2.595 -2.2384 -1.0926 -1.7217
  777SOL     OW 2650   0.405   1.819   0.840 -0.3935 -0.3846 -0.3479
  777SOL    HW1 2651   0.343   1.742   0.854 -1.4436  0.2815 -1.1263
  777SOL    HW2 2652   0.353   1.898   0.806  0.6235  0.7150  0.5480
  778SOL     OW 2653   1.596   1.371   0.449  0.3099 -0.4060 -0.0216
  778SOL    HW1 2654   1.545   1.325   0.521 -1.4512  0.7682 -0.4662
  778SOL    HW2 2655   1.606   1.468   0.473  1.1011 -0.3311 -0.6289
  779SOL     OW 2656   1.711   1.274   0.795  0.2600 -0.0525 -0.4408
  779SOL    HW1 2657   1.789   1.304   0.740 -0.2905  1.3262 -0.5080
  779SOL    HW2 2658   1.722   1.177   0.818  2.1745  0.1853 -0.1397
  780SOL     OW 2659   5.280   4.024   2.969 -0.0928 -0.4301  0.8236
  780SOL    HW1 2660   5.373   4.014   2.934 -0.1764  1.0491  0.0935
  780SOL    HW2 2661   5.284   4.065   3.061 -0.0125 -0.4068  0.8102
  781SOL     OW 2662   1.896   3.077   1.266  0.0123 -0.1250 -0.0335
  781SOL    HW1 2663   1.947   3.057   1.350 -2.4485  0.0298  1.6086
  781SOL    HW2 2664   1.930   3.020   1.191  3.5867  1.0880  0.4711
  782SOL     OW 2665   0.406   3.219   1.830 -0.0867  0.0110 -0.0720
  782SOL    HW1 2666   0.370   3.312   1.833  3.2210  1.4557 -0.3761
  782SOL    HW2 2667   0.421   3.186   1.923 -2.3106 -0.7572  0.0696
  783SOL     OW 2668   1.957   2.488   0.591  0.0037  0.5078  0.1086
  783SOL    HW1 2669   2.056   2.503   0.595  0.2426 -0.8853 -0.1301
  783SOL    HW2 2670   1.935   2.397   0.628 -0.6100 -1.3762 -4.3200
  784SOL     OW 2671   1.659   2.630   0.237  0.3448  0.2210 -0.0087
  784SOL    HW1 2672   1.570   2.585   0.239 -0.7655  2.2947 -0.3837
  784SOL    HW2 2673   1.706   2.607   0.152 -0.0257 -0.5148 -0.0227
  785SOL     OW 2674   2.672   2.998   0.905 -0.4895  0.6396 -0.8670
  785SOL    HW1 2675   2.636   3.009   0.813 -0.5049  1.1509 -0.8042
  785SOL    HW2 2676   2.597   3.003   0.971 -0.3660  1.2678 -0.7650
  786SOL     OW 2677   4.835   1.648   0.236 -0.2094 -0.0280  0.3133
  786SOL    HW1 2678   4.834   1.747   0.242  0.3137 -0.1157  2.2308
  786SOL    HW2 2679   4.805   1.608   0.322 -0.2429 -1.5483 -0.3637
  787SOL     OW 2680   5.082   2.207   5.103  0.0998  0.0145  0.3191
  787SOL    HW1 2681   4.993   2.219   5.147 -0.7959 -2.8094 -0.5146
  787SOL    HW2 2682   5.144   2.158   5.164 -0.0919 -1.0736 -0.3331
  788SOL     OW 2683   5.418   2.144   0.650 -0.2779  0.0633 -0.2374
  788SOL    HW1 2684   5.433   2.136   0.748  1.1373 -0.0812 -0.4477
  788SOL    HW2 2685   5.392   2.054   0.613 -1.4725  0.2573  0.0876
  789SOL     OW 2686   2.151   3.650   1.948  0.3073 -0.0977  0.1713
  789SOL    HW1 2687   2.106   3.722   1.896  0.4659 -0.5760 -0.6365
  789SOL    HW2 2688   2.083   3.597   1.999 -0.3869 -2.2066 -2.7280
  790SOL     OW 2689   5.085   3.363   1.320  0.4727  0.9356  0.5280
  790SOL    HW1 2690   5.175   3.402   1.343  0.6880  0.1383  1.0869
  790SOL    HW2 2691   5.071   3.279   1.372  1.3495 -1.4743 -2.7640
  791SOL     OW 2692   5.484   4.611   5.362 -0.1389 -0.0435 -0.0525
  791SOL    HW1 2693   5.578   4.646   5.365  0.5993 -1.7566 -1.3486
  791SOL    HW2 2694   5.471   4.545   5.436  0.7823 -2.2193 -1.7300
  792SOL     OW 2695   0.099   3.735   4.789 -0.3683  0.3772 -0.3413
  792SOL    HW1 2696   0.043   3.794   4.846  1.0481  2.5121 -1.0370
  792SOL    HW2 2697   0.096   3.766   4.694  0.1585 -0.8733 -0.7915
  793SOL     OW 2698   0.316   3.663   0.942  0.4376 -0.2003 -0.3298
  793SOL    HW1 2699   0.218   3.645   0.948  0.7920 -2.3971 -0.1831
  793SOL    HW2 2700   0.359   3.647   1.031  0.9293  0.9320 -0.3386
  794SOL     OW 2701   0.602   3.436   1.004 -0.0538 -0.2099  0.2259
  794SOL    HW1 2702   0.694   3.475   1.005 -0.1535  0.0283  0.4933
  794SOL    HW2 2703   0.573   3.420   0.909 -0.4784  1.5181  0.0262
  795SOL     OW 2704   0.025   2.675   2.994 -0.6571 -0.5270  0.4310
  795SOL    HW1 2705   0.115   2.696   3.033 -0.1002 -1.1596 -0.4692
  795SOL    HW2 2706   0.025   2.581   2.961 -1.7819 -0.6481  0.7604
  796SOL     OW 2707   1.019   1.447   0.584  0.1040  0.1619  0.1588
  796SOL    HW1 2708   0.956   1.460   0.508 -0.1394 -0.6984  0.2151
  796SOL    HW2 2709   0.968   1.435   0.669  0.3296 -0.6400  0.1894
  797SOL     OW 2710   0.075   2.580   0.471  0.5615 -0.1233 -0.2018
  797SOL    HW1 2711   0.054   2.524   0.551  1.5922  0.5061  0.5302
  797SOL    HW2 2712   0.174   2.576   0.453  0.7041  1.6825  0.0472
  798SOL     OW 2713   5.559   2.424   0.255 -0.1527 -0.2274  0.2584
  798SOL    HW1 2714   5.461   2.436   0.272  0.0278  1.6127  0.1204
  798SOL    HW2 2715   5.611   2.483   0.315  0.7292  1.4372 -2.0009
  799SOL     OW 2716   1.591   4.587   1.777  0.4456 -0.4426  0.3413
  799SOL    HW1 2717   1.570   4.611   1.682  1.4238 -0.9685 -0.0203
  799SOL    HW2 2718   1.686   4.559   1.784  0.6822  0.6035  1.6848
  800SOL     OW 2719   0.245   3.322   0.542 -0.7592 -0.2039 -0.1978
  800SOL    HW1 2720   0.304   3.309   0.463  0.8514 -0.4274  1.0084
  800SOL    HW2 2721   0.180   3.246   0.548 -1.2337  0.0558 -1.5398
  801SOL     OW 2722   1.423   2.488   1.341  0.2039  0.0612  0.0906
  801SOL    HW1 2723   1.423   2.535   1.253 -1.3575 -0.4393 -0.2116
  801SOL    HW2 2724   1.506   2.433   1.350  0.1366 -0.3100 -1.3171
  802SOL     OW 2725   1.141   0.822   0.353  0.3195 -0.7189 -0.1570
  802SOL    HW1 2726   1.043   0.844   0.346  0.1760 -1.7354 -2.3867
  802SOL    HW2 2727   1.162   0.747   0.290  2.0901 -2.2332  2.1084
  803SOL     OW 2728   0.884   2.868   0.617  0.3969 -0.2884  0.5596
  803SOL    HW1 2729   0.932   2.939   0.667  0.3941 -0.8630  1.4039
  803SOL    HW2 2730   0.905   2.779   0.657  0.6606 -0.8068 -0.6843
  804SOL     OW 2731   1.967   2.894   0.592 -0.4661  0.4934  0.2079
  804SOL    HW1 2732   2.066   2.911   0.585 -0.3060 -0.0426  1.0881
  804SOL    HW2 2733   1.933   2.863   0.503  0.4152 -0.6135  0.2324
  805SOL     OW 2734   2.020   3.797   1.771 -0.9305 -0.3235 -0.6407
  805SOL    HW1 2735   1.923   3.815   1.787 -0.7361  0.3763 -0.2055
  805SOL    HW2 2736   2.046   3.830   1.680 -0.9336  0.2122 -0.4543
  806SOL     OW 2737   1.687   2.798   1.097  0.4310  0.3496 -0.6987
  806SOL    HW1 2738   1.642   2.876   1.140 -0.5750 -0.9516  0.7450
  806SOL    HW2 2739   1.781   2.821   1.075  0.1343  1.9773 -0.3506
  807SOL     OW 2740   1.711   2.675   0.592  0.3203  0.3496  0.0059
  807SOL    HW1 2741   1.792   2.635   0.549 -0.0677 -0.6217  0.1587
  807SOL    HW2 2742   1.730   2.770   0.618  0.9028  0.6404 -1.3716
  808SOL     OW 2743   0.303   4.358   3.343 -0.5323 -0.3483  0.7237
  808SOL    HW1 2744   0.208   4.355   3.314 -0.5415  0.8280  0.5990
  808SOL    HW2 2745   0.353   4.283   3.300 -1.0806 -0.0853 -0.3913
  809SOL     OW 2746   1.277   2.594   0.529 -0.0919  0.0183  0.0194
  809SOL    HW1 2747   1.225   2.512   0.556 -0.2137  0.8077  2.3672
  809SOL    HW2 2748   1.374   2.577   0.541 -0.1203  0.2280  0.5548
  810SOL     OW 2749   1.278   1.542   0.917  0.1324 -0.2456  0.1359
  810SOL    HW1 2750   1.362   1.490   0.909  0.7624  0.8591 -0.7506
  810SOL    HW2 2751   1.271   1.581   1.009 -0.2237 -1.6427  0.7221
  811SOL     OW 2752   1.188   3.122   1.008  0.8421  0.1141  0.2476
  811SOL    HW1 2753   1.273   3.123   1.060  2.0175 -2.3449 -1.4048
  811SOL    HW2 2754   1.206   3.088   0.915 -1.8927 -0.1700 -0.2828
  812SOL     OW 2755   5.352   3.770   2.596  0.1027  0.1097 -0.3191
  812SOL    HW1 2756   5.332   3.818   2.511  0.6788 -1.5560 -1.4487
  812SOL    HW2 2757   5.442   3.799   2.631  0.2885  0.1259 -0.8058
  813SOL     OW 2758   1.176   1.914   0.204  0.4925 -0.0381 -0.0282
  813SOL    HW1 2759   1.271   1.945   0.194 -0.0233  1.2730 -1.2059
  813SOL    HW2 2760   1.117   1.970   0.147 -1.0566 -0.6078  0.9614
  814SOL     OW 2761   0.623   3.237   1.204  0.2632 -0.0665  0.5210
  814SOL    HW1 2762   0.710   3.278   1.230 -0.5297  1.1974  1.3263
  814SOL    HW2 2763   0.578   3.294   1.136  1.1507 -2.0224 -1.8544
  815SOL     OW 2764   0.582   3.044   0.311  0.1311 -0.7863 -0.4144
  815SOL    HW1 2765   0.561   3.019   0.216  0.1956 -0.2351 -0.5806
  815SOL    HW2 2766   0.585   3.144   0.319 -0.2972 -0.8249  0.2650
  816SOL     OW 2767   0.252   3.043   1.506 -0.2706  0.4077  0.4484
  816SOL    HW1 2768   0.316   3.004   1.571  0.2069 -0.4019 -0.4797
  816SOL    HW2 2769   0.296   3.049   1.416 -0.4326  2.7895  0.4693
  817SOL     OW 2770   1.397   1.678   2.261 -0.1776 -0.2813  0.4142
  817SOL    HW1 2771   1.483   1.714   2.225  0.7591 -0.0774  2.6445
  817SOL    HW2 2772   1.400   1.578   2.260  0.1953 -0.2747  0.7110
  818SOL     OW 2773   5.125   1.619   0.746 -0.3969 -0.0169  0.0269
  818SOL    HW1 2774   5.103   1.544   0.684  1.7499 -0.8170  0.1643
  818SOL    HW2 2775   5.101   1.706   0.703  0.7508 -0.5750 -1.8374
  819SOL     OW 2776   1.967   2.504   0.900  0.0243  0.0543  0.0467
  819SOL    HW1 2777   1.953   2.423   0.957  0.2885  0.0282  0.0738
  819SOL    HW2 2778   1.953   2.480   0.804 -0.9828  0.2240  0.1384
  820SOL     OW 2779   1.775   2.612   5.182  0.0896 -0.3023  0.3461
  820SOL    HW1 2780   1.723   2.581   5.261 -1.1182 -1.4260 -0.8455
  820SOL    HW2 2781   1.873   2.596   5.199 -0.1789 -0.9070  1.4374
  821SOL     OW 2782   0.881   3.197   0.453 -0.6634 -0.2153 -0.3572
  821SOL    HW1 2783   0.783   3.213   0.466 -0.9922 -0.4772 -2.1980
  821SOL    HW2 2784   0.897   3.166   0.359  0.9364 -2.3530  0.5498
  822SOL     OW 2785   1.421   3.461   5.411  0.4621  0.0966 -0.0931
  822SOL    HW1 2786   1.385   3.386   5.467  2.5041 -1.5835 -0.8886
  822SOL    HW2 2787   1.356   3.483   5.338  0.1122 -1.3756 -0.2524
  823SOL     OW 2788   0.524   2.561   1.136  0.1014 -0.3072  0.3438
  823SOL    HW1 2789   0.425   2.571   1.137  0.0490 -0.2744 -1.3607
  823SOL    HW2 2790   0.558   2.574   1.042  1.4684 -2.7480  0.4158
  824SOL     OW 2791   0.641   2.917   2.083 -0.3514  0.3724 -0.0029
  824SOL    HW1 2792   0.675   2.926   2.177 -2.2339  2.0158  0.6065
  824SOL    HW2 2793   0.646   2.822   2.054  1.4427  0.0286  1.2785
  825SOL     OW 2794   0.502   2.389   0.487  0.0758  0.1328  0.0496
  825SOL    HW1 2795   0.508   2.308   0.430  0.2653  1.1061 -1.3532
  825SOL    HW2 2796   0.422   2.443   0.461  0.9772  1.3320 -0.3230
  826SOL     OW 2797   5.479   1.333   1.564  0.2693  0.2953 -0.4397
  826SOL    HW1 2798   5.427   1.258   1.522 -0.6730  1.4105 -1.3358
  826SOL    HW2 2799   5.416   1.401   1.601  1.1045  0.2366  1.1777
  827SOL     OW 2800   0.424   3.309   0.317  0.0485 -0.3616 -0.0282
  827SOL    HW1 2801   0.385   3.248   0.248  0.7502  0.2646 -1.0067
  827SOL    HW2 2802   0.420   3.403   0.284  1.1825 -0.1461  0.4038
  828SOL     OW 2803   1.184   1.275   1.385  0.6005  0.3476  0.4077
  828SOL    HW1 2804   1.092   1.256   1.350  0.0831 -0.9058  2.3191
  828SOL    HW2 2805   1.250   1.263   1.311 -0.7880  1.9669 -1.1971
  829SOL     OW 2806   5.468   3.074   4.493 -0.5876  0.0636 -0.1450
  829SOL    HW1 2807   5.463   3.173   4.486  2.5185  0.2973 -0.3694
  829SOL    HW2 2808   5.503   3.049   4.584  2.3244 -0.5348 -1.3330
  830SOL     OW 2809   5.042   3.370   2.523  0.1530 -0.3785  0.6446
  830SOL    HW1 2810   4.987   3.454   2.517  0.0426 -0.5453 -1.3400
  830SOL    HW2 2811   5.117   3.375   2.458  0.5013 -1.5808  0.9351
  831SOL     OW 2812   5.299   2.080   3.421  0.7338  0.4549 -0.5868
  831SOL    HW1 2813   5.254   2.170   3.415 -0.2324 -0.0017 -0.3501
  831SOL    HW2 2814   5.235   2.013   3.458  0.2440 -1.1592 -4.0107
  832SOL     OW 2815   0.180   0.728   0.383  0.0166 -0.1861 -0.8979
  832SOL    HW1 2816   0.191   0.808   0.324 -0.3211  0.0297 -0.6649
  832SOL    HW2 2817   0.092   0.731   0.429  0.8145  0.3444  0.6625
  833SOL     OW 2818   1.859   2.806   0.366  0.4851 -0.4884 -0.3020
  833SOL    HW1 2819   1.898   2.864   0.294  0.5845 -1.3921 -0.9987
  833SOL    HW2 2820   1.771   2.771   0.337 -2.2382  3.4253  2.1833
  834SOL     OW 2821   0.914   0.866   5.373  0.1564 -0.2650 -0.4934
  834SOL    HW1 2822   0.901   0.803   5.296 -3.0290 -0.9450  0.4109
  834SOL    HW2 2823   0.896   0.960   5.343  1.6742 -0.1582 -1.1332
  835SOL     OW 2824   0.710   2.579   0.477 -0.0854  0.0578 -0.5348
  835SOL    HW1 2825   0.682   2.674   0.487  1.2115  0.5587 -1.3816
  835SOL    HW2 2826   0.629   2.520   0.475 -0.8537  0.9555  1.5014
  836SOL     OW 2827   0.638   3.229   1.605  0.3768 -0.1578  0.0713
  836SOL    HW1 2828   0.637   3.320   1.565 -0.1567 -0.8771 -1.6772
  836SOL    HW2 2829   0.729   3.209   1.641  0.2730  1.3425  1.2277
  837SOL     OW 2830   1.187   3.465   0.060  0.6406  0.1494 -0.7092
  837SOL    HW1 2831   1.142   3.379   0.084 -0.0893  0.1936 -1.8834
  837SOL    HW2 2832   1.267   3.478   0.119 -0.6209 -0.1159  1.1513
  838SOL     OW 2833   0.798   1.461   2.378 -0.0806  0.2685 -0.6406
  838SOL    HW1 2834   0.894   1.479   2.359 -0.1326 -0.0905 -1.2668
  838SOL    HW2 2835   0.741   1.505   2.309 -0.3435  0.1140 -0.5241
  839SOL     OW 2836   1.497   3.654   1.223  1.0639 -0.0266  0.5438
  839SOL    HW1 2837   1.577   3.710   1.241  0.7763 -0.2200  2.7250
  839SOL    HW2 2838   1.417   3.695   1.267  0.8118 -1.9630  2.0382
  840SOL     OW 2839   5.343   2.422   0.902  0.0786 -0.2394  0.1637
  840SOL    HW1 2840   5.353   2.422   0.802  0.8055 -1.7583  0.2079
  840SOL    HW2 2841   5.259   2.469   0.927 -0.6116 -0.6703 -1.2284
  841SOL     OW 2842   1.884   2.080   0.897  0.4679  0.2640  0.5522
  841SOL    HW1 2843   1.981   2.058   0.886  0.2764 -0.6740  0.6563
  841SOL    HW2 2844   1.829   1.998   0.877 -0.1686 -0.0422  3.1953
  842SOL     OW 2845   0.310   2.506   0.337 -0.4490  0.0652  0.0357
  842SOL    HW1 2846   0.308   2.439   0.263 -0.2048 -0.3254  0.3818
  842SOL    HW2 2847   0.372   2.581   0.313  1.1817 -1.0381  0.6826
  843SOL     OW 2848   1.069   2.103   5.592  0.0286  0.2491  0.7053
  843SOL    HW1 2849   0.971   2.118   5.584  0.2477  1.3322 -0.3268
  843SOL    HW2 2850   1.100   2.041   5.520  0.1293  0.0427  0.9248
  844SOL     OW 2851   2.831   2.748   1.226  0.2872  0.2578  0.1916
  844SOL    HW1 2852   2.897   2.743   1.151 -0.3217  1.1570 -0.4259
  844SOL    HW2 2853   2.739   2.732   1.190  0.2154 -1.8791  1.1807
  845SOL     OW 2854   2.124   2.066  -0.003  0.3439 -0.3586  0.1734
  845SOL    HW1 2855   2.198   2.066  -0.070 -0.5275  1.3572 -0.8627
  845SOL    HW2 2856   2.151   2.119   0.077  0.4453 -0.2434  0.0628
  846SOL     OW 2857   1.429   3.083   3.573  0.0208  0.1923  0.6637
  846SOL    HW1 2858   1.510   3.077   3.631  0.9990  1.0039 -0.5615
  846SOL    HW2 2859   1.411   3.179   3.550 -1.1817  0.0009  0.7683
  847SOL     OW 2860  -0.000   3.553   0.273  0.2219 -0.5431  0.3629
  847SOL    HW1 2861   0.085   3.605   0.268  0.6826 -1.3575 -1.7143
  847SOL    HW2 2862   0.021   3.455   0.274 -0.6072 -0.8531 -2.3239
  848SOL     OW 2863   4.989   1.787   0.579  0.3559  0.9052 -0.3111
  848SOL    HW1 2864   5.045   1.763   0.500 -1.6028 -0.8890 -1.2400
  848SOL    HW2 2865   5.004   1.883   0.602  2.4159  0.9553 -1.6261
  849SOL     OW 2866   1.729   2.286   1.701  0.0804  0.4454  0.2173
  849SOL    HW1 2867   1.803   2.348   1.674  1.0871 -0.3575  1.0484
  849SOL    HW2 2868   1.718   2.289   1.800  1.8453 -2.4683  0.5997
  850SOL     OW 2869   2.073   3.851   0.499 -0.3945 -0.1376  0.7726
  850SOL    HW1 2870   2.094   3.949   0.494  1.7905 -0.6433 -2.0293
  850SOL    HW2 2871   1.980   3.835   0.464  0.1552  0.7412 -1.2409
  851SOL     OW 2872   4.848   3.253   2.190 -0.6866  0.0418 -0.3967
  851SOL    HW1 2873   4.841   3.155   2.209 -1.0200 -0.1630 -1.5304
  851SOL    HW2 2874   4.783   3.303   2.248  0.9619 -0.1620  1.7660
  852SOL     OW 2875   0.339   3.043   0.721 -0.1757 -0.5037 -0.3272
  852SOL    HW1 2876   0.423   3.097   0.713  0.6207 -1.7506 -0.6683
  852SOL    HW2 2877   0.303   3.050   0.814 -0.4922  1.1606 -0.5452
  853SOL     OW 2878   0.020   3.025   1.624  0.0462 -0.0063  0.3389
  853SOL    HW1 2879   0.008   2.926   1.624  0.3932 -0.1659 -2.9058
  853SOL    HW2 2880   0.113   3.047   1.594 -0.7587  1.2426 -1.4442
  854SOL     OW 2881   1.207   2.655   1.725  0.1714 -0.5848  0.1304
  854SOL    HW1 2882   1.142   2.667   1.650 -1.4090 -0.8595  1.3888
  854SOL    HW2 2883   1.291   2.615   1.690 -0.7639 -1.3145 -1.3988
  855SOL     OW 2884   0.686   3.549   0.176  0.2892 -0.2685 -0.3376
  855SOL    HW1 2885   0.717   3.552   0.082 -1.2155  1.4597 -0.8420
  855SOL    HW2 2886   0.586   3.544   0.178  0.3582 -1.8758  1.1880
  856SOL     OW 2887   1.738   4.686   1.471 -0.4458  0.3901  0.0819
  856SOL    HW1 2888   1.640   4.675   1.489 -0.7883  1.3389 -1.0794
  856SOL    HW2 2889   1.767   4.777   1.503 -0.2469  0.6232 -0.7388
  857SOL     OW 2890   4.608   2.068   2.273 -0.3752  0.5483  0.1012
  857SOL    HW1 2891   4.685   2.042   2.214 -1.0139 -1.4927  0.1252
  857SOL    HW2 2892   4.600   2.168   2.273  2.3990  0.8563  0.2873
  858SOL     OW 2893   0.843   2.467   0.903 -0.1213  0.0304 -0.2438
  858SOL    HW1 2894   0.763   2.526   0.897 -0.8245 -0.9526 -0.6563
  858SOL    HW2 2895   0.856   2.439   0.999 -0.1730  0.3146 -0.1526
  859SOL     OW 2896   1.390   2.832   1.182  0.3061  0.0615 -0.1102
  859SOL    HW1 2897   1.329   2.754   1.189 -0.2666  0.4395 -0.7287
  859SOL    HW2 2898   1.428   2.837   1.089 -0.7238  1.2646 -0.5066
  860SOL     OW 2899   1.120   1.826   1.563 -0.2308  0.5749 -0.0083
  860SOL    HW1 2900   1.192   1.802   1.628 -1.4875 -0.5809  1.0090
  860SOL    HW2 2901   1.162   1.849   1.475  1.4346  1.0678  0.8619
  861SOL     OW 2902   1.311   2.864   0.550  0.2549 -0.5061 -0.4800
  861SOL    HW1 2903   1.289   2.773   0.516 -0.1983 -0.0932 -1.3216
  861SOL    HW2 2904   1.399   2.893   0.513  0.9621 -1.0496  0.7068
  862SOL     OW 2905   1.068   2.917   0.408  0.2065  0.0794 -0.1262
  862SOL    HW1 2906   1.149   2.913   0.467 -0.2650  0.6351  0.5901
  862SOL    HW2 2907   0.987   2.888   0.460 -0.3552  1.3922 -0.2097
  863SOL     OW 2908   1.369   0.517   5.453 -0.8113 -0.2610  0.2622
  863SOL    HW1 2909   1.425   0.442   5.417 -0.1710 -0.4137  1.5215
  863SOL    HW2 2910   1.375   0.518   5.553 -1.4381  0.9954  0.3063
  864SOL     OW 2911   0.713   1.714   1.029  0.0588  0.1310  0.1064
  864SOL    HW1 2912   0.805   1.701   0.993  0.7827  2.2285  1.0365
  864SOL    HW2 2913   0.704   1.666   1.117 -0.3936 -1.6155 -0.8490
  865SOL     OW 2914   0.278   2.476   1.359  0.4318  0.2546  0.1940
  865SOL    HW1 2915   0.282   2.500   1.262  1.4313  0.6504  0.3265
  865SOL    HW2 2916   0.203   2.526   1.402  0.3528  0.5283 -0.2544
  866SOL     OW 2917   0.853   1.700   0.449  0.2624  0.0826 -0.2171
  866SOL    HW1 2918   0.754   1.697   0.462  0.3436 -0.0191  0.4258
  866SOL    HW2 2919   0.897   1.739   0.531  0.6705  1.2549 -0.9624
  867SOL     OW 2920   0.077   3.509   0.950  0.1656 -0.4900  0.3973
  867SOL    HW1 2921   0.032   3.552   0.872  1.0921 -1.5449 -0.7704
  867SOL    HW2 2922   0.110   3.419   0.923 -0.5761 -1.4163  2.3907
  868SOL     OW 2923   4.875   1.924   1.700  0.0864 -0.4455 -0.6859
  868SOL    HW1 2924   4.795   1.933   1.640 -0.2085  1.8050 -0.0422
  868SOL    HW2 2925   4.850   1.870   1.780 -1.0241  0.7664 -0.1783
  869SOL     OW 2926   0.616   2.274   2.471  0.5123  0.2399 -0.1512
  869SOL    HW1 2927   0.591   2.218   2.392 -0.0926  0.9295 -0.4504
  869SOL    HW2 2928   0.625   2.215   2.552  0.0329 -0.3108 -0.4918
  870SOL     OW 2929   5.239   1.995   3.164 -0.6919  0.2449 -0.6463
  870SOL    HW1 2930   5.319   1.941   3.137 -1.3515 -0.7838 -0.6023
  870SOL    HW2 2931   5.255   2.034   3.255 -0.3739 -0.2556 -0.4786
  871SOL     OW 2932   0.047   3.111   2.752  0.3772  0.6271  0.2301
  871SOL    HW1 2933   0.059   3.012   2.762 -2.1403  0.4438  2.4972
  871SOL    HW2 2934  -0.032   3.129   2.694  0.3958  1.3114  0.4144
  872SOL     OW 2935   1.469   2.900   2.822  0.1751  0.1075 -0.2150
  872SOL    HW1 2936   1.376   2.881   2.853  0.4685  0.0131  0.6294
  872SOL    HW2 2937   1.510   2.970   2.881  0.5264  0.3934 -0.7875
  873SOL     OW 2938   2.045   2.788   2.577  0.2646  0.2258  0.4392
  873SOL    HW1 2939   1.963   2.824   2.622  0.3845 -1.3726  2.0729
  873SOL    HW2 2940   2.019   2.741   2.493 -0.6075 -0.7310  1.2111
  874SOL     OW 2941   1.867   0.931   1.985  0.2763  0.0987  0.1127
  874SOL    HW1 2942   1.849   0.920   1.888 -0.5265 -1.0790  0.3727
  874SOL    HW2 2943   1.815   0.862   2.037 -0.3074  1.4944  1.4722
  875SOL     OW 2944   0.605   2.596   4.016  0.5671  0.0462 -0.2466
  875SOL    HW1 2945   0.519   2.544   4.022  1.0546 -1.2338 -2.7165
  875SOL    HW2 2946   0.682   2.532   4.021  1.2998  0.9163 -0.2726
  876SOL     OW 2947   0.523   3.025   2.895 -0.1368 -0.4543 -0.1914
  876SOL    HW1 2948   0.523   2.949   2.829  0.6750  0.3928 -1.2143
  876SOL    HW2 2949   0.433   3.067   2.898 -0.0211 -0.1061 -1.2560
  877SOL     OW 2950   4.929   1.951   3.271 -0.8006 -0.1932 -0.3415
  877SOL    HW1 2951   4.884   1.861   3.273 -1.5843  0.2067  0.4900
  877SOL    HW2 2952   4.884   2.009   3.204  1.3442 -1.2191 -2.8229
  878SOL     OW 2953   0.302   2.643   3.081  0.9584 -0.0323 -0.3463
  878SOL    HW1 2954   0.343   2.723   3.124 -0.3962 -0.1933  1.3546
  878SOL    HW2 2955   0.320   2.562   3.137  1.8715 -0.8676 -1.7762
  879SOL     OW 2956   0.793   2.767   3.161 -0.4779  0.3795 -0.6169
  879SOL    HW1 2957   0.885   2.803   3.177  0.6090 -1.2443 -2.6147
  879SOL    HW2 2958   0.768   2.705   3.235  0.4845  0.0617 -0.5412
  880SOL     OW 2959   1.589   3.622   2.285  0.0993  0.3245  0.5514
  880SOL    HW1 2960   1.688   3.637   2.289 -0.0093  1.3312 -0.2242
  880SOL    HW2 2961   1.561   3.564   2.362  1.5606 -1.5991 -0.2585
  881SOL     OW 2962   0.966   1.051   3.992 -0.7972  0.4392  0.2515
  881SOL    HW1 2963   0.981   1.149   4.000 -0.8161  0.4701 -0.1153
  881SOL    HW2 2964   0.868   1.032   3.989 -0.7855  0.4529 -0.2542
  882SOL     OW 2965   2.167   3.106   2.431 -0.2447  0.3569 -0.6987
  882SOL    HW1 2966   2.203   3.185   2.383 -2.3764  1.8964  0.0650
  882SOL    HW2 2967   2.073   3.125   2.461  0.6237 -0.7310  3.3484
  883SOL     OW 2968   0.751   3.956   2.652 -0.2862  0.0928  0.3456
  883SOL    HW1 2969   0.652   3.955   2.666 -0.2973  0.9424  0.3389
  883SOL    HW2 2970   0.780   4.047   2.622  0.5393 -0.0612  0.6576
  884SOL     OW 2971   1.169   4.208   3.944 -0.9383 -0.0395 -0.2782
  884SOL    HW1 2972   1.254   4.248   3.910 -1.6989  0.5956 -1.4994
  884SOL    HW2 2973   1.155   4.234   4.039  0.2078 -0.1381 -0.0685
  885SOL     OW 2974   1.071   4.344   3.244  0.1615 -0.3185  0.7484
  885SOL    HW1 2975   1.052   4.278   3.171  0.2970  0.3677  0.0759
  885SOL    HW2 2976   0.985   4.369   3.288  0.0584 -0.6301  0.7305
  886SOL     OW 2977   0.771   2.002   2.290  0.2367 -0.3299  0.4898
  886SOL    HW1 2978   0.793   1.929   2.354 -0.2002 -0.5218  0.4274
  886SOL    HW2 2979   0.843   2.071   2.292  0.4043 -0.5124  0.9190
  887SOL     OW 2980   4.430   3.565   4.936  0.2424  0.4813 -0.2277
  887SOL    HW1 2981   4.412   3.663   4.943 -0.9862  0.4299 -1.9612
  887SOL    HW2 2982   4.494   3.537   5.007 -0.4400  2.2753  1.1472
  888SOL     OW 2983   4.992   3.085   2.501  0.9130  0.0969  0.4625
  888SOL    HW1 2984   4.955   3.059   2.590 -2.1408  1.9640 -0.0900
  888SOL    HW2 2985   5.015   3.182   2.501 -1.1471  0.6706 -1.2686
  889SOL     OW 2986   2.181   2.159   2.582  0.4516 -0.0578 -0.4506
  889SOL    HW1 2987   2.272   2.178   2.544 -0.1301 -0.0091 -1.8586
  889SOL    HW2 2988   2.148   2.071   2.549  0.5719 -0.7676  1.2254
  890SOL     OW 2989   1.839   2.296   3.726 -0.3494  0.5186 -0.2412
  890SOL    HW1 2990   1.903   2.351   3.779 -0.2997 -0.7518  1.1030
  890SOL    HW2 2991   1.783   2.356   3.668  1.2661  1.7362 -0.6101
  891SOL     OW 2992   1.357   3.760   2.253  0.3472  0.2131  0.2555
  891SOL    HW1 2993   1.449   3.722   2.268  0.7963  0.9790 -0.4637
  891SOL    HW2 2994   1.296   3.729   2.326  0.3932 -2.7861 -0.8153
  892SOL     OW 2995   5.552   2.882   2.187 -0.4510  0.5601 -0.1135
  892SOL    HW1 2996   5.557   2.974   2.147 -0.0803  0.7679  0.3927
  892SOL    HW2 2997   5.592   2.816   2.124  2.7603  1.2536  0.9865
  893SOL     OW 2998   1.595   2.845   1.700 -0.1422  0.2348 -0.0012
  893SOL    HW1 2999   1.574   2.820   1.605 -1.2227  0.4854  0.1518
  893SOL    HW2 3000   1.694   2.847   1.713  0.0405  0.9363 -1.3178
  894SOL     OW 3001   1.137   3.424   2.297 -0.0408  0.4182 -0.0337
  894SOL    HW1 3002   1.107   3.429   2.202 -1.3644 -0.1548  0.3310
  894SOL    HW2 3003   1.134   3.330   2.329 -0.4651  0.7099  0.8286
  895SOL     OW 3004   0.271   2.377   2.529 -0.4531 -0.3727 -0.4329
  895SOL    HW1 3005   0.305   2.362   2.622  1.9773  2.4906 -0.7022
  895SOL    HW2 3006   0.192   2.438   2.532 -0.6323 -0.6154 -0.2186
  896SOL     OW 3007   1.237   3.509   1.418 -0.7643 -0.9600 -0.0026
  896SOL    HW1 3008   1.203   3.599   1.444 -1.4989 -1.2957  0.2270
  896SOL    HW2 3009   1.292   3.472   1.493 -1.2100 -1.0748  0.2760
  897SOL     OW 3010   1.150   3.801   2.910 -0.2625 -0.0148 -0.2706
  897SOL    HW1 3011   1.099   3.882   2.882 -2.5399 -0.8085  1.2545
  897SOL    HW2 3012   1.103   3.719   2.879  2.2709 -0.8594 -2.2311
  898SOL     OW 3013   0.550   2.151   4.070  0.6213  0.0143 -0.1073
  898SOL    HW1 3014   0.469   2.097   4.048  0.3453  0.2090  0.4320
  898SOL    HW2 3015   0.617   2.141   3.996 -0.3380  0.7588 -1.1204
  899SOL     OW 3016   1.561   2.969   2.585 -0.1597  0.4903 -0.0408
  899SOL    HW1 3017   1.505   2.924   2.516  1.3245  0.0729 -1.0244
  899SOL    HW2 3018   1.539   2.932   2.676 -0.8233 -0.2932 -0.5091
  900SOL     OW 3019   0.660   3.307   2.623  1.2197  0.6124  0.3894
  900SOL    HW1 3020   0.682   3.217   2.586  0.6018  1.0330 -1.0462
  900SOL    HW2 3021   0.745   3.355   2.648  1.5206 -0.8514  2.4932
  901SOL     OW 3022   1.573   3.784   3.926  0.3050  0.3601  0.2370
  901SOL    HW1 3023   1.639   3.713   3.948  1.4020  0.8310 -1.3429
  901SOL    HW2 3024   1.486   3.743   3.901  0.9762 -0.4775 -0.8281
  902SOL     OW 3025   0.592   2.125   2.725 -0.0822 -1.0699 -0.1627
  902SOL    HW1 3026   0.500   2.159   2.742  0.9029  0.7247  2.0960
  902SOL    HW2 3027   0.601   2.033   2.764 -0.9349 -1.2821 -0.4583
  903SOL     OW 3028   1.184   3.668   2.444 -0.3553  0.1817 -0.9729
  903SOL    HW1 3029   1.110   3.694   2.507  0.6964 -0.1144  0.4355
  903SOL    HW2 3030   1.161   3.581   2.400 -1.1245  0.4181 -1.0595
  904SOL     OW 3031   0.683   3.658   2.950 -0.0969 -0.6025 -0.2962
  904SOL    HW1 3032   0.635   3.571   2.937 -0.4694 -0.2509 -1.4450
  904SOL    HW2 3033   0.617   3.733   2.954  0.2163 -0.3673  0.7536
  905SOL     OW 3034   0.251   2.314   3.019 -0.1767  0.7584 -0.3165
  905SOL    HW1 3035   0.269   2.362   3.105 -3.2503  1.0399  0.2710
  905SOL    HW2 3036   0.228   2.219   3.037  1.0528  0.3039 -1.0396
  906SOL     OW 3037   5.401   2.195   2.467 -0.5401  0.5513 -0.0519
  906SOL    HW1 3038   5.403   2.104   2.425  0.4937  0.9231 -0.8567
  906SOL    HW2 3039   5.464   2.255   2.418  0.0983  1.2387  1.5530
  907SOL     OW 3040   0.064   2.550   2.528  0.0425 -0.5929 -0.0138
  907SOL    HW1 3041   0.060   2.648   2.511  2.2030 -0.6606 -1.2116
  907SOL    HW2 3042   0.003   2.503   2.464  0.3000 -0.1351 -0.6043
  908SOL     OW 3043   1.768   2.344   2.860 -0.2478 -0.8895  0.2211
  908SOL    HW1 3044   1.864   2.363   2.885  0.5258 -3.1064 -0.8038
  908SOL    HW2 3045   1.755   2.363   2.763 -1.1252  0.2511  0.5467
  909SOL     OW 3046   1.633   3.038   1.263 -0.3176 -0.3213 -0.1913
  909SOL    HW1 3047   1.595   3.096   1.335 -0.3403 -0.5085 -0.0527
  909SOL    HW2 3048   1.733   3.050   1.261 -0.0635 -1.8402  1.2427
  910SOL     OW 3049   2.018   2.823   3.294  0.6478  0.4640 -0.5810
  910SOL    HW1 3050   2.117   2.826   3.308  0.5797  0.2346 -0.0540
  910SOL    HW2 3051   1.997   2.762   3.218  0.7679 -1.3250  0.7637
  911SOL     OW 3052   1.506   2.748   1.942 -0.2545 -1.2219 -0.0923
  911SOL    HW1 3053   1.516   2.766   1.844 -2.8486 -3.6368 -0.9404
  911SOL    HW2 3054   1.591   2.709   1.978  0.7178 -0.3503 -1.3465
  912SOL     OW 3055   1.200   2.642   1.170 -0.1234 -0.2529 -0.3187
  912SOL    HW1 3056   1.203   2.561   1.112  0.7897 -0.8696  0.5554
  912SOL    HW2 3057   1.134   2.707   1.132 -1.8352 -1.9073 -0.3518
  913SOL     OW 3058   4.632   2.620   3.014  0.1060 -0.3308  0.1418
  913SOL    HW1 3059   4.564   2.588   2.947  0.2200  3.2805 -1.9696
  913SOL    HW2 3060   4.723   2.587   2.988  0.0310  0.3476 -1.0227
  914SOL     OW 3061   0.506   3.830   3.137 -0.2636  0.5029 -0.4015
  914SOL    HW1 3062   0.577   3.887   3.097  1.0588 -0.9942 -0.2489
  914SOL    HW2 3063   0.540   3.787   3.221 -1.3237 -0.3003 -0.3630
  915SOL     OW 3064   0.091   2.001   2.342 -0.1037  1.1127 -0.0331
  915SOL    HW1 3065   0.155   1.924   2.331 -1.5533 -0.5344  2.2824
  915SOL    HW2 3066   0.131   2.083   2.302  1.4355 -0.8350 -2.8370
  916SOL     OW 3067   1.690   2.503   3.614 -0.5042 -1.1729  0.3358
  916SOL    HW1 3068   1.725   2.596   3.603 -2.4438 -0.4505 -0.0262
  916SOL    HW2 3069   1.630   2.480   3.538 -1.6684 -1.9400  1.4382
  917SOL     OW 3070   0.565   3.224   0.755  0.6294  0.1647 -0.3641
  917SOL    HW1 3071   0.582   3.269   0.667  0.1666  1.3852  0.1521
  917SOL    HW2 3072   0.491   3.270   0.803 -0.1121 -1.3954  0.0482
  918SOL     OW 3073   1.150   2.393   1.621  0.0671  0.8777 -0.8634
  918SOL    HW1 3074   1.209   2.474   1.613 -0.0550  0.9129 -1.4495
  918SOL    HW2 3075   1.159   2.337   1.539  0.1256  0.3090 -0.4688
  919SOL     OW 3076   1.165   4.820   2.731 -0.4346 -0.1696 -0.4824
  919SOL    HW1 3077   1.215   4.851   2.813 -2.1713 -0.3353  0.6962
  919SOL    HW2 3078   1.068   4.841   2.742 -1.1052 -2.4863 -1.3738
  920SOL     OW 3079   4.585   3.571   2.417 -0.0144 -0.7284  0.1381
  920SOL    HW1 3080   4.638   3.490   2.391  0.1968 -0.3770 -0.5685
  920SOL    HW2 3081   4.637   3.625   2.483 -0.8458 -1.9846  1.8651
  921SOL     OW 3082   1.793   2.851   2.679 -0.2756  0.0736 -0.4039
  921SOL    HW1 3083   1.744   2.768   2.709  1.6210 -0.8658  0.2629
  921SOL    HW2 3084   1.730   2.909   2.627 -2.0886 -1.0406  0.4174
  922SOL     OW 3085   1.069   3.437   3.072  0.3618  0.1234  0.3346
  922SOL    HW1 3086   1.015   3.508   3.116  1.9001  1.7225 -0.2571
  922SOL    HW2 3087   1.013   3.354   3.062 -2.0243  1.7119 -0.3685
  923SOL     OW 3088   4.796   3.960   1.878  0.2891  0.0111 -0.4793
  923SOL    HW1 3089   4.786   4.052   1.916 -2.1189  0.5096 -2.0696
  923SOL    HW2 3090   4.800   3.894   1.953  2.6746  1.3693  0.7209
  924SOL     OW 3091   2.064   2.404   2.547 -0.8367  0.3690  0.2096
  924SOL    HW1 3092   2.101   2.478   2.602  0.5466  0.5444 -0.9118
  924SOL    HW2 3093   2.117   2.321   2.563 -1.2178  0.0962  0.0656
  925SOL     OW 3094   0.868   2.306   4.758 -0.1586  0.3951 -0.0855
  925SOL    HW1 3095   0.864   2.255   4.844 -1.5806 -1.0148 -0.9276
  925SOL    HW2 3096   0.915   2.251   4.689  0.6633  1.3733 -0.3440
  926SOL     OW 3097   2.171   3.789   1.073  0.3530  0.3257 -0.0302
  926SOL    HW1 3098   2.177   3.790   1.173  0.0264  1.0997 -0.0050
  926SOL    HW2 3099   2.109   3.862   1.043 -0.7187 -0.8293 -0.7285
  927SOL     OW 3100   0.962   2.172   2.326  0.2280  0.2028 -0.2362
  927SOL    HW1 3101   1.056   2.153   2.354 -0.0919  0.9203  1.5049
  927SOL    HW2 3102   0.931   2.256   2.372 -0.5280  1.2554 -2.5399
  928SOL     OW 3103   0.801   3.843   1.271 -0.4189 -0.7467 -0.7224
  928SOL    HW1 3104   0.705   3.816   1.274 -0.2482 -1.3027  0.5896
  928SOL    HW2 3105   0.818   3.913   1.341  0.4035 -1.6621  0.0342
  929SOL     OW 3106   4.982   3.508   1.094 -0.0073  0.7515  0.1677
  929SOL    HW1 3107   5.009   3.453   1.173 -0.4751 -0.4748 -0.4963
  929SOL    HW2 3108   5.059   3.518   1.032  0.1127  0.9442  0.3496
  930SOL     OW 3109   0.779   2.856   1.437 -0.2372  0.6582  0.3046
  930SOL    HW1 3110   0.743   2.763   1.430  2.7997 -0.8186  2.1457
  930SOL    HW2 3111   0.817   2.884   1.349 -0.7373 -0.0333 -0.1427
  931SOL     OW 3112   5.468   3.732   3.397  0.2872 -0.0305 -0.0107
  931SOL    HW1 3113   5.478   3.794   3.474 -2.0849  0.1147  0.2542
  931SOL    HW2 3114   5.451   3.639   3.431 -0.8467  0.0477 -0.3330
  932SOL     OW 3115   0.613   3.488   2.302  0.5404  0.1444 -0.1933
  932SOL    HW1 3116   0.687   3.547   2.334  1.2783 -0.4046 -0.8368
  932SOL    HW2 3117   0.647   3.394   2.293  0.0219  0.0571 -1.3923
  933SOL     OW 3118   4.878   2.429   2.621 -0.2416  0.1178 -0.1930
  933SOL    HW1 3119   4.835   2.347   2.659 -0.6187  0.7382  0.7541
  933SOL    HW2 3120   4.887   2.418   2.522 -1.6691 -0.4476 -0.2899
  934SOL     OW 3121   2.008   1.588   3.208 -0.0390 -0.5523  0.3884
  934SOL    HW1 3122   2.061   1.630   3.282 -0.1393 -0.4376  0.3939
  934SOL    HW2 3123   2.071   1.540   3.146  0.0706 -0.4268  0.4024
  935SOL     OW 3124   0.048   2.750   1.698  0.1112  0.2262 -0.0647
  935SOL    HW1 3125   0.131   2.756   1.753  0.2675  3.2671 -0.4314
  935SOL    HW2 3126  -0.031   2.743   1.759  0.3982  1.8602  0.5523
  936SOL     OW 3127   0.237   1.769   2.875 -0.2783 -0.0033 -0.6034
  936SOL    HW1 3128   0.269   1.783   2.781 -1.4423  0.5652 -0.9319
  936SOL    HW2 3129   0.162   1.704   2.875 -1.0369  0.8543 -0.2195
  937SOL     OW 3130   1.940   2.685   3.059  0.0138 -0.1147 -0.0574
  937SOL    HW1 3131   1.949   2.612   2.991 -0.6911  0.8956 -1.2828
  937SOL    HW2 3132   1.848   2.724   3.054 -0.2808 -0.4466  1.9691
  938SOL     OW 3133   1.041   2.850   3.193  0.1119 -1.0063  0.6910
  938SOL    HW1 3134   1.063   2.944   3.218  1.3408 -0.2867 -2.5196
  938SOL    HW2 3135   1.122   2.805   3.156 -0.7593 -2.9105  0.9494
  939SOL     OW 3136   1.150   4.033   2.584  0.0664 -0.8502  0.2858
  939SOL    HW1 3137   1.071   3.972   2.572  0.2186 -0.7941 -1.2376
  939SOL    HW2 3138   1.158   4.093   2.505  1.0217 -0.1176  0.9138
  940SOL     OW 3139   0.726   2.077   1.986 -0.0456 -0.3773  0.0821
  940SOL    HW1 3140   0.775   1.991   1.999  2.0394  0.2336 -2.7413
  940SOL    HW2 3141   0.788   2.154   2.003 -0.2637  0.4405 -2.3247
  941SOL     OW 3142   5.093   1.863   2.961 -0.1609  0.3788 -0.4449
  941SOL    HW1 3143   5.138   1.894   3.045 -1.6787  0.0380  0.5381
  941SOL    HW2 3144   5.093   1.763   2.959  1.2923  0.3705 -1.6830
  942SOL     OW 3145   0.919   2.422   1.379  0.2126 -0.2480 -0.2702
  942SOL    HW1 3146   0.905   2.353   1.450  0.7641 -0.8151 -0.7071
  942SOL    HW2 3147   0.912   2.513   1.420 -1.8042 -0.5214  0.0653
  943SOL     OW 3148   0.626   2.024   1.727  0.4455  0.9999 -0.5470
  943SOL    HW1 3149   0.662   2.068   1.810  1.2355  1.6947 -1.2340
  943SOL    HW2 3150   0.534   2.059   1.708  0.9978  2.2779 -0.9920
  944SOL     OW 3151   1.150   2.989   2.657  0.1766  0.3915  0.4061
  944SOL    HW1 3152   1.085   3.061   2.680 -0.0230  0.7983 -1.3195
  944SOL    HW2 3153   1.172   2.936   2.739 -1.4340  0.9767  1.2429
  945SOL     OW 3154   1.044   1.895   1.926  0.3163  0.6014 -0.2965
  945SOL    HW1 3155   1.038   1.989   1.961  0.4422  0.2820  0.6150
  945SOL    HW2 3156   0.960   1.846   1.951  0.3914  0.3760 -0.4908
  946SOL     OW 3157   1.226   2.921   3.599 -0.1844 -0.2342 -0.2042
  946SOL    HW1 3158   1.300   2.987   3.588 -1.1658  0.7434 -1.2570
  946SOL    HW2 3159   1.202   2.912   3.696  1.5487 -0.8711  0.1941
  947SOL     OW 3160   0.746   2.664   3.731 -0.3617 -0.1246 -0.6549
  947SOL    HW1 3161   0.710   2.706   3.647  0.6366  0.5842 -0.7406
  947SOL    HW2 3162   0.733   2.728   3.807 -0.1524 -0.2585 -0.5071
  948SOL     OW 3163   2.151   3.514   2.621 -0.0907  0.5139 -0.2236
  948SOL    HW1 3164   2.094   3.585   2.580 -0.6516 -0.0431 -0.4286
  948SOL    HW2 3165   2.098   3.461   2.687  0.2408  0.1106 -0.2692
  949SOL     OW 3166   5.120   1.759   2.212 -0.1152 -0.1415 -0.0124
  949SOL    HW1 3167   5.093   1.804   2.298  0.1940  0.6768 -0.3260
  949SOL    HW2 3168   5.142   1.829   2.144 -1.5883 -0.7550 -1.1758
  950SOL     OW 3169   0.781   2.538   2.182  0.5957  0.3090 -0.5644
  950SOL    HW1 3170   0.852   2.608   2.180  1.2068 -0.2923 -0.6554
  950SOL    HW2 3171   0.699   2.570   2.135  1.6244  0.1613 -2.5461
  951SOL     OW 3172   1.113   1.779   2.233 -0.5120 -0.2400 -0.0604
  951SOL    HW1 3173   1.073   1.783   2.142  0.1804  2.4408 -0.3559
  951SOL    HW2 3174   1.208   1.812   2.229  0.5304 -2.7805  1.2215
  952SOL     OW 3175   2.666   2.099   2.487 -0.2111 -0.1763 -0.1587
  952SOL    HW1 3176   2.664   2.000   2.477 -0.2602 -0.2292  0.3744
  952SOL    HW2 3177   2.757   2.128   2.517 -0.3829 -0.1177  0.3017
  953SOL     OW 3178   0.523   1.540   3.082 -0.3517 -0.0884  0.0813
  953SOL    HW1 3179   0.443   1.489   3.049 -0.4294 -0.3200  0.6059
  953SOL    HW2 3180   0.544   1.615   3.020 -0.1426 -0.8610 -0.7958
  954SOL     OW 3181   1.002   3.877   1.655 -0.1778  0.8261  0.4680
  954SOL    HW1 3182   0.957   3.937   1.589 -0.4862 -0.0295 -0.1163
  954SOL    HW2 3183   0.937   3.809   1.688  0.6107 -0.3261 -0.2585
  955SOL     OW 3184   1.643   1.703   3.648 -0.0524  0.2318  0.2741
  955SOL    HW1 3185   1.636   1.666   3.741 -1.8687  1.6416  0.7445
  955SOL    HW2 3186   1.739   1.707   3.622  0.4851 -0.4246  1.9862
  956SOL     OW 3187   1.933   3.347   1.373  0.3206  0.0408 -0.4077
  956SOL    HW1 3188   2.016   3.376   1.325  0.7614  0.7264  0.7247
  956SOL    HW2 3189   1.927   3.247   1.371  0.4404  0.0444 -1.6724
  957SOL     OW 3190   0.084   3.696   2.476  0.0292 -0.0494 -0.2773
  957SOL    HW1 3191   0.080   3.792   2.449  0.5253  0.4923  1.4356
  957SOL    HW2 3192   0.089   3.638   2.395 -1.3015  1.2978 -1.3666
  958SOL     OW 3193   1.878   2.842   1.764 -0.1345  0.3043 -0.8061
  958SOL    HW1 3194   1.915   2.788   1.840  0.6638  1.0676 -0.6423
  958SOL    HW2 3195   1.856   2.934   1.796 -1.9376 -0.0385 -0.9719
  959SOL     OW 3196   2.601   1.567   1.341  0.7771 -0.2355  0.4895
  959SOL    HW1 3197   2.614   1.531   1.249 -0.8861 -3.0197  1.1973
  959SOL    HW2 3198   2.528   1.635   1.341 -0.0957 -1.1476 -0.0942
  960SOL     OW 3199   0.693   3.869   1.877  0.0531 -0.3274  0.1537
  960SOL    HW1 3200   0.608   3.821   1.898 -0.9417  1.0713 -0.4794
  960SOL    HW2 3201   0.763   3.844   1.944 -0.9862 -1.1465  0.9762
  961SOL     OW 3202   1.818   2.977   2.300 -0.1647 -0.3314 -1.0597
  961SOL    HW1 3203   1.782   3.039   2.370 -1.4254  0.7892 -2.6511
  961SOL    HW2 3204   1.832   2.886   2.341 -1.2588  0.1712  0.5388
  962SOL     OW 3205   1.027   2.490   3.121 -0.0578  0.5129  0.4144
  962SOL    HW1 3206   1.064   2.536   3.201  0.5214  1.2162 -0.2344
  962SOL    HW2 3207   0.939   2.530   3.096 -1.4100 -1.2889  2.0736
  963SOL     OW 3208   1.288   3.490   1.867  0.3799  0.0823  0.2305
  963SOL    HW1 3209   1.296   3.395   1.899  1.2997 -0.8245 -2.3671
  963SOL    HW2 3210   1.196   3.505   1.830 -0.7066  1.1501  3.0785
  964SOL     OW 3211   0.636   3.346   2.013  0.1576 -0.2942 -0.7320
  964SOL    HW1 3212   0.594   3.403   1.942  1.9134 -0.1582 -1.7296
  964SOL    HW2 3213   0.570   3.278   2.044 -0.5792 -0.6016 -2.7879
  965SOL     OW 3214   3.003   4.172   2.580  0.0462 -0.0449 -0.1231
  965SOL    HW1 3215   2.970   4.088   2.621  0.9844 -0.4814 -0.2326
  965SOL    HW2 3216   2.927   4.220   2.536 -0.5553 -0.6637  0.2245
  966SOL     OW 3217   2.059   2.118   2.805  0.3875  0.1376  0.3872
  966SOL    HW1 3218   2.116   2.161   2.875  0.6160  0.3087  0.1029
  966SOL    HW2 3219   2.108   2.121   2.717 -0.8477  2.1321 -0.3146
  967SOL     OW 3220   0.688   2.391   2.974 -0.4852 -0.3056 -0.0187
  967SOL    HW1 3221   0.732   2.301   2.969 -0.6091 -0.3194 -1.2349
  967SOL    HW2 3222   0.607   2.385   3.033 -0.5306 -1.0175 -0.1442
  968SOL     OW 3223   1.039   2.905   2.019 -0.5179  0.0229 -0.0351
  968SOL    HW1 3224   1.116   2.846   1.996  0.0268  0.0569  1.6166
  968SOL    HW2 3225   0.972   2.902   1.945  0.9782 -0.1205 -1.4415
  969SOL     OW 3226   0.410   2.231   1.875 -0.0178  0.1977 -0.3998
  969SOL    HW1 3227   0.365   2.262   1.959 -0.4448 -0.4444 -0.3830
  969SOL    HW2 3228   0.478   2.298   1.847  0.3110  0.2956  0.6004
  970SOL     OW 3229   1.788   2.157   2.341  0.1814  0.0910  0.2488
  970SOL    HW1 3230   1.869   2.100   2.324 -0.2824 -1.4052  2.5955
  970SOL    HW2 3231   1.706   2.104   2.320 -0.2399  1.0505 -0.5868
  971SOL     OW 3232   4.896   2.755   3.548  0.1752  0.3983 -0.2922
  971SOL    HW1 3233   4.894   2.854   3.561  0.8193  0.5350 -1.1526
  971SOL    HW2 3234   4.810   2.715   3.581 -1.0777  1.5187 -2.0528
  972SOL     OW 3235   0.831   2.364   1.139 -0.3910 -0.3633 -0.2844
  972SOL    HW1 3236   0.751   2.304   1.147 -0.4736 -0.1570  0.5523
  972SOL    HW2 3237   0.868   2.382   1.230  0.3065 -0.0454 -0.6251
  973SOL     OW 3238   0.244   2.389   2.095 -0.2055 -0.0729 -0.7035
  973SOL    HW1 3239   0.298   2.471   2.115 -0.8641  0.3642 -0.6893
  973SOL    HW2 3240   0.264   2.319   2.163 -0.1988  0.3461 -0.2669
  974SOL     OW 3241   1.854   3.139   1.709 -0.0421 -0.1176  0.3416
  974SOL    HW1 3242   1.765   3.183   1.695  0.4721  0.8658  0.0506
  974SOL    HW2 3243   1.892   3.169   1.797  0.4175  0.2148  0.0341
  975SOL     OW 3244   0.144   3.447   3.102  0.6875  0.2957 -0.5504
  975SOL    HW1 3245   0.178   3.541   3.098 -0.7473  0.7852 -2.3190
  975SOL    HW2 3246   0.082   3.430   3.026  1.0845 -2.1854 -0.4193
  976SOL     OW 3247   3.112   1.619   1.905  0.1967 -0.0525  0.1841
  976SOL    HW1 3248   3.209   1.645   1.894 -0.4495  2.5370 -0.1471
  976SOL    HW2 3249   3.082   1.572   1.822  0.9072  0.0550 -0.1503
  977SOL     OW 3250   0.166   3.430   3.616 -0.0860 -0.1544  0.3621
  977SOL    HW1 3251   0.160   3.383   3.529 -0.1251  1.7728 -0.7322
  977SOL    HW2 3252   0.212   3.371   3.683 -1.2151 -2.1723 -0.5432
  978SOL     OW 3253   1.453   3.494   2.810 -0.3422 -0.4517 -0.4406
  978SOL    HW1 3254   1.437   3.581   2.856 -0.5565 -0.3320 -0.7369
  978SOL    HW2 3255   1.368   3.463   2.767 -0.6081 -1.4344  0.7209
  979SOL     OW 3256   1.273   2.117   3.117  0.7885  0.4575 -0.8158
  979SOL    HW1 3257   1.305   2.187   3.180 -0.3430 -1.0622  1.6189
  979SOL    HW2 3258   1.327   2.033   3.130 -1.2578 -0.7786  0.3062
  980SOL     OW 3259   1.091   1.753   4.004  0.2364 -0.5320 -0.6334
  980SOL    HW1 3260   1.099   1.853   3.998  1.8147 -0.6069  0.0128
  980SOL    HW2 3261   1.089   1.725   4.100  0.2405 -1.1581 -0.8141
  981SOL     OW 3262   0.275   2.009   3.497  0.1302 -0.5513  0.0338
  981SOL    HW1 3263   0.235   1.936   3.552 -1.4690  0.0992 -0.2151
  981SOL    HW2 3264   0.325   2.072   3.557 -0.7045 -0.4300  0.6258
  982SOL     OW 3265   1.886   2.133   3.225 -0.2876  0.9405 -0.1868
  982SOL    HW1 3266   1.909   2.042   3.193 -0.0287  1.0633 -0.3541
  982SOL    HW2 3267   1.798   2.131   3.273  0.7037  0.1915  1.6865
  983SOL     OW 3268   1.416   2.847   2.387  0.6644 -0.4112  1.0026
  983SOL    HW1 3269   1.318   2.843   2.369  0.2976  1.2413  2.4237
  983SOL    HW2 3270   1.463   2.875   2.303 -0.5368  2.6922  1.2233
  984SOL     OW 3271   1.427   2.826   0.890 -0.5811 -0.7752  0.1493
  984SOL    HW1 3272   1.422   2.727   0.876 -1.9759 -0.8401  0.9181
  984SOL    HW2 3273   1.351   2.870   0.843 -1.2374 -0.3083  1.5805
  985SOL     OW 3274   0.579   2.778   2.763  0.5619 -0.0809 -0.2432
  985SOL    HW1 3275   0.645   2.722   2.812  0.9621 -0.5517 -1.2982
  985SOL    HW2 3276   0.489   2.767   2.804  0.6522 -1.4322 -0.3792
  986SOL     OW 3277   0.709   3.009   3.081  0.2035 -0.4624 -0.5705
  986SOL    HW1 3278   0.637   3.018   3.013 -0.4197 -0.2628  0.1074
  986SOL    HW2 3279   0.733   2.912   3.092 -0.7271 -0.6427 -0.0246
  987SOL     OW 3280   1.959   1.885   3.160 -0.2584  0.6769  0.2941
  987SOL    HW1 3281   2.056   1.883   3.133 -0.3453  0.6626 -0.0248
  987SOL    HW2 3282   1.916   1.799   3.135  0.1315 -0.1604  2.3368
  988SOL     OW 3283   1.659   1.862   4.038 -0.5036  0.0220 -0.1573
  988SOL    HW1 3284   1.597   1.918   3.984 -0.6979  0.8887  0.9348
  988SOL    HW2 3285   1.677   1.776   3.989 -0.0986  1.0524 -1.9197
  989SOL     OW 3286   1.463   2.069   2.790  0.1382 -0.3277  0.4704
  989SOL    HW1 3287   1.388   2.118   2.834 -1.0707 -0.7358 -1.0564
  989SOL    HW2 3288   1.544   2.074   2.848 -0.4798  1.8249  1.2518
  990SOL     OW 3289   2.731   2.036   1.191 -0.2342  0.2873  0.5515
  990SOL    HW1 3290   2.770   2.127   1.183 -1.4553  0.8207  0.3615
  990SOL    HW2 3291   2.759   1.994   1.277  0.9197  0.5509  0.3112
  991SOL     OW 3292   2.321   2.622   2.137  0.4770  0.8623 -0.0951
  991SOL    HW1 3293   2.374   2.640   2.054  0.4231 -0.6280 -0.4923
  991SOL    HW2 3294   2.236   2.673   2.134  0.0712  0.1497 -1.3990
  992SOL     OW 3295   0.733   3.483   3.995  0.2849  0.7813 -0.4460
  992SOL    HW1 3296   0.721   3.543   4.074 -0.6764  0.7324 -0.5422
  992SOL    HW2 3297   0.793   3.407   4.020 -0.0799  0.7185  0.2696
  993SOL     OW 3298   1.147   2.592   3.855 -0.2211  0.4496 -0.7094
  993SOL    HW1 3299   1.100   2.547   3.779  1.2135  0.2324 -1.5030
  993SOL    HW2 3300   1.246   2.592   3.837 -0.0073  1.9319  0.3423
  994SOL     OW 3301   4.858   2.345   4.862 -0.1937 -0.3141  0.0286
  994SOL    HW1 3302   4.899   2.433   4.885 -0.9242  0.2895 -0.8937
  994SOL    HW2 3303   4.925   2.272   4.873 -0.2846 -0.0476  3.4595
  995SOL     OW 3304   1.847   2.278   0.706  0.0596 -0.1357 -0.6745
  995SOL    HW1 3305   1.875   2.210   0.773  1.4200  0.8686 -0.1535
  995SOL    HW2 3306   1.760   2.253   0.666  1.0706 -2.8043 -1.3852
  996SOL     OW 3307   0.888   1.208   1.985  0.2552  0.2563  0.3574
  996SOL    HW1 3308   0.941   1.140   1.935 -0.6438 -0.5363  0.4482
  996SOL    HW2 3309   0.950   1.269   2.035  1.2808  1.6937 -2.3982
  997SOL     OW 3310   0.807   3.445   1.307 -0.6280 -0.3865 -0.6141
  997SOL    HW1 3311   0.880   3.388   1.345  0.9883  1.3588 -0.9676
  997SOL    HW2 3312   0.738   3.461   1.377  1.0828  0.7695  0.9213
  998SOL     OW 3313   5.047   3.655   2.134 -0.0738 -0.5918 -0.3970
  998SOL    HW1 3314   5.032   3.669   2.232 -1.3467  0.0672 -0.6763
  998SOL    HW2 3315   5.089   3.565   2.120 -0.3918 -0.9260  0.7040
  999SOL     OW 3316   1.227   2.049   2.378  0.2049  1.1836 -0.3381
  999SOL    HW1 3317   1.309   2.085   2.423  1.9546 -0.2729 -2.1963
  999SOL    HW2 3318   1.251   2.014   2.288 -1.9881 -1.5394  0.0131
 1000SOL     OW 3319   1.362   1.538   3.988 -0.6631  0.0532  0.5107
 1000SOL    HW1 3320   1.405   1.510   4.074 -1.6468 -0.9124  0.7250
 1000SOL    HW2 3321   1.263   1.540   4.000 -0.7701  0.7188 -0.3827
 1001SOL     OW 3322   1.662   2.464   4.091 -0.5030  0.8163  0.1335
 1001SOL    HW1 3323   1.638   2.382   4.039  0.5473  0.7302 -0.2346
 1001SOL    HW2 3324   1.760   2.464   4.109 -0.8960  0.6470  2.4905
 1002SOL     OW 3325   4.935   3.805   0.926 -0.2304 -0.2020 -0.3897
 1002SOL    HW1 3326   4.877   3.724   0.917 -0.5284  0.0435 -0.6924
 1002SOL    HW2 3327   4.907   3.857   1.007 -0.1809 -0.2894 -0.3170
 1003SOL     OW 3328   5.082   2.353   2.809  0.0955 -0.1018  0.0113
 1003SOL    HW1 3329   5.170   2.310   2.791  0.2150 -0.0478  0.4487
 1003SOL    HW2 3330   5.050   2.401   2.728 -0.1280 -1.1766 -0.5602
 1004SOL     OW 3331   5.367   3.129   2.620 -0.1072  0.7483  0.1534
 1004SOL    HW1 3332   5.351   3.076   2.537  0.5558  1.4411 -0.4292
 1004SOL    HW2 3333   5.288   3.187   2.639 -0.5681  0.0386  0.4334
 1005SOL     OW 3334   1.878   3.488   3.032 -0.6130 -0.3142  0.1667
 1005SOL    HW1 3335   1.952   3.443   2.981 -1.1614 -0.8115 -0.1918
 1005SOL    HW2 3336   1.885   3.587   3.020 -1.4562 -0.4717 -1.8849
 1006SOL     OW 3337   5.146   2.341   3.430 -0.1076 -0.9085  0.3298
 1006SOL    HW1 3338   5.088   2.363   3.352 -0.3415  1.2089  1.0422
 1006SOL    HW2 3339   5.238   2.379   3.415  0.0255 -1.0337  0.8130
 1007SOL     OW 3340   0.022   2.213   2.851 -0.6012 -0.0360  0.0693
 1007SOL    HW1 3341   0.100   2.259   2.893 -1.5498  1.4788  0.2675
 1007SOL    HW2 3342   0.053   2.133   2.800  0.7897 -0.8588  2.1034
 1008SOL     OW 3343   0.924   1.952   2.971  0.5234 -0.0306  0.0210
 1008SOL    HW1 3344   0.893   2.042   2.938  1.0464  0.1407 -0.0083
 1008SOL    HW2 3345   0.866   1.924   3.048 -0.8428 -0.5274 -1.1312
 1009SOL     OW 3346   0.277   1.443   2.279 -0.5941 -0.0054  0.3990
 1009SOL    HW1 3347   0.304   1.363   2.333 -2.1056 -0.8661 -0.0961
 1009SOL    HW2 3348   0.299   1.428   2.183  0.1993  0.6844  0.4566
 1010SOL     OW 3349   1.985   2.679   1.972 -0.0215  0.2103  0.4792
 1010SOL    HW1 3350   2.012   2.591   1.933 -0.6430 -0.7939  2.2195
 1010SOL    HW2 3351   2.067   2.731   1.996  0.3472 -0.4099  0.5758
 1011SOL     OW 3352   0.549   3.433   2.894  0.2661  0.2190  0.1157
 1011SOL    HW1 3353   0.500   3.434   2.807 -0.1295  0.8474  0.3369
 1011SOL    HW2 3354   0.602   3.349   2.902 -0.3859 -0.2403 -0.3521
 1012SOL     OW 3355   1.423   2.379   1.968 -0.5574 -0.5590  0.0850
 1012SOL    HW1 3356   1.450   2.469   1.935  1.2091 -0.5408  1.4112
 1012SOL    HW2 3357   1.374   2.390   2.055 -3.1827 -0.7375 -1.2704
 1013SOL     OW 3358   1.316   4.747   3.589  0.5349  0.0187  0.0605
 1013SOL    HW1 3359   1.394   4.764   3.528  1.2734  0.7394  1.1685
 1013SOL    HW2 3360   1.347   4.751   3.684 -0.8653  0.2982  0.5274
 1014SOL     OW 3361   5.535   1.780   1.704  0.3117  0.2751  0.3720
 1014SOL    HW1 3362   5.492   1.795   1.615 -0.5846  1.2325  0.9438
 1014SOL    HW2 3363   5.634   1.790   1.696  0.1334  1.7158 -0.2500
 1015SOL     OW 3364   0.848   2.152   1.526 -0.0890 -0.2103  0.5965
 1015SOL    HW1 3365   0.775   2.118   1.586  1.2993 -1.0728  1.8533
 1015SOL    HW2 3366   0.936   2.142   1.571  0.8145  1.0684 -0.7858
 1016SOL     OW 3367   2.124   3.382   1.850  0.0397 -0.0295  0.3914
 1016SOL    HW1 3368   2.120   3.467   1.903 -1.8676  0.6865 -0.8003
 1016SOL    HW2 3369   2.053   3.319   1.883  0.7275 -0.7466  0.5439
 1017SOL     OW 3370   1.041   3.334   1.356 -0.3333 -0.0861 -0.1672
 1017SOL    HW1 3371   1.120   3.396   1.362  1.4611 -2.2315 -0.2434
 1017SOL    HW2 3372   1.062   3.261   1.291 -3.1589  0.2549 -1.5884
 1018SOL     OW 3373   0.351   1.539   4.610  0.0110 -0.1358  0.2759
 1018SOL    HW1 3374   0.363   1.598   4.530 -2.0089  1.6099  1.1546
 1018SOL    HW2 3375   0.351   1.595   4.692  2.3117 -1.9186  1.6251
 1019SOL     OW 3376   1.046   4.263   2.850 -0.0409  0.0449 -0.2376
 1019SOL    HW1 3377   1.038   4.361   2.832 -0.8174 -0.0607 -0.5088
 1019SOL    HW2 3378   1.141   4.235   2.841 -0.0387  0.4578 -1.8724
 1020SOL     OW 3379   0.483   2.727   3.287  0.3771  0.5047  0.2927
 1020SOL    HW1 3380   0.446   2.732   3.380 -1.3165 -0.9317 -0.2557
 1020SOL    HW2 3381   0.554   2.656   3.283 -0.5255 -0.4061  0.1958
 1021SOL     OW 3382   0.339   2.917   5.167 -0.5446  0.2059  0.4077
 1021SOL    HW1 3383   0.357   2.920   5.069  2.0774 -0.0100  0.8160
 1021SOL    HW2 3384   0.333   3.010   5.204 -1.0991  0.2834  0.1310
 1022SOL     OW 3385   1.144   2.093   1.284 -0.3071  0.0541 -0.4882
 1022SOL    HW1 3386   1.217   2.046   1.334  2.0412  2.8448 -1.0086
 1022SOL    HW2 3387   1.132   2.185   1.321 -3.1053 -0.0401 -0.9590
 1023SOL     OW 3388   2.222   3.245   1.637  0.7102  0.4980 -0.1265
 1023SOL    HW1 3389   2.187   3.275   1.726 -0.2294 -1.2019  0.1228
 1023SOL    HW2 3390   2.244   3.325   1.582 -2.7426  1.7477  0.0610
 1024SOL     OW 3391   5.434   2.743   3.636 -0.3026 -0.2823 -0.4145
 1024SOL    HW1 3392   5.387   2.712   3.553 -0.8178 -2.6103  0.6801
 1024SOL    HW2 3393   5.518   2.690   3.650  0.9588  1.5784 -0.5623
 1025SOL     OW 3394   2.051   2.273   1.503 -0.1179 -0.5457  0.0995
 1025SOL    HW1 3395   2.040   2.223   1.589  2.2559 -1.3700 -0.0241
 1025SOL    HW2 3396   2.050   2.371   1.522 -2.0594 -0.6358  0.7042
 1026SOL     OW 3397   2.181   4.161   4.460  0.2632  0.5228 -0.0708
 1026SOL    HW1 3398   2.253   4.092   4.444  0.8320  0.8333  1.0322
 1026SOL    HW2 3399   2.199   4.240   4.402 -0.4116 -0.2413 -1.3738
 1027SOL     OW 3400   1.022   3.272   2.032 -0.1115  0.7523 -0.2034
 1027SOL    HW1 3401   1.034   3.181   2.071  0.3193  0.4158 -1.0858
 1027SOL    HW2 3402   1.100   3.293   1.973 -1.6483  0.4158 -2.4731
 1028SOL     OW 3403   1.716   3.955   2.960 -0.3809 -0.8081 -0.7864
 1028SOL    HW1 3404   1.750   3.937   3.052 -1.2113 -4.0940 -0.9643
 1028SOL    HW2 3405   1.624   3.993   2.965  0.2303  0.6549 -0.3037
 1029SOL     OW 3406   2.422   2.213   2.470  0.0978 -0.1091  0.2549
 1029SOL    HW1 3407   2.425   2.288   2.404  0.1619 -0.3380 -0.0033
 1029SOL    HW2 3408   2.512   2.169   2.476  0.4302  0.7124  1.4324
 1030SOL     OW 3409   4.368   1.701   3.198 -0.1663  0.0146  0.0001
 1030SOL    HW1 3410   4.364   1.602   3.201  0.0357 -0.0021 -0.2260
 1030SOL    HW2 3411   4.297   1.740   3.256 -2.2786 -0.2442 -2.2684
 1031SOL     OW 3412   0.499   3.000   1.673 -0.1221  0.4273  0.1837
 1031SOL    HW1 3413   0.465   3.077   1.728  1.2283  0.5036  0.9673
 1031SOL    HW2 3414   0.560   3.035   1.601 -0.5274  0.1878 -0.2797
 1032SOL     OW 3415   1.586   2.173   3.789  0.6483 -0.9329 -0.4920
 1032SOL    HW1 3416   1.680   2.196   3.761  1.1409 -2.2310  0.0341
 1032SOL    HW2 3417   1.557   2.090   3.743  0.6996 -1.9517  1.2398
 1033SOL     OW 3418   2.256   3.321   3.391  0.0222  0.2186 -0.5782
 1033SOL    HW1 3419   2.186   3.389   3.367  0.2802 -0.3570 -3.3159
 1033SOL    HW2 3420   2.222   3.229   3.371  0.3865 -0.3572  1.2541
 1034SOL     OW 3421   1.149   4.477   1.487 -0.1303 -0.2650  0.4802
 1034SOL    HW1 3422   1.153   4.441   1.580  1.1651  0.8443  0.8755
 1034SOL    HW2 3423   1.129   4.575   1.490  1.8843  0.2174 -0.2710
 1035SOL     OW 3424   4.630   3.765   2.603 -0.7562  0.1830 -0.6400
 1035SOL    HW1 3425   4.595   3.801   2.689 -0.1071 -0.3372 -0.1394
 1035SOL    HW2 3426   4.617   3.832   2.530 -0.7265  0.8928  0.0003
 1036SOL     OW 3427   1.696   2.781   3.063  0.2784 -0.1388  0.7051
 1036SOL    HW1 3428   1.633   2.703   3.054 -0.3236  0.4851 -0.8360
 1036SOL    HW2 3429   1.666   2.854   3.003  1.2460  1.0355  1.6141
 1037SOL     OW 3430   1.514   3.173   2.176 -0.1786  0.7247  0.1076
 1037SOL    HW1 3431   1.517   3.074   2.162  1.2524  0.8969 -1.0204
 1037SOL    HW2 3432   1.523   3.194   2.273  1.6971 -0.2153  0.1752
 1038SOL     OW 3433   0.750   0.929   2.563  0.2561 -0.4704 -0.1832
 1038SOL    HW1 3434   0.824   0.866   2.585  2.6452  2.5488  1.3352
 1038SOL    HW2 3435   0.711   0.965   2.648 -1.4555 -0.3565 -0.9866
 1039SOL     OW 3436   0.212   4.297   2.252 -0.7979 -0.3600 -0.6580
 1039SOL    HW1 3437   0.120   4.279   2.218  0.1954 -1.7294 -2.8466
 1039SOL    HW2 3438   0.229   4.243   2.334 -2.1671  0.5142  0.2415
 1040SOL     OW 3439   1.664   2.992   3.248 -0.0374 -0.1591  0.1763
 1040SOL    HW1 3440   1.689   3.058   3.319 -0.9639 -0.1159  0.4871
 1040SOL    HW2 3441   1.706   2.904   3.268  0.8863  0.2264 -0.0252
 1041SOL     OW 3442   0.816   4.199   2.568  0.9078  0.0405 -0.1541
 1041SOL    HW1 3443   0.752   4.203   2.491  1.6487 -0.1102 -0.7887
 1041SOL    HW2 3444   0.870   4.283   2.571 -0.0741  0.6810  1.0783
 1042SOL     OW 3445   0.992   2.512   4.110 -0.0153 -0.4275 -0.0926
 1042SOL    HW1 3446   1.048   2.550   4.036 -0.2244 -0.9225 -0.5140
 1042SOL    HW2 3447   0.940   2.585   4.154 -0.6157 -0.2476 -1.0663
 1043SOL     OW 3448   1.235   2.729   1.985  0.3690  0.0725  0.1917
 1043SOL    HW1 3449   1.210   2.716   1.889 -1.9888  2.4978  0.3664
 1043SOL    HW2 3450   1.327   2.769   1.990 -0.4776  2.3560 -1.2598
 1044SOL     OW 3451   5.015   1.251   1.089 -1.0729  0.0854 -0.1346
 1044SOL    HW1 3452   5.069   1.288   1.165 -0.7649  1.4956 -1.0059
 1044SOL    HW2 3453   4.918   1.253   1.113 -0.9479  0.0890  0.3921
 1045SOL     OW 3454   0.408   2.355   3.497  0.8837 -0.0725 -0.3487
 1045SOL    HW1 3455   0.505   2.334   3.487  1.5592  2.4196  0.3239
 1045SOL    HW2 3456   0.373   2.312   3.581  0.7403 -2.8295 -1.6866
 1046SOL     OW 3457   4.398   2.415   1.791 -0.0928  0.5082  0.0095
 1046SOL    HW1 3458   4.384   2.414   1.692 -0.7519 -0.5871  0.0957
 1046SOL    HW2 3459   4.443   2.330   1.819  0.7197  1.1189  0.5705
 1047SOL     OW 3460   0.387   3.373   1.588 -0.2604  0.1021 -0.3294
 1047SOL    HW1 3461   0.289   3.379   1.571 -0.3996 -0.1947  0.3324
 1047SOL    HW2 3462   0.407   3.289   1.640  0.1580  0.8642  0.7810
 1048SOL     OW 3463   5.563   2.490   2.775 -0.2197 -0.1940  0.4458
 1048SOL    HW1 3464   5.572   2.391   2.767 -0.2911 -0.2159  0.6333
 1048SOL    HW2 3465   5.601   2.534   2.694  2.4444 -0.2188  1.5830
 1049SOL     OW 3466   1.123   4.177   2.059 -0.4566 -0.0893  0.7909
 1049SOL    HW1 3467   1.130   4.114   1.982 -1.4579 -0.8102  1.2661
 1049SOL    HW2 3468   1.065   4.255   2.034 -2.1602 -1.1478  1.3100
 1050SOL     OW 3469   1.508   3.493   2.533  0.5689 -0.3069  0.2057
 1050SOL    HW1 3470   1.438   3.427   2.507 -1.7878  1.7468  0.8708
 1050SOL    HW2 3471   1.498   3.515   2.630  0.1127  2.2066 -0.3337
 1051SOL     OW 3472   2.229   5.377   3.157 -0.6210 -1.0349 -0.5789
 1051SOL    HW1 3473   2.290   5.426   3.220 -1.6355 -0.8058  0.2541
 1051SOL    HW2 3474   2.270   5.375   3.066 -0.9486  2.2347 -0.9260
 1052SOL     OW 3475   5.583   2.508   5.501  0.2236  0.1527  0.2641
 1052SOL    HW1 3476   5.564   2.418   5.540  0.8660 -0.7324 -1.3651
 1052SOL    HW2 3477   5.497   2.558   5.491 -0.1644 -0.3502  0.9986
 1053SOL     OW 3478   1.150   2.227   3.777 -0.0378 -0.3673  0.0168
 1053SOL    HW1 3479   1.156   2.200   3.681 -0.8845  1.6358 -0.6711
 1053SOL    HW2 3480   1.229   2.285   3.800 -0.4541  0.1505  0.1606
 1054SOL     OW 3481   1.617   3.683   1.961 -0.1075 -0.0794  0.5171
 1054SOL    HW1 3482   1.605   3.673   2.060 -0.8712  0.2877  0.4691
 1054SOL    HW2 3483   1.636   3.779   1.939 -1.5880  0.1478  0.1610
 1055SOL     OW 3484   4.796   4.226   1.987  0.3448 -0.2932  0.1159
 1055SOL    HW1 3485   4.697   4.236   1.985  0.5719  3.4704 -0.1387
 1055SOL    HW2 3486   4.829   4.232   2.081  0.4333  0.8815  0.0245
 1056SOL     OW 3487   2.950   1.248   4.282  0.1076 -0.4288 -1.2810
 1056SOL    HW1 3488   3.033   1.298   4.257  1.2116 -1.8017 -0.5428
 1056SOL    HW2 3489   2.918   1.278   4.371  0.5370 -0.7345 -1.0179
 1057SOL     OW 3490   1.548   2.700   4.005 -0.1536  0.2840  0.5393
 1057SOL    HW1 3491   1.592   2.615   4.034 -0.1016  0.0640 -0.1620
 1057SOL    HW2 3492   1.509   2.747   4.085  0.9354  0.2507  1.0988
 1058SOL     OW 3493   0.539   2.892   2.523  0.0691  0.0453  0.0652
 1058SOL    HW1 3494   0.543   2.859   2.617  0.2671  0.3908  0.1773
 1058SOL    HW2 3495   0.451   2.866   2.483  0.0908 -0.3357  0.2556
 1059SOL     OW 3496   0.276   4.278   4.104  0.0234  0.2739  0.1360
 1059SOL    HW1 3497   0.233   4.217   4.038  1.4448  0.8984 -1.4140
 1059SOL    HW2 3498   0.267   4.240   4.196  2.4364 -3.2508 -0.9122
 1060SOL     OW 3499   1.724   2.608   2.042  0.0670  0.3519  0.1379
 1060SOL    HW1 3500   1.738   2.527   2.099 -0.1458 -1.3271 -2.0863
 1060SOL    HW2 3501   1.813   2.647   2.017  0.2914 -0.6335 -0.6908
 1061SOL     OW 3502   1.030   3.069   1.222  0.1636  0.0228 -0.3732
 1061SOL    HW1 3503   0.931   3.057   1.216 -0.2795  1.3939  2.6246
 1061SOL    HW2 3504   1.066   3.089   1.131 -2.2946 -0.4054 -1.5323
 1062SOL     OW 3505   1.654   3.872   1.203  0.2986  0.4065 -0.2080
 1062SOL    HW1 3506   1.635   3.938   1.276 -1.6397  0.8338 -1.0348
 1062SOL    HW2 3507   1.647   3.917   1.114 -2.0816 -1.0315 -0.8469
 1063SOL     OW 3508   1.113   3.231   4.251  0.1046 -0.6742  0.4068
 1063SOL    HW1 3509   1.161   3.318   4.258 -0.2543 -0.3907 -0.4993
 1063SOL    HW2 3510   1.162   3.170   4.189  0.2586 -1.0651  0.8994
 1064SOL     OW 3511   0.025   2.068   3.361  0.0270  0.1638 -0.1588
 1064SOL    HW1 3512   0.111   2.060   3.411 -0.0911 -2.3756 -0.2225
 1064SOL    HW2 3513  -0.051   2.074   3.425  0.0904  0.0598 -0.0745
 1065SOL     OW 3514   0.945   4.323   3.821  0.0016 -0.3325 -0.2538
 1065SOL    HW1 3515   1.025   4.276   3.860  1.1806  0.6586 -1.3665
 1065SOL    HW2 3516   0.975   4.382   3.746 -1.5495  1.5513  0.5255
 1066SOL     OW 3517   1.618   2.170   4.062 -0.1401  0.1671 -0.4449
 1066SOL    HW1 3518   1.587   2.083   4.099 -0.3631  0.4549  0.0500
 1066SOL    HW2 3519   1.611   2.168   3.962 -0.7175 -0.1659 -0.4044
 1067SOL     OW 3520   0.154   3.733   1.919 -0.2188  0.0432  0.2910
 1067SOL    HW1 3521   0.062   3.755   1.885 -0.0333 -1.1366 -1.0269
 1067SOL    HW2 3522   0.146   3.680   2.004 -0.7268  0.5720  0.5844
 1068SOL     OW 3523   2.333   2.714   2.865 -0.4887 -0.2398 -0.1738
 1068SOL    HW1 3524   2.288   2.692   2.952 -0.2077  1.7814  0.5359
 1068SOL    HW2 3525   2.430   2.690   2.871 -0.1794  1.1083  0.5959
 1069SOL     OW 3526   1.701   2.094   2.901  0.2373  0.1747 -0.0535
 1069SOL    HW1 3527   1.714   2.190   2.877 -0.0881  0.4817  0.9420
 1069SOL    HW2 3528   1.789   2.052   2.922  0.4306  0.1256 -0.9478
 1070SOL     OW 3529   1.496   3.729   3.191  0.0277  0.7113 -0.3573
 1070SOL    HW1 3530   1.584   3.773   3.212  0.3389 -0.3490  0.6772
 1070SOL    HW2 3531   1.491   3.711   3.092  1.9404 -1.0945 -0.2122
 1071SOL     OW 3532   1.617   1.599   3.922  0.0697 -0.0917  0.4183
 1071SOL    HW1 3533   1.676   1.518   3.929  1.0945  0.7334  1.8251
 1071SOL    HW2 3534   1.524   1.574   3.949  0.5405 -0.6563  1.5767
 1072SOL     OW 3535   0.388   0.828   2.685  0.0954 -0.2732  0.4618
 1072SOL    HW1 3536   0.307   0.770   2.680 -2.1748  2.7079  0.0347
 1072SOL    HW2 3537   0.433   0.831   2.596  0.2725 -1.3059  0.4989
 1073SOL     OW 3538   1.467   3.835   1.725  0.3336 -0.1081 -0.2779
 1073SOL    HW1 3539   1.524   3.753   1.711 -1.5892 -1.2909 -1.6524
 1073SOL    HW2 3540   1.470   3.891   1.643  0.5167  0.4962  0.1380
 1074SOL     OW 3541   5.109   2.950   2.954 -0.3799  0.4422  0.1328
 1074SOL    HW1 3542   5.202   2.985   2.952 -0.6682  1.2494  0.3994
 1074SOL    HW2 3543   5.061   2.975   2.870 -1.0888  2.1596  0.9948
 1075SOL     OW 3544   5.429   2.298   1.761  0.1395 -0.0068 -0.0503
 1075SOL    HW1 3545   5.416   2.384   1.712  1.2813  0.2294  0.0351
 1075SOL    HW2 3546   5.515   2.301   1.812  0.0285 -1.0740  0.2307
 1076SOL     OW 3547   1.181   1.584   2.021 -0.2209  0.3662 -0.3295
 1076SOL    HW1 3548   1.093   1.553   1.986 -0.2654  0.2212 -0.0831
 1076SOL    HW2 3549   1.176   1.598   2.120  0.4411 -1.0689 -0.0710
 1077SOL     OW 3550   2.553   1.688   2.860 -0.3472 -0.3935 -0.2925
 1077SOL    HW1 3551   2.644   1.685   2.820  0.0689  1.2409  0.4587
 1077SOL    HW2 3552   2.500   1.760   2.816  0.2468  1.7244  2.2416
 1078SOL     OW 3553   5.547   3.182   3.073  0.2674 -0.2940 -0.4289
 1078SOL    HW1 3554   5.554   3.253   3.003 -1.6234 -0.3680 -0.7599
 1078SOL    HW2 3555   5.486   3.214   3.145  1.6036 -0.5185  0.8445
 1079SOL     OW 3556   1.917   3.176   1.965 -0.3812  0.0147 -0.5094
 1079SOL    HW1 3557   1.942   3.115   2.040  0.0107  0.4884 -0.2503
 1079SOL    HW2 3558   1.864   3.253   2.000  1.2922  1.1781 -0.4185
 1080SOL     OW 3559   0.713   2.032   4.248 -0.5813  0.5799  0.2473
 1080SOL    HW1 3560   0.645   2.096   4.213  0.1205  2.5934  2.3669
 1080SOL    HW2 3561   0.670   1.942   4.259 -2.4529  1.3841  0.0330
 1081SOL     OW 3562   5.026   2.815   5.436  0.0319 -0.1883 -0.1132
 1081SOL    HW1 3563   5.087   2.783   5.508  0.8686  1.1922 -0.1656
 1081SOL    HW2 3564   4.990   2.905   5.460 -1.2544 -0.5638 -0.5300
 1082SOL     OW 3565   0.087   1.570   5.242  0.4422  0.3717  0.2660
 1082SOL    HW1 3566   0.050   1.660   5.220 -1.0846 -0.4077 -0.5154
 1082SOL    HW2 3567   0.089   1.558   5.341 -0.7607  0.7145  0.3426
 1083SOL     OW 3568   0.815   2.169   0.015  0.4759 -0.0975 -0.0557
 1083SOL    HW1 3569   0.834   2.161   0.113  1.0688  3.0594  0.1887
 1083SOL    HW2 3570   0.716   2.166   0.001  0.2731  1.3536  0.9056
 1084SOL     OW 3571   1.817   3.750   0.340 -0.3747 -0.2323  0.1270
 1084SOL    HW1 3572   1.829   3.709   0.250  0.3258 -0.1857  0.1935
 1084SOL    HW2 3573   1.816   3.849   0.332  0.2751 -0.2120  0.2308
 1085SOL     OW 3574   2.231   1.876   3.086 -0.1821 -0.2876  0.1658
 1085SOL    HW1 3575   2.293   1.799   3.103  1.3907  1.0660  0.9337
 1085SOL    HW2 3576   2.246   1.911   2.994 -0.4558 -0.5267  0.0313
 1086SOL     OW 3577   2.007   2.779   4.041 -0.0736 -0.5997  0.3954
 1086SOL    HW1 3578   2.037   2.759   3.948 -0.4848  0.2110  0.0837
 1086SOL    HW2 3579   2.065   2.851   4.081 -1.1524  0.4958  0.0294
 1087SOL     OW 3580   1.625   3.457   5.203 -0.0848  0.4993  0.2867
 1087SOL    HW1 3581   1.622   3.513   5.120  0.0952 -0.1945 -0.1891
 1087SOL    HW2 3582   1.553   3.487   5.265 -1.4814 -0.2306 -0.9226
 1088SOL     OW 3583   1.270   2.260   0.313  0.2494  0.2151  0.6443
 1088SOL    HW1 3584   1.274   2.160   0.305 -0.6084  0.2119  0.0511
 1088SOL    HW2 3585   1.258   2.286   0.409 -1.5403 -0.3658  0.6175
 1089SOL     OW 3586   2.114   2.867   5.312 -0.0998 -0.0870 -0.0378
 1089SOL    HW1 3587   2.124   2.869   5.412 -0.0813  0.5538 -0.0511
 1089SOL    HW2 3588   2.204   2.859   5.270  0.2028  2.7022 -0.0739
 1090SOL     OW 3589   1.283   1.803   1.825  0.3721  0.0306  0.0966
 1090SOL    HW1 3590   1.304   1.706   1.833  1.6199  0.1938 -1.0123
 1090SOL    HW2 3591   1.189   1.819   1.856 -1.2293 -2.1053 -3.1495
 1091SOL     OW 3592   5.555   3.477   4.847 -0.1288 -0.1900 -0.1938
 1091SOL    HW1 3593   5.580   3.573   4.838 -0.6002 -0.1487 -1.1485
 1091SOL    HW2 3594   5.538   3.456   4.944  2.0863  0.1353  0.3213
 1092SOL     OW 3595   1.940   3.582   3.571  0.3654 -0.0587 -0.3319
 1092SOL    HW1 3596   1.855   3.585   3.518  0.7364  0.9316 -0.9073
 1092SOL    HW2 3597   1.932   3.513   3.643 -0.7050 -0.3878 -0.7390
 1093SOL     OW 3598   0.175   1.923   0.201 -0.6700  0.2571  0.1404
 1093SOL    HW1 3599   0.120   1.858   0.253 -0.3276 -1.9463 -2.0303
 1093SOL    HW2 3600   0.116   1.994   0.162 -1.3008  0.3675  1.2701
 1094SOL     OW 3601   0.416   2.888   4.042  0.1128 -0.2107  0.2860
 1094SOL    HW1 3602   0.394   2.824   4.115  3.3150 -0.3752  1.2577
 1094SOL    HW2 3603   0.424   2.980   4.079  1.0296 -0.1730  0.0190
 1095SOL     OW 3604   0.606   3.704   3.349  0.0431 -0.0470  0.1983
 1095SOL    HW1 3605   0.686   3.727   3.404 -1.7851  1.6904  2.3625
 1095SOL    HW2 3606   0.533   3.670   3.409 -1.0115 -1.1975 -1.6349
 1096SOL     OW 3607   2.220   3.254   5.235 -0.5667 -0.0085 -0.9916
 1096SOL    HW1 3608   2.251   3.325   5.171  0.7158 -0.0916 -0.4955
 1096SOL    HW2 3609   2.165   3.296   5.307  1.2060  0.7439 -0.0022
 1097SOL     OW 3610   0.603   3.115   4.085  0.1877  0.2159 -0.1263
 1097SOL    HW1 3611   0.664   3.121   4.164 -0.3443  1.5494  0.2036
 1097SOL    HW2 3612   0.653   3.141   4.002  0.8549 -1.5615 -0.3186
 1098SOL     OW 3613   1.458   1.010   5.003 -0.1995  0.0759  0.1491
 1098SOL    HW1 3614   1.505   1.090   4.966 -0.0636 -0.2254 -0.3511
 1098SOL    HW2 3615   1.427   0.952   4.927 -0.3434 -0.3126  0.5005
 1099SOL     OW 3616   0.985   2.966   4.131 -0.1659 -0.2982 -0.3736
 1099SOL    HW1 3617   1.081   2.939   4.134 -0.0906 -0.0236 -0.2522
 1099SOL    HW2 3618   0.953   2.966   4.037 -0.5672 -2.1883 -0.2681
 1100SOL     OW 3619   1.088   2.613   3.378 -0.3057  0.1723  0.0211
 1100SOL    HW1 3620   1.135   2.701   3.389  1.7891 -0.7962 -0.6022
 1100SOL    HW2 3621   1.035   2.593   3.461  0.5636  1.2430  0.8752
 1101SOL     OW 3622   2.349   1.501   5.110  0.1834 -0.1481 -0.2358
 1101SOL    HW1 3623   2.258   1.508   5.071 -0.6039  2.4807  1.7794
 1101SOL    HW2 3624   2.417   1.526   5.042 -0.8689  1.2205 -0.8228
 1102SOL     OW 3625   1.124   3.156   2.384 -0.1438  0.5322  0.3735
 1102SOL    HW1 3626   1.125   3.088   2.310  1.1356 -0.6688  1.4292
 1102SOL    HW2 3627   1.036   3.152   2.431 -0.4401  0.2976 -0.1855
 1103SOL     OW 3628   1.845   4.392   3.990  0.0974  0.3194 -0.2179
 1103SOL    HW1 3629   1.760   4.356   4.028  0.9687  0.1715  1.7461
 1103SOL    HW2 3630   1.892   4.321   3.938 -1.5550  0.7835 -2.5155
 1104SOL     OW 3631   4.585   3.731   4.719  0.1074  0.4184  0.2355
 1104SOL    HW1 3632   4.543   3.640   4.723  0.5882  0.1609 -0.5710
 1104SOL    HW2 3633   4.513   3.799   4.702 -0.3755  0.3042  1.6317
 1105SOL     OW 3634   1.852   3.107   4.078  0.6135  0.1883  0.2364
 1105SOL    HW1 3635   1.828   3.033   4.016  0.1192  0.8522 -0.3881
 1105SOL    HW2 3636   1.934   3.082   4.130  2.1155  0.3029 -1.9415
 1106SOL     OW 3637   0.953   3.361   4.423 -0.0254  0.2691  0.1245
 1106SOL    HW1 3638   0.902   3.319   4.498 -0.4756  0.2344 -0.1943
 1106SOL    HW2 3639   0.999   3.289   4.370  1.2617  0.3783  1.0472
 1107SOL     OW 3640   1.222   2.296   5.340 -0.4971  0.0991  0.0906
 1107SOL    HW1 3641   1.283   2.294   5.419 -1.9008  0.9083  1.2593
 1107SOL    HW2 3642   1.150   2.228   5.353 -0.5237 -0.0158 -0.6697
 1108SOL     OW 3643   1.414   2.949   4.733  0.4412 -0.4807 -0.3392
 1108SOL    HW1 3644   1.410   3.045   4.704 -0.0314 -0.6659 -0.9100
 1108SOL    HW2 3645   1.338   2.899   4.692  1.2567 -1.3231 -0.8680
 1109SOL     OW 3646   0.704   3.592   0.453 -0.0768  0.0660 -0.6305
 1109SOL    HW1 3647   0.706   3.593   0.353  1.0642  1.9980 -0.6305
 1109SOL    HW2 3648   0.791   3.624   0.489 -0.7884  0.2876  0.9897
 1110SOL     OW 3649   0.579   2.090   3.308  0.6950  0.1107  0.6175
 1110SOL    HW1 3650   0.559   1.994   3.290  1.1653 -0.4508  2.7948
 1110SOL    HW2 3651   0.670   2.098   3.349  0.4555  1.4253  0.9413
 1111SOL     OW 3652   1.363   3.212   5.518 -0.0850 -0.2464  0.0299
 1111SOL    HW1 3653   1.345   3.169   5.430 -1.4226  2.3952 -1.0897
 1111SOL    HW2 3654   1.281   3.209   5.575 -0.6222  1.8293 -0.5699
 1112SOL     OW 3655   1.383   3.537   4.938  0.0030 -0.4434  0.0145
 1112SOL    HW1 3656   1.363   3.462   4.874  0.4109 -2.6237  2.2877
 1112SOL    HW2 3657   1.457   3.594   4.900 -0.1795 -1.2808 -1.6982
 1113SOL     OW 3658   1.096   4.601   5.153  0.2025  0.1905  0.0175
 1113SOL    HW1 3659   1.079   4.682   5.210 -0.1252 -0.0221  0.2256
 1113SOL    HW2 3660   1.083   4.519   5.208  0.1849 -0.0113 -0.2875
 1114SOL     OW 3661   0.990   2.178   4.557 -0.1781  0.3100 -0.0669
 1114SOL    HW1 3662   1.028   2.270   4.554  0.1395  0.1685 -0.7172
 1114SOL    HW2 3663   0.971   2.147   4.463  1.5857 -1.0388 -0.0326
 1115SOL     OW 3664   1.305   3.944   0.163 -0.1691  0.4144 -0.3957
 1115SOL    HW1 3665   1.383   3.943   0.100  2.0508 -2.0019  2.0906
 1115SOL    HW2 3666   1.315   4.021   0.226 -2.2063  2.6234 -2.5541
 1116SOL     OW 3667   1.374   3.875   3.548 -0.2497  0.3286  0.2203
 1116SOL    HW1 3668   1.342   3.851   3.457 -1.6513 -0.1477  0.8227
 1116SOL    HW2 3669   1.445   3.810   3.577 -0.3994 -0.0201 -0.1876
 1117SOL     OW 3670   1.236   2.534   4.311  0.4199  0.0262  0.5876
 1117SOL    HW1 3671   1.222   2.471   4.234  0.6631  2.0720 -1.2063
 1117SOL    HW2 3672   1.329   2.524   4.346  0.5905 -0.3252  0.0516
 1118SOL     OW 3673   1.249   2.776   4.633  0.1650 -0.0932  0.2616
 1118SOL    HW1 3674   1.214   2.739   4.547  1.1381 -1.4647  0.4215
 1118SOL    HW2 3675   1.184   2.757   4.706  0.6126 -1.4469  0.3225
 1119SOL     OW 3676   2.154   4.760   4.097 -0.0902  0.3367 -0.8132
 1119SOL    HW1 3677   2.101   4.823   4.154  0.5190 -0.6137  0.8772
 1119SOL    HW2 3678   2.247   4.794   4.088  0.1143 -0.0565 -0.2803
 1120SOL     OW 3679   1.298   1.575   0.412  0.2815 -0.5182  0.5506
 1120SOL    HW1 3680   1.248   1.611   0.490  0.3009 -0.9079  0.7483
 1120SOL    HW2 3681   1.252   1.492   0.378  0.2087 -0.2884  0.0781
 1121SOL     OW 3682   1.423   2.564   5.526  0.4455 -0.1160  0.9146
 1121SOL    HW1 3683   1.389   2.479   5.565 -1.9789  1.1640  1.7490
 1121SOL    HW2 3684   1.405   2.640   5.588  2.3511  1.0966  0.0987
 1122SOL     OW 3685   2.180   3.032   0.478 -0.1507 -0.0867  0.1056
 1122SOL    HW1 3686   2.111   3.103   0.459 -0.6128  0.9216  4.4860
 1122SOL    HW2 3687   2.270   3.066   0.453 -0.7780  0.2000 -1.9443
 1123SOL     OW 3688   1.534   2.532   5.075  0.6453 -0.0146 -1.1553
 1123SOL    HW1 3689   1.504   2.615   5.028  0.0806  0.6276  0.2641
 1123SOL    HW2 3690   1.627   2.545   5.110  0.4489  0.1444 -0.6811
 1124SOL     OW 3691   1.851   3.827   3.809 -0.6373 -0.2741 -0.2061
 1124SOL    HW1 3692   1.766   3.839   3.861  0.0582 -0.2997  0.9534
 1124SOL    HW2 3693   1.853   3.894   3.734 -1.4836  0.0171  0.0201
 1125SOL     OW 3694   0.928   2.955   4.804 -0.6149  0.1485 -0.2693
 1125SOL    HW1 3695   0.987   2.883   4.838 -0.4226  0.9032  1.0777
 1125SOL    HW2 3696   0.984   3.032   4.772 -0.8353  0.4679  0.0971
 1126SOL     OW 3697   1.011   3.092   5.406 -0.9075  0.1634 -0.2221
 1126SOL    HW1 3698   1.045   3.141   5.326  0.0029 -1.3155 -0.7630
 1126SOL    HW2 3699   0.934   3.034   5.379 -0.7542 -0.1553  0.0276
 1127SOL     OW 3700   1.657   2.378   3.116  0.1040  0.5604  0.5586
 1127SOL    HW1 3701   1.670   2.292   3.165 -0.0607  0.2183  0.0051
 1127SOL    HW2 3702   1.706   2.375   3.029 -1.1902  0.4134 -0.1795
 1128SOL     OW 3703   2.070   2.429   0.173 -0.3002 -0.3106  0.2587
 1128SOL    HW1 3704   2.059   2.488   0.093  0.3630 -0.7754 -0.1868
 1128SOL    HW2 3705   1.989   2.437   0.232 -0.3697  0.7642  0.0304
 1129SOL     OW 3706   2.526   2.910   5.303  0.7054 -0.3574 -0.1499
 1129SOL    HW1 3707   2.541   2.882   5.398  2.4195 -1.3312 -0.6592
 1129SOL    HW2 3708   2.458   2.850   5.261 -3.1835  2.5207  1.4802
 1130SOL     OW 3709   0.302   1.705   4.802  0.1964 -0.5372  0.1807
 1130SOL    HW1 3710   0.212   1.747   4.813  0.3219  0.0334 -0.8158
 1130SOL    HW2 3711   0.360   1.730   4.880 -0.4304 -0.7323  0.7215
 1131SOL     OW 3712   1.578   4.312   4.056  0.8133  0.2147  0.8485
 1131SOL    HW1 3713   1.511   4.387   4.060  1.5363  0.8900  0.6103
 1131SOL    HW2 3714   1.533   4.226   4.078 -0.4556  0.4521 -0.5997
 1132SOL     OW 3715   0.103   2.942   0.172 -0.3817 -0.0033 -0.3270
 1132SOL    HW1 3716   0.088   2.870   0.104  0.7065 -0.0063 -0.5905
 1132SOL    HW2 3717   0.074   2.909   0.261  0.8670 -1.1291 -0.2887
 1133SOL     OW 3718   1.599   3.020   3.787 -1.1266 -0.0556  0.1535
 1133SOL    HW1 3719   1.653   2.967   3.851  0.0481  1.1881  0.2422
 1133SOL    HW2 3720   1.519   3.059   3.833  0.3595  1.8562  1.2564
 1134SOL     OW 3721   0.567   2.210   0.311 -0.0684 -0.1325 -0.3762
 1134SOL    HW1 3722   0.596   2.288   0.256  0.3934 -1.1669 -1.6813
 1134SOL    HW2 3723   0.642   2.144   0.318  0.3915  0.5884  2.7999
 1135SOL     OW 3724   1.888   2.695   4.305 -0.3278 -0.2468 -0.2877
 1135SOL    HW1 3725   1.911   2.750   4.225 -1.0068  0.3595 -0.0742
 1135SOL    HW2 3726   1.971   2.682   4.360 -0.2895  1.2213  0.0541
 1136SOL     OW 3727   2.160   3.684   4.894 -0.2444 -0.2283 -0.4927
 1136SOL    HW1 3728   2.097   3.713   4.821 -0.9814  0.5189  0.4209
 1136SOL    HW2 3729   2.118   3.700   4.983 -0.1324 -2.8717  0.1188
 1137SOL     OW 3730   0.629   3.333   0.492  0.5070  0.1190 -0.6718
 1137SOL    HW1 3731   0.542   3.330   0.443 -0.3897  0.5051  0.8594
 1137SOL    HW2 3732   0.665   3.427   0.491  0.1735  0.2523 -0.0467
 1138SOL     OW 3733   0.873   4.451   3.383 -0.6990 -0.1316 -0.4847
 1138SOL    HW1 3734   0.791   4.393   3.387 -0.6908 -0.1119  1.9555
 1138SOL    HW2 3735   0.845   4.547   3.377 -0.9256 -0.0815  0.9813
 1139SOL     OW 3736   4.742   1.258   5.540  0.4149  0.2904 -0.6695
 1139SOL    HW1 3737   4.645   1.276   5.558  0.1386  1.1568 -2.7314
 1139SOL    HW2 3738   4.798   1.329   5.584  0.0993  0.0625  0.1200
 1140SOL     OW 3739   2.094   3.693   3.867 -0.0466 -0.5595  0.0145
 1140SOL    HW1 3740   2.170   3.713   3.804  0.3815 -2.0954 -0.0039
 1140SOL    HW2 3741   2.011   3.737   3.834  0.9962  1.9679  0.5406
 1141SOL     OW 3742   0.867   2.725   4.247 -0.4749  0.3436 -0.3219
 1141SOL    HW1 3743   0.781   2.684   4.279 -0.4190  0.3421 -0.1701
 1141SOL    HW2 3744   0.850   2.816   4.211 -0.4653  0.5446  0.1753
 1142SOL     OW 3745   1.691   2.937   4.852  0.2206  0.0802 -0.2124
 1142SOL    HW1 3746   1.606   2.962   4.806 -0.0964 -0.1014  0.2591
 1142SOL    HW2 3747   1.720   3.011   4.912  1.2238  0.7660 -1.5053
 1143SOL     OW 3748   0.122   2.574   4.822 -0.6257 -0.1208 -0.1986
 1143SOL    HW1 3749   0.110   2.483   4.783  1.2722  0.0711 -1.3667
 1143SOL    HW2 3750   0.191   2.570   4.895 -1.1891  0.2322  0.3584
 1144SOL     OW 3751   1.359   3.138   4.556 -0.4803 -0.3546  0.2202
 1144SOL    HW1 3752   1.445   3.124   4.507 -1.3327  0.6398 -1.7070
 1144SOL    HW2 3753   1.286   3.086   4.511 -0.8633 -1.3854  1.9683
 1145SOL     OW 3754   5.101   3.171   3.186 -0.4882  0.6058  0.7394
 1145SOL    HW1 3755   5.048   3.218   3.116 -1.0837 -1.1444 -0.0353
 1145SOL    HW2 3756   5.065   3.078   3.200  2.2984 -0.6932  0.1571
 1146SOL     OW 3757   1.604   3.004   0.789  0.3921  0.5809  0.3266
 1146SOL    HW1 3758   1.556   3.048   0.713  0.5290  0.7082  0.3147
 1146SOL    HW2 3759   1.541   2.941   0.835  0.2832  0.5686  0.1624
 1147SOL     OW 3760   2.230   1.209   3.863 -0.2854 -0.1075  0.4328
 1147SOL    HW1 3761   2.289   1.188   3.786 -1.3644 -0.4101 -0.3337
 1147SOL    HW2 3762   2.210   1.126   3.914 -2.0519 -0.4874 -0.7906
 1148SOL     OW 3763   1.084   1.717   4.775  0.5278  0.2746 -0.3473
 1148SOL    HW1 3764   1.026   1.696   4.853  0.7190  0.5161 -0.1399
 1148SOL    HW2 3765   1.055   1.804   4.734  1.4405  0.9564  0.4291
 1149SOL     OW 3766   0.745   3.660   4.214  0.0736  0.0344  0.2985
 1149SOL    HW1 3767   0.716   3.756   4.205  0.1044  0.1082  0.9976
 1149SOL    HW2 3768   0.836   3.656   4.255  0.5842 -0.2518 -0.8119
 1150SOL     OW 3769   1.975   3.662   5.110  0.0379 -0.4085 -0.6987
 1150SOL    HW1 3770   1.882   3.698   5.103 -0.4984 -1.5576  0.2456
 1150SOL    HW2 3771   1.973   3.568   5.144  1.4404 -1.1231 -2.3736
 1151SOL     OW 3772   1.060   3.144   3.805 -0.2197  0.6191 -0.2860
 1151SOL    HW1 3773   1.022   3.052   3.793 -0.4984  0.8693 -1.5227
 1151SOL    HW2 3774   1.107   3.171   3.720  3.1210  0.1763  1.2633
 1152SOL     OW 3775   1.680   0.518   4.297 -0.3141 -0.0973  0.1360
 1152SOL    HW1 3776   1.655   0.424   4.318 -1.1494  0.3853  1.4365
 1152SOL    HW2 3777   1.597   0.571   4.277  0.1160  0.4188 -0.3044
 1153SOL     OW 3778   4.930   1.640   3.764 -0.1175  0.1137 -0.1934
 1153SOL    HW1 3779   4.872   1.579   3.818 -0.8328 -0.3297 -1.4231
 1153SOL    HW2 3780   4.873   1.690   3.699  0.7096  0.7522 -0.4440
 1154SOL     OW 3781   1.358   2.527   3.380 -0.5250  0.3592  0.1900
 1154SOL    HW1 3782   1.390   2.607   3.431  0.2526  1.0410 -1.3236
 1154SOL    HW2 3783   1.258   2.525   3.381 -0.5935  1.9827 -0.6773
 1155SOL     OW 3784   0.666   2.744   4.537  0.0786 -0.1909 -0.0054
 1155SOL    HW1 3785   0.649   2.714   4.443 -1.2592  0.0936  0.1355
 1155SOL    HW2 3786   0.722   2.826   4.536  0.0694 -0.1881 -0.5532
 1156SOL     OW 3787   0.683   3.003   4.964  0.1322 -0.1151 -0.4504
 1156SOL    HW1 3788   0.766   3.007   4.909 -0.5241 -1.5695 -1.6265
 1156SOL    HW2 3789   0.675   2.912   5.006  0.8235  1.0637  2.4845
 1157SOL     OW 3790   1.098   2.848   5.516  0.2974  0.1976  0.2094
 1157SOL    HW1 3791   1.062   2.934   5.480  1.9708  1.2675  0.9702
 1157SOL    HW2 3792   1.022   2.792   5.549 -1.0033  0.4831 -2.1072
 1158SOL     OW 3793   0.897   4.133   4.818  0.1049 -0.1865 -0.0651
 1158SOL    HW1 3794   0.940   4.203   4.760 -0.1185 -0.3483 -0.4318
 1158SOL    HW2 3795   0.960   4.056   4.829  0.4679  0.1978  0.5843
 1159SOL     OW 3796   1.085   2.750   4.406 -0.1413  0.0231  0.0553
 1159SOL    HW1 3797   1.149   2.678   4.381 -0.1037 -0.4657  1.4480
 1159SOL    HW2 3798   1.003   2.744   4.350 -1.2760 -2.7891  1.7881
 1160SOL     OW 3799   0.591   3.213   4.368  0.1573  0.0010  0.2943
 1160SOL    HW1 3800   0.602   3.312   4.359  1.4514 -0.0753  0.8415
 1160SOL    HW2 3801   0.681   3.170   4.377 -0.3610 -1.2673 -0.2604
 1161SOL     OW 3802   2.049   2.415   3.879  1.3457 -0.4752  0.0524
 1161SOL    HW1 3803   1.989   2.429   3.958 -1.4487 -1.4601 -1.7683
 1161SOL    HW2 3804   2.123   2.352   3.905 -0.9734 -2.8782  1.2875
 1162SOL     OW 3805   5.295   1.726   4.212 -0.6872 -0.2299 -0.4246
 1162SOL    HW1 3806   5.284   1.628   4.230 -1.9319 -0.0917 -0.3347
 1162SOL    HW2 3807   5.231   1.778   4.269 -0.6059  0.5798 -1.0534
 1163SOL     OW 3808   0.397   1.531   5.207 -0.1967  0.1287 -0.0355
 1163SOL    HW1 3809   0.466   1.531   5.280 -0.4264 -2.5157  0.2913
 1163SOL    HW2 3810   0.310   1.563   5.244 -0.3429 -1.3058  0.9331
 1164SOL     OW 3811   1.981   2.057   4.602  0.1359 -0.0081 -0.3601
 1164SOL    HW1 3812   1.927   2.029   4.682 -0.6468 -0.7317 -1.1183
 1164SOL    HW2 3813   2.078   2.038   4.619 -0.0723 -0.6038  0.2390
 1165SOL     OW 3814   5.569   1.462   4.456  0.1790  0.5702  0.2021
 1165SOL    HW1 3815   5.643   1.431   4.396 -0.3787 -1.0259  0.2804
 1165SOL    HW2 3816   5.493   1.397   4.452 -0.7430  1.5431  1.0394
 1166SOL     OW 3817   1.780   3.080   5.081 -0.1942 -0.3459  0.0803
 1166SOL    HW1 3818   1.854   3.146   5.073 -1.8892  1.5755 -0.5692
 1166SOL    HW2 3819   1.703   3.121   5.130 -1.6769 -1.4867 -1.1703
 1167SOL     OW 3820   1.622   2.091   4.987 -0.6193  0.3104  0.0922
 1167SOL    HW1 3821   1.577   2.163   5.041  1.1782  0.9199  0.8830
 1167SOL    HW2 3822   1.646   2.015   5.048  0.6851  0.6438  0.0372
 1168SOL     OW 3823   1.949   3.059   4.528  0.1452  0.3140 -0.0835
 1168SOL    HW1 3824   1.870   3.004   4.501  0.9952 -1.2332  0.4642
 1168SOL    HW2 3825   2.033   3.010   4.507  1.0016  1.9727 -0.7555
 1169SOL     OW 3826   1.503   4.134   3.619 -0.5423  0.3182 -0.2842
 1169SOL    HW1 3827   1.427   4.070   3.615  0.4019 -0.9349  0.7462
 1169SOL    HW2 3828   1.487   4.202   3.691 -1.4564  1.1741 -1.2519
 1170SOL     OW 3829   2.357   3.346   4.789  0.0866  0.5282 -0.3474
 1170SOL    HW1 3830   2.284   3.362   4.724 -0.0271  3.2473  0.3103
 1170SOL    HW2 3831   2.444   3.378   4.750  0.4480 -0.1232 -0.0889
 1171SOL     OW 3832   1.861   0.993   4.627  0.0799 -0.5263  0.3782
 1171SOL    HW1 3833   1.936   1.034   4.678 -0.8114 -1.1650  2.2819
 1171SOL    HW2 3834   1.830   0.910   4.673 -1.6959 -0.3554 -0.4176
 1172SOL     OW 3835   0.709   2.412   3.762  0.2941  0.1812  0.1685
 1172SOL    HW1 3836   0.703   2.395   3.860 -1.6024  0.5533  0.1528
 1172SOL    HW2 3837   0.712   2.511   3.746  0.4882  0.1238 -0.1561
 1173SOL     OW 3838   1.912   2.769   4.722  0.2371 -0.0787 -0.7747
 1173SOL    HW1 3839   1.847   2.837   4.756 -0.4839 -1.7588  1.4478
 1173SOL    HW2 3840   2.005   2.796   4.748  0.2225  1.1349 -1.8827
 1174SOL     OW 3841   1.373   2.416   4.674  0.2075 -0.3885  0.6090
 1174SOL    HW1 3842   1.370   2.444   4.769  0.0029  1.2792  0.1343
 1174SOL    HW2 3843   1.468   2.411   4.643  0.2228  0.7035  0.4535
 1175SOL     OW 3844   2.775   4.396   5.339 -0.2609 -0.0320  0.4633
 1175SOL    HW1 3845   2.774   4.458   5.260  2.2772 -0.7998 -0.2437
 1175SOL    HW2 3846   2.822   4.439   5.415  0.8557 -0.7529  0.2102
 1176SOL     OW 3847   0.237   3.452   3.985  0.0219 -0.0345 -0.1756
 1176SOL    HW1 3848   0.305   3.515   3.946  1.1162 -0.7859  0.4719
 1176SOL    HW2 3849   0.263   3.358   3.965 -1.7092 -0.3137 -1.2984
 1177SOL     OW 3850   1.218   2.709   0.285  0.0760 -0.3645  0.1130
 1177SOL    HW1 3851   1.190   2.635   0.346 -0.8469  0.9925  1.3945
 1177SOL    HW2 3852   1.164   2.791   0.304  1.0634  0.6598 -1.2671
 1178SOL     OW 3853   1.455   2.803   5.360 -0.6764  0.2835  0.3279
 1178SOL    HW1 3854   1.517   2.835   5.288  0.3570  4.2562  2.7355
 1178SOL    HW2 3855   1.494   2.721   5.403 -2.1553 -3.4011 -4.3962
 1179SOL     OW 3856   0.628   2.861   0.503  0.1603 -0.0277  0.1451
 1179SOL    HW1 3857   0.723   2.860   0.536  0.6049  1.0115 -1.0069
 1179SOL    HW2 3858   0.617   2.935   0.437 -1.8860  0.9417  1.4609
 1180SOL     OW 3859   1.470   2.560   3.039  0.2551 -0.0046  0.5609
 1180SOL    HW1 3860   1.438   2.558   2.945 -0.5671  1.0147  0.7963
 1180SOL    HW2 3861   1.520   2.476   3.060  1.5652  0.3066 -1.1527
 1181SOL     OW 3862   0.633   2.217   4.542 -0.0361 -0.5836  0.6758
 1181SOL    HW1 3863   0.616   2.118   4.538  1.6792 -1.1027  3.4075
 1181SOL    HW2 3864   0.715   2.234   4.596  0.1977  2.3458 -0.4399
 1182SOL     OW 3865   0.216   2.171   4.952 -0.6552 -0.3142 -0.0291
 1182SOL    HW1 3866   0.245   2.087   4.996  0.1332 -0.7105 -1.2692
 1182SOL    HW2 3867   0.118   2.186   4.969 -1.0361 -1.9804 -0.5784
 1183SOL     OW 3868   4.537   4.556   5.399 -0.0998  0.0210 -0.2803
 1183SOL    HW1 3869   4.593   4.485   5.444 -0.2798 -0.5839 -1.0003
 1183SOL    HW2 3870   4.598   4.621   5.354  0.0513  0.0018 -0.1101
 1184SOL     OW 3871   0.730   3.130   3.849  0.1239  0.3085 -0.4516
 1184SOL    HW1 3872   0.685   3.088   3.770  3.4085 -1.5824 -1.5219
 1184SOL    HW2 3873   0.784   3.209   3.818  0.6660  0.1389  0.0448
 1185SOL     OW 3874   0.340   1.993   4.057 -0.6366 -0.2562  0.0783
 1185SOL    HW1 3875   0.259   2.008   3.999 -1.3020 -1.4351  0.6521
 1185SOL    HW2 3876   0.318   2.018   4.151  0.4755  1.7528 -0.1563
 1186SOL     OW 3877   1.135   3.291   3.589  0.0113  0.6659  1.0856
 1186SOL    HW1 3878   1.227   3.322   3.565  0.1681 -0.4178  0.2171
 1186SOL    HW2 3879   1.071   3.318   3.518  0.2082 -1.2075  0.1429
 1187SOL     OW 3880   1.843   4.630   4.913 -0.3771  0.1805  0.0768
 1187SOL    HW1 3881   1.830   4.728   4.928  0.5418  0.1586  1.1588
 1187SOL    HW2 3882   1.917   4.616   4.848 -0.6026  0.2034 -0.1861
 1188SOL     OW 3883   3.129   2.250   4.843 -0.1521 -0.4362 -0.3714
 1188SOL    HW1 3884   3.062   2.285   4.909  0.9217 -1.1002  1.1529
 1188SOL    HW2 3885   3.125   2.150   4.842 -0.2321 -0.4278 -1.4313
 1189SOL     OW 3886   2.313   2.619   5.527 -0.3422 -0.2614  0.0461
 1189SOL    HW1 3887   2.372   2.551   5.572 -0.8055 -0.9795 -0.3966
 1189SOL    HW2 3888   2.225   2.624   5.575 -2.0078 -3.1799 -2.2779
 1190SOL     OW 3889   1.656   2.847   5.201  0.3962  0.3374  0.2784
 1190SOL    HW1 3890   1.686   2.759   5.165 -0.4443  0.2023 -0.1290
 1190SOL    HW2 3891   1.705   2.921   5.155  0.7905  0.0925  0.3063
 1191SOL     OW 3892   1.748   1.344   0.197 -0.3568 -0.0112 -0.3425
 1191SOL    HW1 3893   1.833   1.306   0.235 -0.2794 -0.6963 -1.1706
 1191SOL    HW2 3894   1.681   1.355   0.271  0.4046  0.4055  0.2934
 1192SOL     OW 3895   5.505   1.636   0.041  0.0408  0.0646 -0.2592
 1192SOL    HW1 3896   5.512   1.621   0.140  1.5320 -0.6017 -0.4511
 1192SOL    HW2 3897   5.433   1.577   0.003 -0.3754  0.1500  0.3781
 1193SOL     OW 3898   1.078   2.037   3.954 -0.2173  0.0825 -0.3130
 1193SOL    HW1 3899   1.090   2.104   3.880 -0.3376  1.7132  1.0845
 1193SOL    HW2 3900   1.124   2.070   4.036 -0.7047 -1.3461  0.5636
 1194SOL     OW 3901   1.590   1.484   4.640 -0.1175 -0.0888  0.2024
 1194SOL    HW1 3902   1.512   1.460   4.582 -0.5333  0.1088  0.6727
 1194SOL    HW2 3903   1.638   1.401   4.667 -0.5587 -0.2715  0.4475
 1195SOL     OW 3904   1.480   2.767   4.249 -0.3409 -0.1772  0.1377
 1195SOL    HW1 3905   1.488   2.674   4.284  0.0211  0.2696  1.2737
 1195SOL    HW2 3906   1.545   2.826   4.296 -1.3755  0.8872  0.2767
 1196SOL     OW 3907   4.930   1.329   4.024  0.6540 -0.1281  0.3814
 1196SOL    HW1 3908   4.842   1.358   4.062  0.0658 -2.4365  0.9380
 1196SOL    HW2 3909   4.967   1.254   4.079  2.9616  0.7059  0.0958
 1197SOL     OW 3910   0.908   1.183   4.470 -0.2415 -0.3298  0.6256
 1197SOL    HW1 3911   0.867   1.251   4.532 -2.0754 -1.4992  0.7735
 1197SOL    HW2 3912   0.873   1.092   4.493 -0.5315 -0.8870 -1.7518
 1198SOL     OW 3913   1.162   3.265   5.202 -0.0425 -0.2298 -0.4413
 1198SOL    HW1 3914   1.219   3.343   5.228 -1.1004  0.5829 -0.4659
 1198SOL    HW2 3915   1.210   3.209   5.135  0.9265  0.1406 -0.0701
 1199SOL     OW 3916   0.916   2.467   5.073  0.6218 -0.7164  0.3127
 1199SOL    HW1 3917   1.011   2.488   5.051  1.1547 -1.3352  1.9201
 1199SOL    HW2 3918   0.896   2.372   5.051  0.8627 -1.0456  1.4361
 1200SOL     OW 3919   0.698   1.322   3.947 -0.2420 -0.2546  0.5729
 1200SOL    HW1 3920   0.613   1.354   3.904 -0.0331  0.0295  0.3671
 1200SOL    HW2 3921   0.761   1.399   3.957 -0.0887 -0.4235  0.9186
 1201SOL     OW 3922   1.661   2.360   4.831  0.1584 -0.1055 -0.0834
 1201SOL    HW1 3923   1.656   2.426   4.905  0.2549 -0.5650  0.3414
 1201SOL    HW2 3924   1.664   2.267   4.869 -1.8830 -0.4828 -0.6789
 1202SOL     OW 3925   0.539   1.621   4.078 -0.0022 -0.0998 -0.0898
 1202SOL    HW1 3926   0.496   1.593   3.992 -1.5761  0.1143  0.6118
 1202SOL    HW2 3927   0.539   1.545   4.142  0.3114  0.0301  0.0689
 1203SOL     OW 3928   1.137   3.012   4.458 -0.6790  0.5873 -0.1667
 1203SOL    HW1 3929   1.143   2.913   4.451  1.4526  0.6104  0.4192
 1203SOL    HW2 3930   1.126   3.052   4.366  0.1111 -0.1358 -0.5907
 1204SOL     OW 3931   2.651   3.014   0.091  0.1187 -0.3344  0.0675
 1204SOL    HW1 3932   2.572   2.964   0.056 -1.0342  1.0891  0.5377
 1204SOL    HW2 3933   2.684   2.970   0.175  0.3045 -1.3554 -0.5236
 1205SOL     OW 3934   0.525   2.517   4.881  0.6547  0.2248 -0.3796
 1205SOL    HW1 3935   0.473   2.547   4.802  0.0987 -0.6463 -0.3643
 1205SOL    HW2 3936   0.623   2.529   4.864  0.5328  0.1204 -1.1662
 1206SOL     OW 3937   2.476   1.361   2.290 -0.3874 -0.7196  0.0644
 1206SOL    HW1 3938   2.547   1.309   2.338  1.1578  1.6862  0.5946
 1206SOL    HW2 3939   2.509   1.454   2.274 -2.9393  0.0852 -0.9553
 1207SOL     OW 3940   1.492   2.387   2.534  0.0311 -0.1612 -0.4627
 1207SOL    HW1 3941   1.586   2.420   2.538  0.0246 -0.0534 -1.1160
 1207SOL    HW2 3942   1.492   2.288   2.523  0.0510 -0.3871  1.2522
 1208SOL     OW 3943   1.803   3.918   4.694  0.0073  0.1118 -0.6999
 1208SOL    HW1 3944   1.794   3.948   4.599  1.4013 -0.1617 -0.9442
 1208SOL    HW2 3945   1.899   3.926   4.722 -0.1614 -1.0683  0.2600
 1209SOL     OW 3946   1.336   1.567   4.526 -0.3394  0.1285 -0.4546
 1209SOL    HW1 3947   1.369   1.600   4.438 -0.5571  1.0818 -0.2006
 1209SOL    HW2 3948   1.356   1.636   4.596 -2.8149  0.7517 -0.2793
 1210SOL     OW 3949   1.055   2.743   4.879 -0.2090 -0.7055  0.0260
 1210SOL    HW1 3950   1.090   2.782   4.964 -1.3503  0.0631  0.1693
 1210SOL    HW2 3951   0.964   2.705   4.895 -0.3362 -0.7673 -0.8011
 1211SOL     OW 3952   1.703   0.338   0.340  0.2097  0.0277 -0.5029
 1211SOL    HW1 3953   1.619   0.288   0.319  0.3083 -0.3503 -0.0309
 1211SOL    HW2 3954   1.781   0.291   0.301  0.1986  0.4123 -0.9934
 1212SOL     OW 3955   1.684   1.128   5.422  0.7363 -0.3922 -0.1422
 1212SOL    HW1 3956   1.656   1.034   5.444 -2.1383  0.5413  0.5930
 1212SOL    HW2 3957   1.630   1.162   5.345 -0.4438  1.5974  1.4657
 1213SOL     OW 3958   5.475   2.268   4.174 -0.4784 -0.3408 -0.1609
 1213SOL    HW1 3959   5.481   2.356   4.221 -0.8377  0.4162 -1.4774
 1213SOL    HW2 3960   5.409   2.209   4.220 -1.5262  0.7359 -0.2581
 1214SOL     OW 3961   0.921   2.741   5.215  0.2759  0.6319  0.2181
 1214SOL    HW1 3962   0.858   2.739   5.137  1.7027  1.8326 -1.0399
 1214SOL    HW2 3963   1.012   2.768   5.183  1.3108 -0.4776  2.0686
 1215SOL     OW 3964   0.992   4.375   4.716 -0.6797  0.2893 -0.4774
 1215SOL    HW1 3965   0.985   4.461   4.767 -1.5249 -0.5380  0.8639
 1215SOL    HW2 3966   0.999   4.395   4.618  0.5345  1.9192 -0.1108
 1216SOL     OW 3967   0.647   2.135   5.108  0.0654 -0.2063  0.0843
 1216SOL    HW1 3968   0.578   2.192   5.153 -0.6486 -1.3262  0.4397
 1216SOL    HW2 3969   0.634   2.039   5.134  1.5000 -0.4985 -0.1803
 1217SOL     OW 3970   1.600   3.056   4.484  0.2500 -0.2527  0.3098
 1217SOL    HW1 3971   1.580   3.101   4.397  2.7160 -0.8829 -0.6651
 1217SOL    HW2 3972   1.628   2.962   4.468 -1.0050 -0.9741  1.9973
 1218SOL     OW 3973   1.060   2.383   0.168 -0.0390 -0.4889  0.1152
 1218SOL    HW1 3974   1.039   2.313   0.099 -2.6973 -0.8815  1.2041
 1218SOL    HW2 3975   1.128   2.347   0.232 -0.1144 -1.4264 -0.3080
 1219SOL     OW 3976   1.697   1.882   4.415 -0.1532 -0.0276  0.0500
 1219SOL    HW1 3977   1.707   1.975   4.379 -0.3415  0.1273  0.3869
 1219SOL    HW2 3978   1.758   1.820   4.366 -0.8751  0.0535 -0.9904
 1220SOL     OW 3979   2.341   3.016   3.516  0.0804 -0.0374 -0.3561
 1220SOL    HW1 3980   2.294   3.028   3.604 -1.7706  1.6871 -1.4855
 1220SOL    HW2 3981   2.409   3.089   3.505 -0.3083  0.2742 -0.7127
 1221SOL     OW 3982   1.374   2.036   4.145  0.3773 -0.3096 -0.5800
 1221SOL    HW1 3983   1.361   1.988   4.232  2.4246  1.0820  0.5601
 1221SOL    HW2 3984   1.370   2.134   4.161  0.9778 -0.0318 -2.0380
 1222SOL     OW 3985   1.076   3.527   3.700 -0.4040 -0.2694 -0.0746
 1222SOL    HW1 3986   1.093   3.440   3.652  0.9971 -0.4704  0.7355
 1222SOL    HW2 3987   1.100   3.603   3.640  0.6618 -0.5040  0.0430
 1223SOL     OW 3988   1.632   1.611   5.123 -0.4191 -0.2988  0.0983
 1223SOL    HW1 3989   1.592   1.585   5.035 -1.0647 -1.3213  0.6747
 1223SOL    HW2 3990   1.559   1.623   5.190 -0.0170  1.5981  0.2316
 1224SOL     OW 3991   0.565   4.650   0.169 -0.3642  0.3725 -0.1676
 1224SOL    HW1 3992   0.654   4.651   0.125 -0.2099  1.8179  0.1342
 1224SOL    HW2 3993   0.574   4.619   0.264 -0.5258 -1.5563 -0.7280
 1225SOL     OW 3994   1.574   2.718   4.678 -0.0909 -0.5957  0.1537
 1225SOL    HW1 3995   1.479   2.749   4.681 -0.0477 -0.2694 -1.2048
 1225SOL    HW2 3996   1.628   2.771   4.744 -0.8453 -0.8206  0.9711
 1226SOL     OW 3997   1.382   3.067   5.282  0.0934  0.0212  0.1176
 1226SOL    HW1 3998   1.476   3.101   5.282 -0.0451  0.5182 -1.6137
 1226SOL    HW2 3999   1.381   2.970   5.304  1.2832 -0.5220 -1.9709
 1227SOL     OW 4000   2.173   3.306   0.696  0.4307 -0.2291  0.0986
 1227SOL    HW1 4001   2.228   3.244   0.751  0.4355  0.1373  0.5168
 1227SOL    HW2 4002   2.233   3.369   0.646  0.4310 -0.6475 -0.4336
 1228SOL     OW 4003   0.725   2.835   3.948  0.0209 -0.4374  0.5182
 1228SOL    HW1 4004   0.671   2.762   3.991  0.1491  0.5165  2.4070
 1228SOL    HW2 4005   0.675   2.921   3.953  1.0626  0.1682  0.9882
 1229SOL     OW 4006   1.268   3.527   5.197 -0.5227 -0.5176 -0.0874
 1229SOL    HW1 4007   1.301   3.534   5.103  0.5050  2.2614  0.3830
 1229SOL    HW2 4008   1.177   3.568   5.203 -0.4222 -0.3405  0.2081
 1230SOL     OW 4009   1.714   4.302   4.717 -0.1738  0.0216  0.7587
 1230SOL    HW1 4010   1.801   4.323   4.763  0.0847 -0.5957  0.5718
 1230SOL    HW2 4011   1.690   4.206   4.734 -0.8540  0.2048  0.8567
 1231SOL     OW 4012   0.641   3.235   5.098  0.0522  0.0360 -0.3569
 1231SOL    HW1 4013   0.624   3.204   5.192  1.3169  0.1200 -0.0887
 1231SOL    HW2 4014   0.680   3.159   5.045  0.9151  0.4758 -0.3539
 1232SOL     OW 4015   0.803   3.617   5.533  0.0159 -0.0760 -0.2191
 1232SOL    HW1 4016   0.893   3.659   5.546  0.2810 -1.1778  1.9011
 1232SOL    HW2 4017   0.732   3.686   5.544  0.4873  0.1344  1.9178
 1233SOL     OW 4018   5.511   1.949   3.137  0.4965  0.0363  0.2980
 1233SOL    HW1 4019   5.541   1.988   3.050 -1.5060  0.4141 -0.2690
 1233SOL    HW2 4020   5.547   2.003   3.213  0.2962  1.1544 -0.3860
 1234SOL     OW 4021   1.766   3.616   3.986 -0.4361 -0.5002  0.0010
 1234SOL    HW1 4022   1.859   3.644   4.009 -1.1255  1.4378  0.5778
 1234SOL    HW2 4023   1.755   3.518   4.003  1.2667 -0.6027  0.6408
 1235SOL     OW 4024   4.660   4.712   0.088 -0.4724 -0.3290  0.3613
 1235SOL    HW1 4025   4.654   4.782   0.159 -2.4619 -0.2908  0.2006
 1235SOL    HW2 4026   4.755   4.704   0.057  0.2377  0.4433  2.2091
 1236SOL     OW 4027   1.476   3.351   3.936 -0.1436 -0.5273 -0.1502
 1236SOL    HW1 4028   1.478   3.395   3.846 -0.7239 -0.2657 -0.0403
 1236SOL    HW2 4029   1.569   3.331   3.966  0.0376 -0.9738 -0.9878
 1237SOL     OW 4030   1.170   3.160   4.774  0.3325 -0.0617  0.6091
 1237SOL    HW1 4031   1.217   3.102   4.839 -0.1218  0.0437  1.0361
 1237SOL    HW2 4032   1.222   3.164   4.689 -0.6082 -2.7090 -0.1802
 1238SOL     OW 4033   0.922   3.180   2.807  0.5980 -0.4870 -0.1585
 1238SOL    HW1 4034   0.884   3.092   2.776 -1.1506  0.7632 -1.8068
 1238SOL    HW2 4035   0.899   3.193   2.904 -1.5484 -0.6870 -0.5882
 1239SOL     OW 4036   2.003   2.913   5.049  0.4289 -0.2002 -0.3882
 1239SOL    HW1 4037   2.040   2.904   5.141  0.5859  0.2479 -0.4021
 1239SOL    HW2 4038   1.918   2.965   5.051 -2.3083 -4.2635  0.1209
 1240SOL     OW 4039   1.348   2.360   4.122  0.1169  0.6850  0.6510
 1240SOL    HW1 4040   1.369   2.356   4.024  0.0823 -0.1566  0.6675
 1240SOL    HW2 4041   1.417   2.415   4.169  0.5943  0.4252  0.2659
 1241SOL     OW 4042   0.821   1.891   3.693 -0.5657  0.7663 -0.1226
 1241SOL    HW1 4043   0.776   1.852   3.773  0.8315 -0.5226  0.0688
 1241SOL    HW2 4044   0.858   1.981   3.716  2.7752 -0.9375  1.8199
 1242SOL     OW 4045   1.135   2.802   2.448 -0.1094  0.4474  0.0135
 1242SOL    HW1 4046   1.144   2.872   2.519  0.4251  0.1924  0.1984
 1242SOL    HW2 4047   1.172   2.716   2.482 -0.1946  0.2317 -0.4427
 1243SOL     OW 4048   2.345   3.777   4.560 -0.3507 -0.0713 -0.0473
 1243SOL    HW1 4049   2.370   3.866   4.522 -0.7915  0.4230  0.7962
 1243SOL    HW2 4050   2.397   3.761   4.644  0.1058 -0.8477 -0.4623
 1244SOL     OW 4051   0.998   3.645   5.121  0.0090  0.1272 -0.2178
 1244SOL    HW1 4052   0.920   3.583   5.126 -0.1630  0.4699  2.2858
 1244SOL    HW2 4053   0.999   3.690   5.032 -0.9658 -2.0006 -1.3736
 1245SOL     OW 4054   2.278   2.798   3.343  0.1510  0.2476 -0.0032
 1245SOL    HW1 4055   2.353   2.738   3.316 -0.6215 -0.9852  0.5201
 1245SOL    HW2 4056   2.311   2.863   3.412  0.8714  0.0834 -0.1859
 1246SOL     OW 4057   1.160   2.853   5.089 -0.0988 -0.1916  0.1198
 1246SOL    HW1 4058   1.168   2.905   5.174  1.3382 -2.8168  1.7139
 1246SOL    HW2 4059   1.250   2.847   5.045 -0.0945 -1.7713  0.2993
 1247SOL     OW 4060   2.006   3.509   0.276 -0.4197 -0.4656 -0.5107
 1247SOL    HW1 4061   2.061   3.527   0.195  0.7569  1.2159  0.6092
 1247SOL    HW2 4062   2.000   3.591   0.333 -0.1723 -1.8902  1.7141
 1248SOL     OW 4063   2.214   4.307   4.223  0.2489  0.1488  0.0380
 1248SOL    HW1 4064   2.172   4.398   4.227 -1.4609 -0.6337  1.6022
 1248SOL    HW2 4065   2.168   4.252   4.153  0.0225 -0.0872  0.3710
 1249SOL     OW 4066   0.780   1.145   2.385  0.1052  0.4879 -0.3933
 1249SOL    HW1 4067   0.771   1.209   2.461 -1.5726 -0.3866  0.1812
 1249SOL    HW2 4068   0.771   1.051   2.418  1.9547 -0.0653 -1.3094
 1250SOL     OW 4069   0.746   2.750   4.975  0.3845 -0.0526  0.2599
 1250SOL    HW1 4070   0.775   2.713   4.887 -0.7056  1.3183 -0.7284
 1250SOL    HW2 4071   0.675   2.692   5.014  2.0775 -1.6235  1.1221
 1251SOL     OW 4072   2.982   2.508   0.214  0.1413 -0.3499 -0.1240
 1251SOL    HW1 4073   3.029   2.434   0.167  0.5650 -0.0288 -0.2102
 1251SOL    HW2 4074   3.046   2.582   0.232 -0.5587  0.5498 -1.1857
 1252SOL     OW 4075   0.755   3.432   3.255  0.3119 -0.2608 -0.2744
 1252SOL    HW1 4076   0.656   3.435   3.262  0.1056 -0.4887 -2.3282
 1252SOL    HW2 4077   0.790   3.522   3.232  0.5504 -0.2576  0.0929
 1253SOL     OW 4078   0.890   2.690   5.565 -0.7709  0.3565  0.0265
 1253SOL    HW1 4079   0.806   2.730   5.527 -0.6898  0.0071 -0.5201
 1253SOL    HW2 4080   0.866   2.635   5.645 -0.9901  0.7553  0.2427
 1254SOL     OW 4081   5.475   1.143   4.835 -0.3687  0.2858 -0.3161
 1254SOL    HW1 4082   5.469   1.243   4.838 -0.9056  0.3573 -2.3420
 1254SOL    HW2 4083   5.386   1.104   4.860  0.1861  0.2347  1.7249
 1255SOL     OW 4084   0.978   2.715   2.747  0.1125 -0.2600 -0.0575
 1255SOL    HW1 4085   0.916   2.669   2.810  1.0708 -2.5953 -0.7135
 1255SOL    HW2 4086   1.014   2.649   2.681  2.4107  1.2236 -0.3988
 1256SOL     OW 4087   1.460   2.266   5.139  0.2458  0.3499  0.6405
 1256SOL    HW1 4088   1.369   2.256   5.179 -0.4407 -0.0793 -0.9318
 1256SOL    HW2 4089   1.481   2.363   5.126  0.0399  0.4506  1.0536
 1257SOL     OW 4090   0.833   2.953   2.690 -0.4112  0.4196  0.3898
 1257SOL    HW1 4091   0.881   2.873   2.726 -1.2191 -0.0609  0.4172
 1257SOL    HW2 4092   0.738   2.929   2.670 -0.0902  0.7200 -1.7984
 1258SOL     OW 4093   0.521   3.994   4.948  0.2060  0.0909 -0.0241
 1258SOL    HW1 4094   0.578   3.952   5.019  0.3889 -1.8870 -1.2502
 1258SOL    HW2 4095   0.473   3.922   4.898  0.0102  1.4267 -1.8437
 1259SOL     OW 4096   1.196   0.901   4.706 -0.1297  0.5028 -0.1378
 1259SOL    HW1 4097   1.165   0.848   4.627 -0.2478 -0.4909  0.5625
 1259SOL    HW2 4098   1.179   0.998   4.690 -1.5436  0.1795 -0.7037
 1260SOL     OW 4099   1.317   3.454   4.166 -0.1735 -0.1399  0.8175
 1260SOL    HW1 4100   1.357   3.439   4.076 -0.3146 -2.0013  1.0364
 1260SOL    HW2 4101   1.286   3.549   4.173  0.8132  0.3242 -0.6849
 1261SOL     OW 4102   0.108   1.547   5.493 -0.5001 -0.3071 -0.0337
 1261SOL    HW1 4103   0.028   1.581   5.542 -0.5043 -0.9961  0.4359
 1261SOL    HW2 4104   0.117   1.449   5.506  0.7464 -0.1541  0.3797
 1262SOL     OW 4105   0.510   2.008   0.571  0.6910 -0.3489  0.0822
 1262SOL    HW1 4106   0.495   1.976   0.477  0.8996 -0.7776  0.1920
 1262SOL    HW2 4107   0.458   1.950   0.634  3.1572 -2.2120  0.5304
 1263SOL     OW 4108   0.411   2.648   5.539  0.3079  0.5106  0.0976
 1263SOL    HW1 4109   0.391   2.567   5.483  1.2743  0.4811 -0.2171
 1263SOL    HW2 4110   0.338   2.715   5.527  0.5153  0.5288 -1.2635
 1264SOL     OW 4111   2.480   3.166   5.222 -0.0507  0.9896 -0.1524
 1264SOL    HW1 4112   2.384   3.188   5.240 -0.6895 -1.0985 -0.7835
 1264SOL    HW2 4113   2.497   3.071   5.245  1.5990  1.0327 -1.0888
 1265SOL     OW 4114   0.946   2.103   4.322  0.2339 -0.6884  0.4581
 1265SOL    HW1 4115   0.859   2.071   4.284  0.2678 -0.7913  0.4667
 1265SOL    HW2 4116   0.988   2.168   4.260  0.3355 -0.9295  0.2734
 1266SOL     OW 4117   1.365   3.416   4.634  0.2961  0.7887 -0.5138
 1266SOL    HW1 4118   1.376   3.316   4.638  0.9901  0.8370 -1.1361
 1266SOL    HW2 4119   1.267   3.438   4.638  0.1354  0.3043  4.0976
 1267SOL     OW 4120   3.274   2.274   0.803  0.1070 -0.4626 -0.2657
 1267SOL    HW1 4121   3.318   2.332   0.871 -0.3912 -0.4178  0.0192
 1267SOL    HW2 4122   3.326   2.189   0.793  0.9201  0.0775 -0.7843
 1268SOL     OW 4123   0.886   2.167   3.733  0.0024  0.0803 -0.5711
 1268SOL    HW1 4124   0.980   2.189   3.760  0.4689 -2.8201  0.5222
 1268SOL    HW2 4125   0.826   2.244   3.753  1.2693  0.1827  3.7116
 1269SOL     OW 4126   0.994   2.849   3.853  0.6151 -0.4817  0.1816
 1269SOL    HW1 4127   1.049   2.771   3.883 -0.2147 -1.4338 -0.6628
 1269SOL    HW2 4128   0.899   2.835   3.882  0.8930  1.5170  2.3302
 1270SOL     OW 4129   5.268   1.995   3.852  0.1150 -0.0650  0.0970
 1270SOL    HW1 4130   5.329   1.945   3.914 -0.2212 -2.4006 -1.3133
 1270SOL    HW2 4131   5.322   2.046   3.785  0.5063 -0.2917  0.2377
 1271SOL     OW 4132   0.637   3.166   5.362  0.1869 -0.5154  0.0372
 1271SOL    HW1 4133   0.692   3.249   5.372  0.2881 -0.7734  2.0736
 1271SOL    HW2 4134   0.697   3.090   5.333  0.2654 -0.0996 -0.9184
 1272SOL     OW 4135   0.971   2.524   3.663  0.2244  0.1283 -0.3063
 1272SOL    HW1 4136   0.906   2.596   3.688  0.1966  0.2421 -0.7107
 1272SOL    HW2 4137   0.925   2.435   3.667 -0.3460  0.3264 -1.9412
 1273SOL     OW 4138   1.472   3.538   3.755  0.4676 -0.0911 -0.1787
 1273SOL    HW1 4139   1.393   3.595   3.778  1.3392  0.9298  0.3264
 1273SOL    HW2 4140   1.538   3.591   3.703  1.3888 -0.5571  0.4872
 1274SOL     OW 4141   0.966   3.677   4.802  0.3869 -0.4378  0.3495
 1274SOL    HW1 4142   1.023   3.611   4.753  1.2764 -0.9735  2.0009
 1274SOL    HW2 4143   0.870   3.663   4.777  0.6887 -1.4753 -0.3206
 1275SOL     OW 4144   1.317   3.139   3.972 -0.0569 -0.3492  0.0742
 1275SOL    HW1 4145   1.365   3.221   3.941  0.6618 -0.2503  1.4101
 1275SOL    HW2 4146   1.227   3.135   3.927 -0.0006  1.0216 -0.2108
 1276SOL     OW 4147   1.628   3.196   5.267  0.2942 -0.3295  0.0158
 1276SOL    HW1 4148   1.607   3.289   5.236 -1.1346 -1.1292 -1.5297
 1276SOL    HW2 4149   1.690   3.201   5.346  0.8037  1.8993 -0.4489
 1277SOL     OW 4150   0.809   1.285   3.252  0.3167 -0.1277 -0.4572
 1277SOL    HW1 4151   0.886   1.230   3.218  1.6316  1.0015  0.5689
 1277SOL    HW2 4152   0.739   1.224   3.289  1.1270 -1.1613 -0.5678
 1278SOL     OW 4153   0.591   1.796   4.344 -0.1480  0.2283 -0.1001
 1278SOL    HW1 4154   0.562   1.845   4.426 -0.9953 -0.3307 -0.0529
 1278SOL    HW2 4155   0.636   1.711   4.371  0.8711  0.7207 -0.1936
 1279SOL     OW 4156   0.937   3.294   4.005 -0.1607  0.5679  0.1790
 1279SOL    HW1 4157   0.969   3.233   3.932  0.0899  1.2091 -0.2519
 1279SOL    HW2 4158   0.969   3.259   4.093  0.0219  0.1000 -0.0661
 1280SOL     OW 4159   1.406   1.310   4.369  0.1082 -0.5880  0.3369
 1280SOL    HW1 4160   1.326   1.345   4.418  0.9025 -0.6810  1.7811
 1280SOL    HW2 4161   1.431   1.373   4.295  0.1652  0.7574  1.4523
 1281SOL     OW 4162   0.785   3.310   4.629 -0.4385  0.1498  0.1592
 1281SOL    HW1 4163   0.686   3.300   4.644 -0.8350  1.6000 -1.2130
 1281SOL    HW2 4164   0.832   3.306   4.717 -1.9757  1.8224  1.1538
 1282SOL     OW 4165   1.942   2.328   4.318 -0.2548  0.1672 -0.1466
 1282SOL    HW1 4166   2.019   2.324   4.382  0.4580  0.1013 -0.9885
 1282SOL    HW2 4167   1.857   2.340   4.369 -0.4229 -5.0061  1.3360
 1283SOL     OW 4168   0.323   2.425   5.048  0.0439 -0.3935  0.5579
 1283SOL    HW1 4169   0.313   2.332   5.012 -1.5257 -0.3996  0.9377
 1283SOL    HW2 4170   0.400   2.470   5.003 -0.6693 -1.0504 -1.4424
 1284SOL     OW 4171   1.346   3.405   3.114  0.1983  0.4365  0.1504
 1284SOL    HW1 4172   1.253   3.402   3.078  0.3217 -3.4632 -0.3632
 1284SOL    HW2 4173   1.411   3.391   3.038  0.8538 -1.1982  0.9542
 1285SOL     OW 4174   0.794   2.952   5.342 -0.4573 -0.0177 -0.3873
 1285SOL    HW1 4175   0.744   2.907   5.416 -0.3549 -0.5975 -0.6721
 1285SOL    HW2 4176   0.817   2.886   5.271  1.6920 -0.0187  0.2468
 1286SOL     OW 4177   2.099   2.231   3.079 -0.5728 -0.0162  0.4837
 1286SOL    HW1 4178   2.162   2.163   3.116 -1.3515 -0.5131  0.9246
 1286SOL    HW2 4179   2.017   2.234   3.135 -0.1100  2.0880  1.1505
 1287SOL     OW 4180   1.247   2.904   4.140  0.4251  0.4654 -0.1644
 1287SOL    HW1 4181   1.307   2.946   4.072  1.8538 -1.8070 -0.4328
 1287SOL    HW2 4182   1.300   2.838   4.194 -1.9509 -2.4156 -1.0651
 1288SOL     OW 4183   1.412   1.316   3.815 -0.3202  0.5955  0.4827
 1288SOL    HW1 4184   1.397   1.392   3.878 -1.4268  0.1502  0.7953
 1288SOL    HW2 4185   1.463   1.347   3.736  1.4342  1.0886  1.7570
 1289SOL     OW 4186   0.836   2.179   2.860  0.5589 -0.0481  0.1408
 1289SOL    HW1 4187   0.757   2.172   2.800  0.2250 -1.0973  0.6702
 1289SOL    HW2 4188   0.903   2.241   2.820 -0.5251  0.8719 -0.3168
 1290SOL     OW 4189   0.939   3.790   3.871  0.1326 -0.4336  0.0294
 1290SOL    HW1 4190   0.962   3.702   3.912 -0.1356 -0.3598  0.3411
 1290SOL    HW2 4191   1.021   3.829   3.829  0.7027  0.0111  1.4966
 1291SOL     OW 4192   0.642   5.188   1.312 -0.3004 -0.2653 -0.4689
 1291SOL    HW1 4193   0.646   5.274   1.363 -1.2515 -0.1014 -0.6540
 1291SOL    HW2 4194   0.593   5.119   1.366  1.2512 -1.0004  0.0821
 1292SOL     OW 4195   5.150   2.884   1.703  0.4165  0.0040 -0.3375
 1292SOL    HW1 4196   5.110   2.865   1.613  0.3898 -0.6813 -0.1815
 1292SOL    HW2 4197   5.109   2.824   1.772  0.0025  0.9391  0.2493
 1293SOL     OW 4198   0.476   4.212   1.055  0.1163 -0.3098  0.2806
 1293SOL    HW1 4199   0.438   4.121   1.036 -1.6308  0.5233 -0.3327
 1293SOL    HW2 4200   0.451   4.275   0.981  0.3062  0.9647  1.2696
 1294SOL     OW 4201   0.232   0.320   1.680  0.1481  0.5796  0.3413
 1294SOL    HW1 4202   0.308   0.366   1.725  1.3650  0.6891 -1.7280
 1294SOL    HW2 4203   0.243   0.325   1.581 -1.6688 -0.9051 -0.0003
 1295SOL     OW 4204   0.975   0.779   0.815  0.0113 -0.0179  0.2470
 1295SOL    HW1 4205   0.952   0.700   0.871 -0.2063  0.5174  0.9169
 1295SOL    HW2 4206   1.004   0.748   0.724 -2.2299 -0.7947 -0.2647
 1296SOL     OW 4207   1.146   4.632   0.845 -0.0707  0.1077  0.0152
 1296SOL    HW1 4208   1.052   4.604   0.829 -0.1141  0.3237 -0.1140
 1296SOL    HW2 4209   1.199   4.554   0.878 -0.7232  0.4189  1.9432
 1297SOL     OW 4210   1.161   4.362   4.975 -0.1893 -0.0868  0.0094
 1297SOL    HW1 4211   1.075   4.338   4.930  0.6750  0.6543 -2.1556
 1297SOL    HW2 4212   1.238   4.339   4.916  0.9388  2.2694  0.4400
 1298SOL     OW 4213   5.123   4.027   0.885  0.9598 -0.8291 -0.5616
 1298SOL    HW1 4214   5.066   3.951   0.915  0.0833  0.1959  0.4957
 1298SOL    HW2 4215   5.099   4.052   0.791 -1.8560  0.8248  0.4508
 1299SOL     OW 4216   0.219   5.359   1.912 -0.1683 -0.0878  0.3739
 1299SOL    HW1 4217   0.311   5.350   1.950 -0.3381 -0.7092  0.6523
 1299SOL    HW2 4218   0.162   5.411   1.976  0.0619  0.5510  0.0674
 1300SOL     OW 4219   0.357   3.990   0.961  0.0913 -0.2576  0.1374
 1300SOL    HW1 4220   0.296   4.002   0.882  0.4413  1.0074  0.0356
 1300SOL    HW2 4221   0.444   3.952   0.930 -0.7685 -2.5508  0.3517
 1301SOL     OW 4222   1.179   4.388   1.733  0.1922  0.3352  0.3939
 1301SOL    HW1 4223   1.088   4.373   1.771  0.8011  0.4560  1.9780
 1301SOL    HW2 4224   1.227   4.301   1.724 -0.9224 -0.1088 -2.9207
 1302SOL     OW 4225   0.476   5.118   0.214  0.2273 -0.0167  0.2978
 1302SOL    HW1 4226   0.394   5.120   0.272 -0.1636  0.7355 -0.2588
 1302SOL    HW2 4227   0.452   5.082   0.124 -0.2072  2.8969 -0.8585
 1303SOL     OW 4228   0.621   5.466   1.366  0.9743  0.2112 -0.6223
 1303SOL    HW1 4229   0.568   5.463   1.451  0.2097 -1.9679 -1.1033
 1303SOL    HW2 4230   0.582   5.535   1.305 -0.8479 -0.7630 -0.6275
 1304SOL     OW 4231   0.633   4.235   1.267 -0.7650  0.5051 -0.1932
 1304SOL    HW1 4232   0.565   4.233   1.194 -1.3891 -0.1906  0.3933
 1304SOL    HW2 4233   0.595   4.194   1.350 -0.2284  1.6935  0.6711
 1305SOL     OW 4234   0.999   4.078   5.335  0.5944 -0.2746  0.7732
 1305SOL    HW1 4235   0.957   4.099   5.423  0.5555  0.6976  0.5329
 1305SOL    HW2 4236   0.927   4.054   5.269  0.6363 -1.1579  1.0406
 1306SOL     OW 4237   0.079   5.064   0.178 -0.0779  0.3920 -0.3089
 1306SOL    HW1 4238   0.044   4.975   0.205  1.4053  0.0178  0.4737
 1306SOL    HW2 4239   0.115   5.112   0.258  2.0464  0.3286 -1.1544
 1307SOL     OW 4240   1.590   0.316   1.737  0.0097  0.3259 -0.1246
 1307SOL    HW1 4241   1.670   0.372   1.755 -0.9094  1.4067  0.7145
 1307SOL    HW2 4242   1.580   0.247   1.809 -0.8601  1.4337  0.8617
 1308SOL     OW 4243   0.354   4.308   0.112 -0.1988  0.4825  0.4918
 1308SOL    HW1 4244   0.368   4.300   0.014  1.3172  1.3187  0.5982
 1308SOL    HW2 4245   0.397   4.230   0.158 -0.3504  0.4190  0.5253
 1309SOL     OW 4246   0.059   2.863   1.002  0.7365  0.2466 -0.1228
 1309SOL    HW1 4247  -0.038   2.884   1.000  0.7637  0.3459 -0.4127
 1309SOL    HW2 4248   0.080   2.794   0.932  0.5693 -1.0893  1.0910
 1310SOL     OW 4249   4.862   5.444   2.123 -0.3328  0.3763 -0.2581
 1310SOL    HW1 4250   4.832   5.370   2.062 -1.8689  1.0533 -0.3629
 1310SOL    HW2 4251   4.891   5.405   2.211 -0.6223 -0.3916 -0.4944
 1311SOL     OW 4252   0.611   4.182   0.728 -0.3335  0.0027 -0.2407
 1311SOL    HW1 4253   0.707   4.167   0.705 -0.0627 -1.7483  1.7968
 1311SOL    HW2 4254   0.555   4.164   0.647  0.9676  0.0644 -1.1885
 1312SOL     OW 4255   0.086   2.629   1.471 -0.6970 -0.2567 -0.0514
 1312SOL    HW1 4256   0.068   2.700   1.402 -0.2753  0.8677  0.9711
 1312SOL    HW2 4257   0.067   2.666   1.562  0.5275 -1.1319  0.5665
 1313SOL     OW 4258   4.798   5.200   1.402  0.4127  1.0452  0.3897
 1313SOL    HW1 4259   4.799   5.300   1.411  1.2111  0.8647  3.0200
 1313SOL    HW2 4260   4.892   5.166   1.400  0.1410  0.2744  0.5868
 1314SOL     OW 4261   0.921   0.119   0.218 -0.0781  0.2500 -0.1580
 1314SOL    HW1 4262   0.959   0.085   0.132 -0.5738 -0.5775 -0.0695
 1314SOL    HW2 4263   0.981   0.093   0.293  0.1570  0.6322 -0.2124
 1315SOL     OW 4264   0.110   5.355   1.128 -0.2693 -0.0146 -0.0977
 1315SOL    HW1 4265   0.153   5.340   1.217 -0.1114 -1.8470 -0.4405
 1315SOL    HW2 4266   0.181   5.370   1.059 -0.3962  1.5338  0.0842
 1316SOL     OW 4267   1.481   3.991   5.523  0.7408 -0.5581  0.7900
 1316SOL    HW1 4268   1.545   4.042   5.464  0.0052 -1.4270 -0.8141
 1316SOL    HW2 4269   1.433   3.923   5.468 -0.3113 -1.0968  2.3399
 1317SOL     OW 4270   1.024   5.140   0.046 -0.6668 -0.4279  0.5360
 1317SOL    HW1 4271   1.102   5.147  -0.016 -1.8778 -0.2973 -1.0390
 1317SOL    HW2 4272   1.026   5.052   0.093  0.2251 -0.5710  0.2479
 1318SOL     OW 4273   5.415   3.161   1.476  0.4029 -0.2263 -0.5099
 1318SOL    HW1 4274   5.419   3.259   1.495  1.3030 -0.6555  1.7763
 1318SOL    HW2 4275   5.481   3.113   1.533  0.8924 -2.0681 -2.5030
 1319SOL     OW 4276   0.460   4.173   0.516  0.0684  0.2293  0.0630
 1319SOL    HW1 4277   0.519   4.187   0.436 -0.7914  1.6943 -0.3685
 1319SOL    HW2 4278   0.365   4.173   0.486 -0.3156  1.7441  1.1584
 1320SOL     OW 4279   1.747   4.595   2.177 -0.5356 -0.1400  0.4069
 1320SOL    HW1 4280   1.679   4.653   2.133  1.0050  2.1579  0.8484
 1320SOL    HW2 4281   1.835   4.605   2.130  1.2738  2.6976  3.9174
 1321SOL     OW 4282   0.188   3.261   5.502  0.3164 -0.7142  0.0119
 1321SOL    HW1 4283   0.242   3.227   5.425 -0.1931 -0.0617 -0.6550
 1321SOL    HW2 4284   0.096   3.221   5.498  0.1048 -0.2303 -0.0655
 1322SOL     OW 4285   1.103   4.655   2.463  0.0532  0.0230  0.3536
 1322SOL    HW1 4286   1.180   4.698   2.509 -0.4372 -0.2715  1.4716
 1322SOL    HW2 4287   1.039   4.726   2.432  0.3808  0.2205  0.1194
 1323SOL     OW 4288   0.545   4.437   5.219  0.9026  0.3191  0.2484
 1323SOL    HW1 4289   0.547   4.536   5.230  0.3714  0.2761  0.7331
 1323SOL    HW2 4290   0.616   4.396   5.277  0.8351  0.3801  0.3731
 1324SOL     OW 4291   0.865   0.317   0.393 -0.3858 -0.2584  0.0641
 1324SOL    HW1 4292   0.945   0.305   0.452  0.4126 -0.0123 -0.9260
 1324SOL    HW2 4293   0.871   0.252   0.316  0.1717  1.4058 -1.3612
 1325SOL     OW 4294   4.832   4.857   1.603 -0.2869 -0.6481  0.0786
 1325SOL    HW1 4295   4.900   4.871   1.531  0.8328 -0.9984  1.0499
 1325SOL    HW2 4296   4.861   4.903   1.686 -1.9379  0.3885  0.1310
 1326SOL     OW 4297   1.414   4.747   0.372  0.2299  0.5195  0.7532
 1326SOL    HW1 4298   1.372   4.739   0.462  1.2577 -0.3811  1.1778
 1326SOL    HW2 4299   1.407   4.842   0.340 -1.5171  0.5260  1.0611
 1327SOL     OW 4300   2.072   0.857   1.486 -0.1277  0.1642 -0.0470
 1327SOL    HW1 4301   1.980   0.869   1.524  0.3895  0.1879  1.2230
 1327SOL    HW2 4302   2.126   0.798   1.546  0.7581  0.2899 -0.6932
 1328SOL     OW 4303   0.616   3.953   0.859  0.1214 -0.1293  0.5207
 1328SOL    HW1 4304   0.632   4.050   0.840  0.2957 -0.1127  0.7435
 1328SOL    HW2 4305   0.693   3.917   0.913 -0.1809 -0.2713  0.8555
 1329SOL     OW 4306   1.421   3.694   0.256 -0.9075 -0.1338  0.3286
 1329SOL    HW1 4307   1.473   3.638   0.191 -1.2280 -1.6920  1.3767
 1329SOL    HW2 4308   1.414   3.787   0.220 -1.5985 -1.0609 -2.1788
 1330SOL     OW 4309   3.115   4.070   4.061 -0.8727  0.0631 -0.4989
 1330SOL    HW1 4310   3.050   4.115   4.122 -1.9309 -1.1338 -0.6999
 1330SOL    HW2 4311   3.172   4.007   4.114 -0.4918  0.4266 -0.4685
 1331SOL     OW 4312   0.366   3.134   1.258 -0.0724 -0.1424  0.0497
 1331SOL    HW1 4313   0.352   3.093   1.168 -0.1962 -0.2674  0.1239
 1331SOL    HW2 4314   0.456   3.176   1.263 -0.6868  1.3254 -0.6926
 1332SOL     OW 4315   2.176   2.824   2.031  0.3934 -0.3248  0.0095
 1332SOL    HW1 4316   2.166   2.913   2.076 -0.4390  0.1601 -1.0844
 1332SOL    HW2 4317   2.196   2.839   1.934 -0.8277 -1.3115 -0.4193
 1333SOL     OW 4318   1.602   5.252   0.956 -0.0554 -0.4570 -0.9677
 1333SOL    HW1 4319   1.660   5.277   1.034 -0.9780  1.2506 -0.7678
 1333SOL    HW2 4320   1.546   5.173   0.980  0.4806 -0.6517 -0.3145
 1334SOL     OW 4321   1.944   5.279   1.213 -0.1190 -0.6978 -0.2376
 1334SOL    HW1 4322   1.846   5.294   1.225  0.1938  0.8396  0.8155
 1334SOL    HW2 4323   1.980   5.348   1.150  0.4945 -0.4003  0.4292
 1335SOL     OW 4324   0.184   3.999  -0.004 -0.0487  0.5091  0.2065
 1335SOL    HW1 4325   0.250   3.957   0.059  1.5306  0.9674 -1.0854
 1335SOL    HW2 4326   0.208   4.095  -0.019  0.1186  0.2106 -1.7005
 1336SOL     OW 4327   0.509   0.104   1.236  0.4541  0.2322 -0.2063
 1336SOL    HW1 4328   0.520   0.105   1.136 -1.2094 -1.8800 -0.4824
 1336SOL    HW2 4329   0.469   0.191   1.266  0.2094  0.5821 -1.4721
 1337SOL     OW 4330   4.893   0.641   2.144 -0.1285 -0.0434  0.0239
 1337SOL    HW1 4331   4.971   0.696   2.113 -0.8842  0.9114 -0.2480
 1337SOL    HW2 4332   4.830   0.700   2.195 -1.1131 -0.5760 -0.5462
 1338SOL     OW 4333   1.861   3.043   0.803 -0.0597 -0.3749 -0.0645
 1338SOL    HW1 4334   1.897   2.982   0.733  0.8372 -0.6970  0.6603
 1338SOL    HW2 4335   1.764   3.024   0.818  0.0097 -1.0370 -0.4503
 1339SOL     OW 4336   0.212   4.295   0.699  0.6845 -0.3661  0.3779
 1339SOL    HW1 4337   0.196   4.366   0.631 -0.2173 -0.2514  0.6905
 1339SOL    HW2 4338   0.299   4.312   0.746 -0.0414  1.1660  1.2151
 1340SOL     OW 4339   5.100   3.121   1.461  0.2203  0.0459  0.1638
 1340SOL    HW1 4340   5.068   3.026   1.472 -1.9268  0.8244  1.2484
 1340SOL    HW2 4341   5.194   3.128   1.497 -0.0831 -1.3889  1.3694
 1341SOL     OW 4342   0.612   5.006   0.423 -0.2753 -0.6080  0.5824
 1341SOL    HW1 4343   0.520   4.978   0.449 -0.4713 -2.1974 -1.5136
 1341SOL    HW2 4344   0.610   5.043   0.330  1.2582 -1.2074  0.2812
 1342SOL     OW 4345   0.219   4.208   0.402  0.0337  0.2388 -0.3732
 1342SOL    HW1 4346   0.199   4.252   0.490  1.0330 -0.8978  0.4520
 1342SOL    HW2 4347   0.257   4.275   0.338 -0.6981  1.0742  0.0525
 1343SOL     OW 4348   1.355   1.208   1.180  0.5063  0.3575  0.1244
 1343SOL    HW1 4349   1.391   1.270   1.109  0.6877 -2.4271 -2.4113
 1343SOL    HW2 4350   1.432   1.165   1.228  0.6371 -1.8356 -1.8670
 1344SOL     OW 4351   1.471   3.512   0.457  0.1239  0.0860 -0.1660
 1344SOL    HW1 4352   1.434   3.419   0.448  2.3939 -0.8249 -0.9121
 1344SOL    HW2 4353   1.430   3.571   0.387 -0.0530 -0.8347 -0.8644
 1345SOL     OW 4354   2.174   0.424   1.666 -0.7552 -0.1417 -0.2645
 1345SOL    HW1 4355   2.098   0.401   1.726 -1.2857 -0.1907 -0.9503
 1345SOL    HW2 4356   2.257   0.378   1.699 -1.4676 -1.8414 -0.7395
 1346SOL     OW 4357   0.896   4.943   0.731 -0.2729  0.2573  0.0570
 1346SOL    HW1 4358   0.925   5.007   0.660 -1.3832  0.3298 -0.3518
 1346SOL    HW2 4359   0.976   4.911   0.782  0.8072 -1.3084 -2.4698
 1347SOL     OW 4360   1.706   4.164   0.790 -0.2193  0.4197  0.1922
 1347SOL    HW1 4361   1.771   4.187   0.718 -0.0321 -0.8501 -0.0741
 1347SOL    HW2 4362   1.621   4.132   0.750  0.8962 -3.2058  0.3757
 1348SOL     OW 4363   5.053   1.036   2.150  0.1334 -0.0309 -0.6387
 1348SOL    HW1 4364   4.994   1.059   2.073 -0.5239  1.8915  0.3732
 1348SOL    HW2 4365   5.149   1.051   2.124 -0.0337  0.0698 -1.2203
 1349SOL     OW 4366   0.527   0.251   0.972  0.4739  0.5261 -0.7728
 1349SOL    HW1 4367   0.447   0.192   0.959 -0.0263  1.0698 -0.2693
 1349SOL    HW2 4368   0.496   0.343   0.999  1.2951  0.3474  0.9186
 1350SOL     OW 4369   5.557   3.660   1.404 -0.4737 -0.1372 -0.2113
 1350SOL    HW1 4370   5.536   3.721   1.480 -1.7566  0.6904 -1.2007
 1350SOL    HW2 4371   5.558   3.711   1.318  0.4679 -1.1428 -0.8355
 1351SOL     OW 4372   2.295   4.140   5.145 -0.4044  0.0006 -0.0160
 1351SOL    HW1 4373   2.380   4.090   5.162 -0.3248  0.2982  0.4971
 1351SOL    HW2 4374   2.223   4.104   5.204 -0.4139  0.3152  0.1640
 1352SOL     OW 4375   1.353   4.184   0.296 -0.4095  0.0217  0.5086
 1352SOL    HW1 4376   1.325   4.260   0.238  0.8354  1.1119  1.2904
 1352SOL    HW2 4377   1.301   4.185   0.382 -1.0669 -0.6000  0.1313
 1353SOL     OW 4378   1.155   3.697   0.313 -0.2736  0.2167 -0.0927
 1353SOL    HW1 4379   1.117   3.720   0.224  0.3465  0.0855 -0.3973
 1353SOL    HW2 4380   1.252   3.720   0.315 -0.4127  0.7710  0.7562
 1354SOL     OW 4381   4.813   0.620   1.847 -0.4793  0.0029  0.2645
 1354SOL    HW1 4382   4.741   0.566   1.803 -2.3954  0.2595  2.8164
 1354SOL    HW2 4383   4.845   0.571   1.929  1.5040  0.4442 -0.1787
 1355SOL     OW 4384   1.205   0.068   1.751 -0.2870  0.6785 -0.0392
 1355SOL    HW1 4385   1.261   0.040   1.673  0.9965  0.1585  1.0297
 1355SOL    HW2 4386   1.124   0.116   1.718  0.7335  1.3829 -1.6435
 1356SOL     OW 4387   0.370   3.846   0.158  0.0227  0.3677 -0.4334
 1356SOL    HW1 4388   0.458   3.870   0.199 -0.5451  2.1303 -0.1491
 1356SOL    HW2 4389   0.314   3.797   0.225  1.5542 -2.8635 -1.3200
 1357SOL     OW 4390   2.289   2.766   1.514 -0.0191 -0.2111  0.2222
 1357SOL    HW1 4391   2.385   2.742   1.499  0.6344  1.8746  0.7039
 1357SOL    HW2 4392   2.271   2.855   1.471 -1.7014 -0.5101  0.2779
 1358SOL     OW 4393   0.801   3.377   5.393 -0.1476 -0.0879 -0.3473
 1358SOL    HW1 4394   0.782   3.464   5.440 -1.9721  0.9605 -2.8007
 1358SOL    HW2 4395   0.898   3.372   5.371  0.5864 -0.1953  2.5646
 1359SOL     OW 4396   1.682   5.309   1.257  0.4010 -0.1779  0.1376
 1359SOL    HW1 4397   1.607   5.243   1.265 -0.0047  0.0757 -1.3044
 1359SOL    HW2 4398   1.658   5.392   1.307 -0.3978 -0.0192 -0.4869
 1360SOL     OW 4399   0.907   0.277   2.311  1.0369 -0.2085 -0.3319
 1360SOL    HW1 4400   0.972   0.293   2.237  1.1861 -0.7067 -0.3172
 1360SOL    HW2 4401   0.835   0.346   2.308  0.1866 -1.0905 -1.9166
 1361SOL     OW 4402   1.624   4.518   0.903  0.1191 -0.0134  0.7799
 1361SOL    HW1 4403   1.695   4.453   0.930  1.3335  1.0741  0.2750
 1361SOL    HW2 4404   1.534   4.477   0.920  0.8435 -1.4577  1.3278
 1362SOL     OW 4405   0.757   4.782   0.520 -0.2705  0.1894 -0.1884
 1362SOL    HW1 4406   0.713   4.866   0.487 -0.6465 -0.1811 -0.6509
 1362SOL    HW2 4407   0.797   4.799   0.610 -2.2177  0.2770  0.7217
 1363SOL     OW 4408   2.409   3.624   5.342 -0.2172 -0.1219 -0.4297
 1363SOL    HW1 4409   2.410   3.596   5.246 -0.2375 -0.5510 -0.3056
 1363SOL    HW2 4410   2.493   3.675   5.363 -0.4355  0.3898 -0.7958
 1364SOL     OW 4411   0.295   3.406   1.282 -0.2838  0.0666 -0.0547
 1364SOL    HW1 4412   0.290   3.436   1.377 -0.4779 -0.3443  0.0683
 1364SOL    HW2 4413   0.311   3.307   1.280  0.7195  0.2269 -0.4468
 1365SOL     OW 4414   0.600   4.912   4.675 -0.0203  0.3287 -0.4511
 1365SOL    HW1 4415   0.500   4.905   4.686 -0.1129 -2.4269 -2.1062
 1365SOL    HW2 4416   0.645   4.871   4.754 -0.2034  0.7101 -0.1438
 1366SOL     OW 4417   5.144   3.425   0.670 -0.2909  0.0299 -0.5633
 1366SOL    HW1 4418   5.240   3.400   0.654  0.0411  0.9122 -0.0203
 1366SOL    HW2 4419   5.135   3.464   0.762 -1.3472 -0.8985 -0.2519
 1367SOL     OW 4420   1.077   3.546   0.732 -0.0659 -0.0465 -0.3344
 1367SOL    HW1 4421   1.113   3.465   0.777 -1.5141 -0.0770  0.8551
 1367SOL    HW2 4422   1.140   3.623   0.745  0.0166 -0.3018  0.9375
 1368SOL     OW 4423   0.626   3.855   0.266 -0.0841 -0.1832 -0.5971
 1368SOL    HW1 4424   0.633   3.800   0.350 -1.4076  0.8485  0.2154
 1368SOL    HW2 4425   0.703   3.832   0.206  1.3013 -0.4477  1.1759
 1369SOL     OW 4426   1.141   4.550   0.448 -0.0046 -0.5314  0.2918
 1369SOL    HW1 4427   1.108   4.469   0.496 -0.5214 -1.0549 -0.9132
 1369SOL    HW2 4428   1.216   4.524   0.387 -0.3729 -0.1636 -0.3290
 1370SOL     OW 4429   0.894   4.552   0.810 -0.5673  0.1023 -0.4908
 1370SOL    HW1 4430   0.808   4.603   0.813 -0.6880 -0.1282  0.1404
 1370SOL    HW2 4431   0.879   4.459   0.843  0.1288  0.3670  0.6235
 1371SOL     OW 4432   2.697   0.018   3.007 -0.5185 -0.0969 -0.4193
 1371SOL    HW1 4433   2.629   0.081   3.045 -1.4020 -1.1934 -0.1233
 1371SOL    HW2 4434   2.650  -0.055   2.958  0.3123 -1.9162  1.3512
 1372SOL     OW 4435   0.721   4.756   5.325  0.0298 -0.2104 -0.4777
 1372SOL    HW1 4436   0.767   4.814   5.392  0.4077  0.3679 -1.2301
 1372SOL    HW2 4437   0.767   4.667   5.320  0.7194  0.1602 -0.8087
 1373SOL     OW 4438   4.238   4.027   2.250 -0.0694 -0.2490  0.0245
 1373SOL    HW1 4439   4.207   3.936   2.221  1.2826 -1.6655  2.6199
 1373SOL    HW2 4440   4.188   4.054   2.332 -1.1826  1.8919 -1.2920
 1374SOL     OW 4441   1.143   2.443   0.956 -0.8809  0.2265  0.4069
 1374SOL    HW1 4442   1.045   2.425   0.963 -0.5762 -2.1428 -0.6930
 1374SOL    HW2 4443   1.194   2.358   0.960  1.2220  1.4559  1.5727
 1375SOL     OW 4444   0.225   3.829   0.644  0.2615 -0.7121  0.1777
 1375SOL    HW1 4445   0.214   3.911   0.701  0.8415  1.6506 -2.8509
 1375SOL    HW2 4446   0.315   3.789   0.660  0.6112  0.1987  0.5508
 1376SOL     OW 4447   1.832   3.711   0.071  0.4645 -0.3036 -0.1887
 1376SOL    HW1 4448   1.850   3.796   0.023  1.5301 -0.1713  0.4239
 1376SOL    HW2 4449   1.734   3.689   0.065  0.3593  0.4020 -1.2420
 1377SOL     OW 4450   0.884   4.115   0.695 -0.1762  0.1403  0.2602
 1377SOL    HW1 4451   0.936   4.124   0.780 -1.4287 -1.5068  1.2747
 1377SOL    HW2 4452   0.918   4.037   0.643  0.7666  1.3057 -0.9383
 1378SOL     OW 4453   1.673   3.845   2.535 -0.2039 -0.4230  0.0542
 1378SOL    HW1 4454   1.575   3.843   2.553 -0.5369 -4.1084 -1.3813
 1378SOL    HW2 4455   1.713   3.926   2.578 -4.0189  2.0047 -0.4663
 1379SOL     OW 4456   2.454   5.057   0.553 -0.0926 -0.4175 -0.7292
 1379SOL    HW1 4457   2.470   5.147   0.513 -1.1294  0.9793  1.7027
 1379SOL    HW2 4458   2.516   5.043   0.630 -2.3288 -0.0298  1.3036
 1380SOL     OW 4459   5.098   4.438   0.335 -0.6232 -0.3032 -0.4950
 1380SOL    HW1 4460   5.018   4.391   0.372 -0.3384  0.3952  1.0607
 1380SOL    HW2 4461   5.180   4.404   0.380 -0.4163  1.7298  0.7876
 1381SOL     OW 4462   0.875   4.977   1.393 -0.0201  0.1404 -1.1972
 1381SOL    HW1 4463   0.793   4.937   1.352 -1.3659  0.3638  1.1685
 1381SOL    HW2 4464   0.927   4.905   1.440 -0.3796  0.4675 -0.2801
 1382SOL     OW 4465   1.041   4.852   0.135  0.3792 -0.0156 -0.1215
 1382SOL    HW1 4466   1.033   4.815   0.227 -0.4961 -2.5623 -1.1057
 1382SOL    HW2 4467   1.128   4.822   0.094  0.2889  0.1920 -0.4736
 1383SOL     OW 4468   5.562   3.858   1.594  0.3599  0.0274  0.8480
 1383SOL    HW1 4469   5.661   3.845   1.591  0.3431 -0.0583  0.5399
 1383SOL    HW2 4470   5.540   3.955   1.581  0.3339 -0.2179 -1.3667
 1384SOL     OW 4471   1.916   0.213   0.243 -0.0233  0.1595 -0.0063
 1384SOL    HW1 4472   1.930   0.259   0.156  0.0304  1.3131  0.5829
 1384SOL    HW2 4473   1.964   0.126   0.244 -0.4876 -0.1236 -1.3255
 1385SOL     OW 4474   1.808   3.576   0.738  0.1143 -0.0664  0.0398
 1385SOL    HW1 4475   1.774   3.615   0.823 -1.5880 -1.8377  0.2357
 1385SOL    HW2 4476   1.777   3.630   0.660  0.0748  0.4781  0.4357
 1386SOL     OW 4477   2.813   0.191   1.959  0.2439  0.3018 -0.8430
 1386SOL    HW1 4478   2.898   0.207   2.010 -0.2380 -0.4426  0.2266
 1386SOL    HW2 4479   2.828   0.211   1.862  1.4030  0.9840 -0.5385
 1387SOL     OW 4480   1.894   5.297   1.737 -0.3181  0.1877 -0.9148
 1387SOL    HW1 4481   1.935   5.360   1.802 -0.3708  0.7694 -1.4316
 1387SOL    HW2 4482   1.933   5.312   1.646 -0.8852  0.0078 -1.2003
 1388SOL     OW 4483   2.142   4.749   1.599 -0.2811  0.2287 -0.4888
 1388SOL    HW1 4484   2.064   4.688   1.608  0.7491 -0.9407  1.0745
 1388SOL    HW2 4485   2.113   4.844   1.614 -1.1240 -0.3435  1.8798
 1389SOL     OW 4486   0.111   3.256   0.851 -0.4189  0.2384 -0.1736
 1389SOL    HW1 4487   0.022   3.209   0.852 -0.2521 -0.2100 -2.3736
 1389SOL    HW2 4488   0.160   3.232   0.768  1.8690  0.3515  1.0802
 1390SOL     OW 4489   1.609   4.304   2.165 -0.2614 -0.3353  0.1123
 1390SOL    HW1 4490   1.510   4.299   2.150 -0.3123  0.4206  0.1294
 1390SOL    HW2 4491   1.634   4.398   2.190  0.5658 -0.3250 -0.6845
 1391SOL     OW 4492   0.685   4.937   0.914  0.4879 -0.1913  0.4847
 1391SOL    HW1 4493   0.741   4.979   0.842  0.4489  0.5646  0.8877
 1391SOL    HW2 4494   0.682   4.838   0.900 -2.0880  0.1538 -2.4022
 1392SOL     OW 4495   0.047   3.413   1.188  0.1742  0.0212  0.4779
 1392SOL    HW1 4496   0.140   3.407   1.224  0.9134 -1.3148 -1.5191
 1392SOL    HW2 4497   0.047   3.462   1.101 -0.9883 -0.1574  0.3544
 1393SOL     OW 4498   1.092   3.507   1.075 -0.6460 -0.7048  0.0192
 1393SOL    HW1 4499   1.191   3.506   1.057 -0.7339 -0.9959 -0.4523
 1393SOL    HW2 4500   1.074   3.564   1.156 -0.3332  1.3963 -1.2983
 1394SOL     OW 4501   5.058   5.360   2.698  0.1699  0.2971  0.3140
 1394SOL    HW1 4502   4.976   5.329   2.746 -0.7439  3.1927  0.8104
 1394SOL    HW2 4503   5.083   5.451   2.729  0.4062  1.7609 -3.5591
 1395SOL     OW 4504   5.144   0.933   5.192 -0.2903 -0.1071 -0.5061
 1395SOL    HW1 4505   5.057   0.895   5.160 -1.5636  0.8448  1.6330
 1395SOL    HW2 4506   5.146   0.932   5.292  1.8332  0.6509 -0.5055
 1396SOL     OW 4507   0.151   4.034   0.778  0.0399 -0.5935  0.2596
 1396SOL    HW1 4508   0.152   4.131   0.756  1.2831 -1.0317 -1.8191
 1396SOL    HW2 4509   0.057   4.001   0.780 -0.2889  0.1147 -1.6793
 1397SOL     OW 4510   1.534   1.027   4.693  0.0350  0.1063  0.0672
 1397SOL    HW1 4511   1.603   1.099   4.697  1.3280 -1.0927  0.1377
 1397SOL    HW2 4512   1.509   1.010   4.598  0.0205  0.3716  0.0230
 1398SOL     OW 4513   5.623   1.288   1.116  0.4193  0.9916  0.1475
 1398SOL    HW1 4514   5.574   1.201   1.124  1.8194 -0.1018 -1.9823
 1398SOL    HW2 4515   5.562   1.364   1.139 -0.2179 -0.5667  4.3669
 1399SOL     OW 4516   0.297   4.436   4.867 -0.0393  0.1054 -0.2621
 1399SOL    HW1 4517   0.358   4.374   4.917 -1.5372 -2.2125 -1.1598
 1399SOL    HW2 4518   0.253   4.498   4.931 -0.0932 -1.1927  1.0131
 1400SOL     OW 4519   0.416   5.094   1.899  0.1003 -0.3946 -0.0759
 1400SOL    HW1 4520   0.330   5.117   1.853  1.4477  0.8576 -2.1231
 1400SOL    HW2 4521   0.442   5.168   1.961 -1.4481 -1.8573  2.5522
 1401SOL     OW 4522   5.059   4.157   2.824  0.2128 -0.6765 -0.5776
 1401SOL    HW1 4523   5.110   4.090   2.877 -0.7540 -0.4322  0.7140
 1401SOL    HW2 4524   4.980   4.112   2.780  0.1769 -0.5945 -0.5980
 1402SOL     OW 4525   1.850   4.864   0.969 -0.2520 -0.0009 -0.3615
 1402SOL    HW1 4526   1.809   4.823   0.888 -0.9780 -0.2836  0.1445
 1402SOL    HW2 4527   1.831   4.807   1.049  2.8098 -1.2501 -0.3852
 1403SOL     OW 4528   1.357   3.240   2.492  0.1058 -0.3144  0.4442
 1403SOL    HW1 4529   1.275   3.192   2.461  1.1694 -0.4531 -2.4569
 1403SOL    HW2 4530   1.415   3.177   2.543 -0.2413 -1.0511 -0.0562
 1404SOL     OW 4531   0.358   2.681   2.211  0.4799  0.1635 -0.4041
 1404SOL    HW1 4532   0.407   2.620   2.273 -2.8957 -1.8219  0.5866
 1404SOL    HW2 4533   0.321   2.758   2.263  1.8680  1.2986 -1.0242
 1405SOL     OW 4534   0.498   4.155   1.489 -0.5010  0.7766  0.1202
 1405SOL    HW1 4535   0.551   4.118   1.565  0.1348 -0.6276 -0.9591
 1405SOL    HW2 4536   0.425   4.214   1.524 -1.3360 -1.1880  1.9430
 1406SOL     OW 4537   0.751   3.097   0.933 -0.3416 -0.3591 -0.2640
 1406SOL    HW1 4538   0.674   3.156   0.907  0.9773  1.4529 -0.2287
 1406SOL    HW2 4539   0.828   3.115   0.872  1.6885  1.4863  2.5699
 1407SOL     OW 4540   1.188   4.148   0.523 -0.1007 -0.2174 -0.0243
 1407SOL    HW1 4541   1.167   4.210   0.598  0.5231 -1.6252  1.3616
 1407SOL    HW2 4542   1.167   4.054   0.550 -0.4995 -0.6960 -1.8685
 1408SOL     OW 4543   0.121   3.508   1.573 -0.2187  0.2002  0.0222
 1408SOL    HW1 4544   0.071   3.430   1.610  0.3014  0.5036  1.4370
 1408SOL    HW2 4545   0.073   3.544   1.493 -0.2115 -1.8498 -0.9687
 1409SOL     OW 4546   5.475   5.499   1.820  0.5345  0.2062  0.0815
 1409SOL    HW1 4547   5.524   5.475   1.736  1.4823  1.6065  0.1819
 1409SOL    HW2 4548   5.540   5.541   1.884 -0.3774  0.0614  1.1154
 1410SOL     OW 4549   1.435   0.300   0.585  0.2261 -0.2309  0.3950
 1410SOL    HW1 4550   1.437   0.400   0.590 -2.1128 -0.0413 -1.0982
 1410SOL    HW2 4551   1.445   0.272   0.490  0.1382 -1.4049  0.7214
 1411SOL     OW 4552   0.507   5.093   1.541  0.3936 -0.2725  0.0262
 1411SOL    HW1 4553   0.476   4.999   1.527  0.7632 -0.2859 -0.7012
 1411SOL    HW2 4554   0.588   5.093   1.600 -0.4996 -0.2888  1.3028
 1412SOL     OW 4555   1.936   4.436   0.041  0.2955  0.1521 -0.4587
 1412SOL    HW1 4556   2.013   4.450   0.102  0.1788 -0.4219 -0.1708
 1412SOL    HW2 4557   1.957   4.473  -0.049 -0.4832  3.3263  0.5418
 1413SOL     OW 4558   0.351   3.930   1.397  0.5015 -0.5943  0.6613
 1413SOL    HW1 4559   0.289   3.911   1.474 -0.2024 -1.6870 -0.1484
 1413SOL    HW2 4560   0.404   4.013   1.417 -1.3124  0.4715  1.3329
 1414SOL     OW 4561   0.445   0.183   2.162 -0.5962  0.1987  0.0513
 1414SOL    HW1 4562   0.407   0.105   2.212 -1.1847  0.5156  0.1184
 1414SOL    HW2 4563   0.385   0.262   2.175 -1.1992  0.0875 -1.8229
 1415SOL     OW 4564   2.660   4.901   2.735 -0.0960 -0.4509  0.8774
 1415SOL    HW1 4565   2.691   4.977   2.677 -1.9062  0.6151  1.2315
 1415SOL    HW2 4566   2.727   4.827   2.731  0.7424  0.3361 -1.0890
 1416SOL     OW 4567   0.064   0.344   2.123  0.8940  0.3063  0.3773
 1416SOL    HW1 4568   0.126   0.320   2.197  0.8078 -3.1147 -0.4786
 1416SOL    HW2 4569  -0.026   0.304   2.141  0.4588  0.6538 -0.8976
 1417SOL     OW 4570   1.200   3.275   0.465  0.2891 -0.1302 -0.0278
 1417SOL    HW1 4571   1.132   3.218   0.419  1.1769  0.0989 -1.6970
 1417SOL    HW2 4572   1.153   3.344   0.520 -0.8085 -0.8973  0.0358
 1418SOL     OW 4573   0.437   5.099   0.920 -0.0999 -0.0113 -0.2674
 1418SOL    HW1 4574   0.438   5.167   0.993  3.2685  1.4328 -1.4321
 1418SOL    HW2 4575   0.510   5.032   0.935 -1.3918 -1.6035 -0.7388
 1419SOL     OW 4576   0.905   4.481   1.173 -0.1803 -0.0969  0.4056
 1419SOL    HW1 4577   0.846   4.477   1.254  0.1328 -2.7508  0.5763
 1419SOL    HW2 4578   0.854   4.451   1.093  0.4336 -0.7414  0.2448
 1420SOL     OW 4579   5.274   0.085   1.491 -0.2787 -0.0042  0.0710
 1420SOL    HW1 4580   5.345   0.128   1.547 -0.2179  0.0626 -0.0564
 1420SOL    HW2 4581   5.258   0.140   1.409 -1.1455  0.4914  0.5487
 1421SOL     OW 4582   4.992   2.876   1.477  0.4319 -0.7647  0.3254
 1421SOL    HW1 4583   4.986   2.791   1.425  1.4025 -0.5510 -0.1550
 1421SOL    HW2 4584   4.901   2.914   1.489  0.1492 -0.9982 -0.9281
 1422SOL     OW 4585   0.401   4.448   2.123 -0.0753  0.0082 -0.1662
 1422SOL    HW1 4586   0.329   4.383   2.148  1.0430 -0.7240  1.2929
 1422SOL    HW2 4587   0.451   4.414   2.043  0.1418 -0.6405  0.2441
 1423SOL     OW 4588   0.768   2.992   1.167 -0.5274 -0.2513  0.1979
 1423SOL    HW1 4589   0.770   3.017   1.070  0.1177  0.9541  0.5062
 1423SOL    HW2 4590   0.694   3.040   1.213  0.1705  0.4405  0.6195
 1424SOL     OW 4591   1.379   5.268   5.429  0.2830 -0.1517  0.5227
 1424SOL    HW1 4592   1.457   5.258   5.491 -0.5230  0.4446  1.6609
 1424SOL    HW2 4593   1.412   5.265   5.334  1.7740  0.7323  0.9729
 1425SOL     OW 4594   0.277   1.136   1.149 -0.2431 -0.2360  0.0299
 1425SOL    HW1 4595   0.245   1.041   1.144 -0.4968 -0.0896 -1.5406
 1425SOL    HW2 4596   0.199   1.198   1.150 -0.0570 -0.0013  0.0760
 1426SOL     OW 4597   5.325   4.317   0.418  0.4244 -0.2731  0.4554
 1426SOL    HW1 4598   5.412   4.365   0.431 -0.0323  0.1193  2.2738
 1426SOL    HW2 4599   5.321   4.239   0.479 -0.6937 -0.0310  0.7017
 1427SOL     OW 4600   1.283   4.133   1.328 -0.0384  0.1936 -0.4043
 1427SOL    HW1 4601   1.273   4.225   1.290  0.8986  0.1076 -0.9109
 1427SOL    HW2 4602   1.193   4.093   1.345 -0.4676  1.7423  1.1848
 1428SOL     OW 4603   5.413   4.628   2.289  0.1785 -0.0167  0.3019
 1428SOL    HW1 4604   5.462   4.628   2.376  0.1799  1.3837  0.3153
 1428SOL    HW2 4605   5.319   4.598   2.304  0.7077 -1.7064  0.4410
 1429SOL     OW 4606   0.061   4.877   2.256  0.3240  0.0199 -0.0743
 1429SOL    HW1 4607   0.130   4.879   2.184  0.7641 -2.0058  0.2330
 1429SOL    HW2 4608   0.100   4.914   2.341  0.4140  0.6376 -0.3833
 1430SOL     OW 4609   1.972   5.075   1.406 -0.0133  0.1359 -0.1336
 1430SOL    HW1 4610   1.959   5.158   1.352  1.6777  0.0298 -0.7669
 1430SOL    HW2 4611   1.987   4.998   1.344  0.3325 -0.2921  0.4829
 1431SOL     OW 4612   0.019   4.598   0.161  0.3068  0.0639  0.4110
 1431SOL    HW1 4613   0.106   4.607   0.113  0.5286 -2.0003  0.3310
 1431SOL    HW2 4614  -0.043   4.542   0.107 -0.3885 -0.0873  1.3339
 1432SOL     OW 4615   2.109   4.658   1.241 -0.4633 -0.0632 -0.1370
 1432SOL    HW1 4616   2.103   4.566   1.202  1.3233  0.1185 -0.9505
 1432SOL    HW2 4617   2.201   4.672   1.279 -0.6546  1.4495 -0.1822
 1433SOL     OW 4618   4.916   4.949   2.243 -0.0808  0.7708  0.3740
 1433SOL    HW1 4619   4.826   4.991   2.252 -0.0534  0.8949  0.0932
 1433SOL    HW2 4620   4.961   4.984   2.161 -0.1016  0.0985  0.0711
 1434SOL     OW 4621   1.668   3.949   0.957  0.1823  0.7596  0.3800
 1434SOL    HW1 4622   1.626   3.879   0.900 -0.7827 -0.1229  2.1082
 1434SOL    HW2 4623   1.704   4.022   0.899 -1.9549  0.5711 -1.2811
 1435SOL     OW 4624   5.324   0.702   2.212  0.2204  0.4499 -0.1452
 1435SOL    HW1 4625   5.240   0.726   2.163  0.4962 -0.0164 -0.8725
 1435SOL    HW2 4626   5.370   0.785   2.242  0.4144  0.7967 -1.3340
 1436SOL     OW 4627   0.454   4.668   5.300 -0.5907  0.1875 -0.2185
 1436SOL    HW1 4628   0.382   4.734   5.319  0.2958  0.8174  1.1032
 1436SOL    HW2 4629   0.542   4.715   5.294  0.0853 -0.8595  0.9189
 1437SOL     OW 4630   0.232   5.176   1.514  0.1985  0.2668  0.0303
 1437SOL    HW1 4631   0.317   5.127   1.532  0.6521  1.8710  2.6304
 1437SOL    HW2 4632   0.168   5.162   1.590 -0.8597  1.2120 -0.6493
 1438SOL     OW 4633   1.515   4.968   1.522 -0.3717 -0.0220 -0.8594
 1438SOL    HW1 4634   1.614   4.961   1.535 -0.4644  1.0384  0.6510
 1438SOL    HW2 4635   1.496   5.034   1.450  0.0261 -1.8598 -2.7581
 1439SOL     OW 4636   1.681   4.751   0.789 -0.0231 -0.3665 -0.3976
 1439SOL    HW1 4637   1.665   4.657   0.820  0.3030 -0.2846  0.0204
 1439SOL    HW2 4638   1.593   4.796   0.773 -0.1955 -0.4023  0.4209
 1440SOL     OW 4639   1.943   5.113   0.692 -0.0660 -0.0187  0.0860
 1440SOL    HW1 4640   2.028   5.077   0.654 -0.9672 -2.7136  0.4322
 1440SOL    HW2 4641   1.954   5.128   0.791  0.4394  1.1960 -0.1301
 1441SOL     OW 4642   0.394   4.438   0.348 -0.4947  0.2172 -0.1563
 1441SOL    HW1 4643   0.485   4.467   0.378  0.1354 -1.0719 -0.7273
 1441SOL    HW2 4644   0.399   4.408   0.253 -1.6332  0.5943 -0.3452
 1442SOL     OW 4645   5.303   5.043   1.956 -0.2426 -0.1117 -0.1962
 1442SOL    HW1 4646   5.317   5.098   2.038 -0.5299  0.6375 -0.6388
 1442SOL    HW2 4647   5.364   4.964   1.957 -0.8244 -0.5599  1.1312
 1443SOL     OW 4648   1.991   0.326   1.855 -0.0294 -0.4166  0.5775
 1443SOL    HW1 4649   2.017   0.333   1.952 -1.5844 -2.5746  1.2066
 1443SOL    HW2 4650   1.927   0.400   1.833  1.8061  1.2862  0.5933
 1444SOL     OW 4651   0.056   4.307   5.417 -0.7190  0.0996  0.1402
 1444SOL    HW1 4652  -0.011   4.280   5.349 -0.7445 -0.6841  0.4699
 1444SOL    HW2 4653   0.127   4.364   5.374  0.1280 -1.6595 -0.8940
 1445SOL     OW 4654   1.283   3.762   0.844 -0.3499 -0.2983  0.4794
 1445SOL    HW1 4655   1.301   3.679   0.898  0.2586 -0.6149 -0.1876
 1445SOL    HW2 4656   1.370   3.802   0.814 -0.6159 -1.6757 -2.5409
 1446SOL     OW 4657   2.195   4.392   0.850 -0.4027 -0.0521  0.2385
 1446SOL    HW1 4658   2.217   4.490   0.851  0.8399 -0.3213  0.2686
 1446SOL    HW2 4659   2.143   4.371   0.767  1.7706  0.1338 -1.2433
 1447SOL     OW 4660   5.574   4.935   1.622 -0.1211 -0.1974  0.4399
 1447SOL    HW1 4661   5.608   4.918   1.715  1.5979  0.5169 -0.0335
 1447SOL    HW2 4662   5.476   4.957   1.627 -0.5716 -2.1700  1.8550
 1448SOL     OW 4663   2.179   4.112   0.503 -0.0279 -0.1503  0.3908
 1448SOL    HW1 4664   2.151   4.094   0.597 -2.4521  1.0272 -0.0115
 1448SOL    HW2 4665   2.172   4.210   0.484  0.0076 -0.4119 -1.1251
 1449SOL     OW 4666   0.657   5.001   1.875  0.6642  0.5319 -0.1413
 1449SOL    HW1 4667   0.560   5.022   1.868  0.6839  1.4706  1.8596
 1449SOL    HW2 4668   0.707   5.058   1.809  0.1122  2.4518  1.0050
 1450SOL     OW 4669   5.572   0.310   0.389  0.1440 -0.0290  0.4833
 1450SOL    HW1 4670   5.619   0.336   0.473 -0.3134 -0.3512  0.8478
 1450SOL    HW2 4671   5.504   0.239   0.410 -1.1451  1.0556  0.1405
 1451SOL     OW 4672   1.086   4.749   1.499 -0.2742 -0.0464  0.6617
 1451SOL    HW1 4673   1.174   4.789   1.523 -0.6498  1.0552  0.2571
 1451SOL    HW2 4674   1.027   4.748   1.580  0.1291 -0.8820  0.9590
 1452SOL     OW 4675   1.022   4.144   0.930  0.0173  0.2795  0.1297
 1452SOL    HW1 4676   0.949   4.166   0.995  1.1186  0.7422  1.2613
 1452SOL    HW2 4677   1.083   4.076   0.971 -1.3648 -2.4104 -1.9584
 1453SOL     OW 4678   0.449   4.385   0.859  0.2249  0.3775 -0.0141
 1453SOL    HW1 4679   0.509   4.326   0.806  0.6451  1.6742 -1.0443
 1453SOL    HW2 4680   0.432   4.470   0.808 -1.1318  0.7436  0.9879
 1454SOL     OW 4681   1.565   4.832   0.095 -0.1465  0.7724  0.3524
 1454SOL    HW1 4682   1.621   4.788   0.025 -0.7768  1.8522 -0.8499
 1454SOL    HW2 4683   1.625   4.874   0.164  0.5185  1.2324 -0.4938
 1455SOL     OW 4684   5.358   4.929   2.345 -0.8034 -0.5800 -0.3574
 1455SOL    HW1 4685   5.435   4.866   2.334 -0.4382 -0.6047  1.9368
 1455SOL    HW2 4686   5.272   4.879   2.337 -0.5495 -1.0187 -0.3558
 1456SOL     OW 4687   1.516   3.826   0.731  0.6451 -0.0707  0.5850
 1456SOL    HW1 4688   1.487   3.913   0.691  1.2873  0.1698  0.6268
 1456SOL    HW2 4689   1.581   3.782   0.670 -0.8074 -1.2593 -0.1602
 1457SOL     OW 4690   2.503   4.349   0.479  0.0098  0.0127  0.0014
 1457SOL    HW1 4691   2.576   4.293   0.440  1.4708  1.0737  1.1008
 1457SOL    HW2 4692   2.535   4.443   0.489 -1.8578  0.7323 -0.3706
 1458SOL     OW 4693   1.505   5.107   1.283  0.1184  0.0402 -0.0302
 1458SOL    HW1 4694   1.543   5.058   1.205 -0.7421 -0.2647 -0.2672
 1458SOL    HW2 4695   1.415   5.143   1.260  0.0638  0.3790  0.6617
 1459SOL     OW 4696   1.868   5.575   1.577  0.6864  0.1698 -0.5163
 1459SOL    HW1 4697   1.926   5.498   1.552  0.0244 -0.5845  0.1916
 1459SOL    HW2 4698   1.899   5.612   1.665 -0.5606 -0.9906  0.4669
 1460SOL     OW 4699   1.117   4.911   0.888  0.3303  0.0214  0.2068
 1460SOL    HW1 4700   1.093   4.941   0.980 -1.0245  0.7855 -0.3808
 1460SOL    HW2 4701   1.137   4.813   0.889  0.8657  0.1241  1.3955
 1461SOL     OW 4702   1.404   4.312   5.151 -0.4991  0.6403 -0.5396
 1461SOL    HW1 4703   1.345   4.242   5.191  1.7120 -1.6295 -1.0108
 1461SOL    HW2 4704   1.438   4.281   5.062  2.9932  0.7960  0.5789
 1462SOL     OW 4705   1.124   0.069   0.761  0.1357 -0.0709  0.4097
 1462SOL    HW1 4706   1.115  -0.019   0.806 -0.3131  0.2177  0.8939
 1462SOL    HW2 4707   1.126   0.056   0.662 -0.3048 -0.5952  0.4642
 1463SOL     OW 4708   0.269   5.363   0.500 -0.4495  0.6026  0.4006
 1463SOL    HW1 4709   0.256   5.450   0.547  0.6614  0.4048  1.1190
 1463SOL    HW2 4710   0.322   5.301   0.558 -0.1450 -0.1137 -0.6041
 1464SOL     OW 4711   1.063   4.851   1.904  0.2686 -0.1201 -0.1256
 1464SOL    HW1 4712   0.988   4.887   1.960 -0.9407  0.2326 -1.9030
 1464SOL    HW2 4713   1.115   4.928   1.866 -0.9075 -0.2150 -2.0535
 1465SOL     OW 4714   0.624   4.063   1.695 -0.2778  0.3370  0.0349
 1465SOL    HW1 4715   0.658   4.140   1.750 -0.4053  1.0413 -0.8448
 1465SOL    HW2 4716   0.663   3.978   1.730 -1.0981  0.6433  1.8069
 1466SOL     OW 4717   5.370   4.211   0.127 -0.0064  0.1284 -0.0022
 1466SOL    HW1 4718   5.350   4.225   0.224  1.5809  1.1382  0.2131
 1466SOL    HW2 4719   5.413   4.122   0.114  0.7687  0.4271  0.4112
 1467SOL     OW 4720   2.356   5.230   1.794 -0.2471 -0.1389 -0.7388
 1467SOL    HW1 4721   2.380   5.201   1.702 -0.5946 -1.2369 -0.4985
 1467SOL    HW2 4722   2.391   5.164   1.860 -1.2543 -0.1455 -0.1866
 1468SOL     OW 4723   4.894   5.061   0.216  0.1514 -0.5018 -0.0767
 1468SOL    HW1 4724   4.807   5.041   0.263  0.1242 -1.7787 -0.6449
 1468SOL    HW2 4725   4.877   5.076   0.119  0.4301  0.4783  0.0093
 1469SOL     OW 4726   1.479   4.285   4.906  0.0525 -0.3277 -0.3657
 1469SOL    HW1 4727   1.528   4.206   4.869 -0.3702 -0.9223  0.3300
 1469SOL    HW2 4728   1.438   4.337   4.831  0.2455 -0.8272 -0.8205
 1470SOL     OW 4729   5.594   4.517   1.473 -0.0500  0.2163  0.1021
 1470SOL    HW1 4730   5.528   4.558   1.411  0.2552  1.5334  0.5937
 1470SOL    HW2 4731   5.649   4.590   1.515  1.1468 -0.7846  0.3266
 1471SOL     OW 4732   1.398   1.105   2.572  1.0173 -0.1222 -0.1682
 1471SOL    HW1 4733   1.354   1.195   2.574  0.5310 -0.2972 -1.5584
 1471SOL    HW2 4734   1.436   1.085   2.662 -1.3307  0.2625  1.0018
 1472SOL     OW 4735   2.029   4.057   1.414  0.6474 -0.0589  0.0184
 1472SOL    HW1 4736   2.088   3.989   1.457 -0.8630 -0.6166  1.3034
 1472SOL    HW2 4737   2.044   4.146   1.458  0.7765 -0.1231  0.1050
 1473SOL     OW 4738   0.995   5.213   1.423  0.2892 -0.4928 -0.4199
 1473SOL    HW1 4739   0.948   5.296   1.393 -0.1857 -1.2174 -1.7455
 1473SOL    HW2 4740   0.943   5.133   1.394  1.9024 -1.3093 -1.1818
 1474SOL     OW 4741   0.209   4.779   0.399  0.0002 -0.1566 -1.1669
 1474SOL    HW1 4742   0.241   4.760   0.306  1.4268 -0.5196 -0.6359
 1474SOL    HW2 4743   0.111   4.798   0.397  0.0146 -0.0603 -2.7509
 1475SOL     OW 4744   1.843   5.369   3.332 -0.6550  0.5295 -0.2348
 1475SOL    HW1 4745   1.811   5.389   3.240 -0.3524  0.5881 -0.3259
 1475SOL    HW2 4746   1.817   5.444   3.393  0.0393  0.9757 -0.4760
 1476SOL     OW 4747   1.353   4.521   0.251 -0.0328  0.5918  0.3975
 1476SOL    HW1 4748   1.379   4.611   0.287 -0.5060  1.6234 -1.7212
 1476SOL    HW2 4749   1.402   4.503   0.166 -0.4778 -0.8575  0.4216
 1477SOL     OW 4750   2.131   5.412   1.055  0.1498  0.5656  0.0894
 1477SOL    HW1 4751   2.052   5.438   1.000 -0.7279 -0.4054  0.8571
 1477SOL    HW2 4752   2.160   5.320   1.030 -0.2597  0.1156  1.2465
 1478SOL     OW 4753   2.985   3.921   1.179 -0.1756 -0.1368  0.2725
 1478SOL    HW1 4754   2.916   3.937   1.109  0.9762 -1.5616 -1.2921
 1478SOL    HW2 4755   3.036   4.005   1.196 -0.9135  0.3951 -0.1016
 1479SOL     OW 4756   2.018   4.754   0.708 -0.2289 -0.1673 -0.1642
 1479SOL    HW1 4757   2.074   4.810   0.647 -0.5213  0.5782  0.2380
 1479SOL    HW2 4758   1.955   4.698   0.653 -2.0058  2.0720 -0.5411
 1480SOL     OW 4759   0.457   5.267   1.127 -0.6877 -0.3633 -0.1600
 1480SOL    HW1 4760   0.390   5.295   1.196 -0.6791 -0.9338  0.0843
 1480SOL    HW2 4761   0.546   5.252   1.169 -0.0545  1.5897 -0.6705
 1481SOL     OW 4762   1.315   5.303   0.489  0.0834  0.1983  0.2584
 1481SOL    HW1 4763   1.268   5.215   0.483  0.7259 -0.0535 -2.1281
 1481SOL    HW2 4764   1.364   5.321   0.404  1.5001  2.0389  1.3730
 1482SOL     OW 4765   2.413   5.022   1.974  0.0577 -0.3430 -0.4805
 1482SOL    HW1 4766   2.387   4.962   1.899  1.1620 -1.7344  0.1857
 1482SOL    HW2 4767   2.435   4.966   2.054  1.8978  0.9050 -0.0634
 1483SOL     OW 4768   2.638   3.958   5.585  0.1821  0.4783 -0.6818
 1483SOL    HW1 4769   2.626   4.053   5.614  1.4516  0.3932  0.1500
 1483SOL    HW2 4770   2.700   3.954   5.507  2.3295  0.1448  0.9685
 1484SOL     OW 4771   2.233   4.361   0.350  0.6283  0.2086 -0.1322
 1484SOL    HW1 4772   2.184   4.445   0.373  0.0256 -0.6606  2.0552
 1484SOL    HW2 4773   2.319   4.358   0.402  1.4454  0.1842 -1.4358
 1485SOL     OW 4774   5.334   4.381   0.782  0.0326  0.1410  0.4102
 1485SOL    HW1 4775   5.329   4.456   0.716 -0.2675 -0.1435  0.1091
 1485SOL    HW2 4776   5.430   4.355   0.796  0.0588 -0.2062 -0.3798
 1486SOL     OW 4777   5.242   5.173   2.401 -0.0783  0.1342  0.1592
 1486SOL    HW1 4778   5.283   5.087   2.371 -0.7591 -0.1061 -0.1034
 1486SOL    HW2 4779   5.265   5.189   2.497 -1.3280 -1.2092  0.7198
 1487SOL     OW 4780   2.511   5.626   2.223 -0.2267 -0.1430  0.1428
 1487SOL    HW1 4781   2.546   5.534   2.207  0.3019  0.2383 -1.0260
 1487SOL    HW2 4782   2.420   5.621   2.265 -0.1391 -1.1840  0.2214
 1488SOL     OW 4783   1.451   4.117   0.722 -0.5137  0.1547  0.1122
 1488SOL    HW1 4784   1.430   4.143   0.817 -0.5633 -0.8062  0.3758
 1488SOL    HW2 4785   1.380   4.155   0.662 -0.3381  1.0016  0.4134
 1489SOL     OW 4786   1.329   4.794   1.572 -0.0887  0.6295 -0.1823
 1489SOL    HW1 4787   1.399   4.864   1.565 -0.4339  1.0840  0.8052
 1489SOL    HW2 4788   1.371   4.704   1.581  0.3736  0.9647  1.0681
 1490SOL     OW 4789   2.688   4.709   1.337 -0.0984 -0.4967  0.3438
 1490SOL    HW1 4790   2.664   4.612   1.338  0.4479 -0.6425  1.1928
 1490SOL    HW2 4791   2.722   4.734   1.246 -0.5980 -1.0053  0.0094
 1491SOL     OW 4792   0.980   4.197   1.343 -0.2457  0.6165  0.2413
 1491SOL    HW1 4793   0.941   4.164   1.257  0.8314  0.5560 -0.2479
 1491SOL    HW2 4794   1.028   4.284   1.327 -0.7091  1.0189  0.9538
 1492SOL     OW 4795   0.947   0.271   0.775  0.3311  0.0072  0.0506
 1492SOL    HW1 4796   0.985   0.311   0.858 -0.4060  2.0226 -0.5128
 1492SOL    HW2 4797   0.992   0.184   0.755  1.3991  0.1121  1.8396
 1493SOL     OW 4798   0.580   2.622   0.893  0.4279 -0.2138  0.7599
 1493SOL    HW1 4799   0.536   2.586   0.811 -0.1649 -0.9662  1.3907
 1493SOL    HW2 4800   0.617   2.713   0.874 -0.9852  0.2473  0.0768
 1494SOL     OW 4801   1.520   3.873   5.114  0.5221  0.5705 -0.1081
 1494SOL    HW1 4802   1.532   3.971   5.095  1.3191  0.3755 -0.6792
 1494SOL    HW2 4803   1.445   3.860   5.179  0.0194  1.5200 -0.4812
 1495SOL     OW 4804   1.125   0.092   0.458 -0.0833  0.2486 -0.3563
 1495SOL    HW1 4805   1.097  -0.004   0.467 -0.1234  0.2319 -0.6483
 1495SOL    HW2 4806   1.191   0.100   0.384 -0.8788  0.6129 -1.0385
 1496SOL     OW 4807   5.323   0.198   1.232 -0.6052  0.0045  0.1244
 1496SOL    HW1 4808   5.391   0.265   1.202 -0.0185 -0.4680  0.3800
 1496SOL    HW2 4809   5.319   0.124   1.165  0.3766 -0.8257  0.9485
 1497SOL     OW 4810   1.492   3.890   4.360 -0.5859 -0.1338  0.1712
 1497SOL    HW1 4811   1.473   3.800   4.400 -0.3887 -0.6436 -0.8558
 1497SOL    HW2 4812   1.540   3.946   4.428  0.1497 -1.1399  0.5185
 1498SOL     OW 4813   1.867   3.967   1.971 -0.2187 -0.6288 -0.0723
 1498SOL    HW1 4814   1.893   3.921   2.056 -1.3699  0.3015  0.8158
 1498SOL    HW2 4815   1.773   4.001   1.978  0.4296  1.5048 -0.8151
 1499SOL     OW 4816   1.049   4.963   1.137 -0.2786  0.4118  0.3902
 1499SOL    HW1 4817   0.957   4.999   1.151 -1.3336 -1.9228 -0.2096
 1499SOL    HW2 4818   1.059   4.875   1.183  0.9732 -0.3758 -1.2808
 1500SOL     OW 4819   0.162   4.214   1.101 -0.0496 -0.0619  0.1033
 1500SOL    HW1 4820   0.158   4.119   1.070 -1.9048  0.2042 -0.5879
 1500SOL    HW2 4821   0.124   4.220   1.194  1.6391 -0.2136  0.8484
 1501SOL     OW 4822   1.262   1.002   0.007 -0.4559 -0.0482  0.0179
 1501SOL    HW1 4823   1.183   0.941   0.000 -1.6272  1.3988  0.0791
 1501SOL    HW2 4824   1.263   1.044   0.098  0.0168  0.4206 -0.2001
 1502SOL     OW 4825   4.548   5.266   2.999 -0.2888 -0.3590 -0.1481
 1502SOL    HW1 4826   4.600   5.293   3.080  0.3617 -1.0005 -0.3425
 1502SOL    HW2 4827   4.475   5.333   2.982  0.7876  0.8425 -0.1672
 1503SOL     OW 4828   0.686   5.048   3.416  0.1402 -0.2934 -0.2111
 1503SOL    HW1 4829   0.693   5.090   3.326 -1.2398 -0.0479 -0.2227
 1503SOL    HW2 4830   0.598   5.000   3.423 -0.0896  0.2978  1.2446
 1504SOL     OW 4831   5.114   3.724   1.888 -0.5263 -0.4863  0.1961
 1504SOL    HW1 4832   5.091   3.821   1.894  0.5117 -0.2039 -0.2603
 1504SOL    HW2 4833   5.112   3.684   1.979  2.8081  0.8733  1.0185
 1505SOL     OW 4834   4.826   4.349   3.452 -0.4086  0.0318  0.3161
 1505SOL    HW1 4835   4.908   4.407   3.455 -0.1522 -0.1303 -1.7937
 1505SOL    HW2 4836   4.782   4.349   3.542  1.0908  1.2899  1.1107
 1506SOL     OW 4837   1.074   5.301   3.234 -0.0499 -0.9093  0.3571
 1506SOL    HW1 4838   1.158   5.355   3.228 -1.5725  1.5052 -0.9811
 1506SOL    HW2 4839   0.997   5.361   3.255 -1.9224 -2.4997 -1.4619
 1507SOL     OW 4840   1.490   4.741   2.888  0.1907 -0.4605 -0.1959
 1507SOL    HW1 4841   1.426   4.814   2.911  1.9640  0.6033  1.6107
 1507SOL    HW2 4842   1.552   4.725   2.964  2.6151 -0.8834 -2.1360
 1508SOL     OW 4843   1.612   5.207   2.036 -0.0044 -0.6609 -0.0938
 1508SOL    HW1 4844   1.646   5.117   2.010 -1.5916 -0.9598 -1.3124
 1508SOL    HW2 4845   1.554   5.200   2.117 -0.7117 -0.8639 -0.6121
 1509SOL     OW 4846   5.571   1.607   2.155  0.0113  0.3907 -0.2410
 1509SOL    HW1 4847   5.572   1.509   2.173  0.9473  0.4046 -0.1869
 1509SOL    HW2 4848   5.559   1.623   2.057  0.9807  0.1946 -0.3998
 1510SOL     OW 4849   2.098   4.017   5.325  0.1186  0.3234  0.2578
 1510SOL    HW1 4850   2.139   3.944   5.380  1.2026  0.7981  0.0922
 1510SOL    HW2 4851   2.091   4.100   5.380  1.0273  0.7444 -0.2512
 1511SOL     OW 4852   0.232   2.959   2.059 -0.3060  0.2398 -0.3788
 1511SOL    HW1 4853   0.229   2.913   2.148 -1.0087  0.9280 -0.0292
 1511SOL    HW2 4854   0.159   3.027   2.055  0.0422  0.5723 -1.2931
 1512SOL     OW 4855   5.002   0.763   2.815 -0.1222  0.3459 -0.7312
 1512SOL    HW1 4856   5.039   0.706   2.742 -0.8945  0.1264 -0.9585
 1512SOL    HW2 4857   4.905   0.779   2.799  0.0158  1.4872 -0.5143
 1513SOL     OW 4858   5.580   0.081   3.432 -0.0670  0.5103  0.7384
 1513SOL    HW1 4859   5.640   0.093   3.354 -0.3469 -1.2240  0.2018
 1513SOL    HW2 4860   5.494   0.039   3.402 -0.1738 -0.2090  1.9517
 1514SOL     OW 4861   0.710   4.578   3.803  0.2876  0.5119  0.2359
 1514SOL    HW1 4862   0.643   4.504   3.811  1.5941 -0.5739  1.9660
 1514SOL    HW2 4863   0.676   4.660   3.848 -0.1618  0.1790  0.5105
 1515SOL     OW 4864   4.614   4.783   2.961 -0.0915 -0.5907  0.6408
 1515SOL    HW1 4865   4.673   4.824   2.891 -1.8070 -2.5625 -2.1771
 1515SOL    HW2 4866   4.670   4.737   3.030  1.6682 -0.4282 -0.6237
 1516SOL     OW 4867   1.813   3.393   2.367  0.8634 -0.3185  0.0285
 1516SOL    HW1 4868   1.901   3.438   2.374  0.2522  0.9358 -0.1548
 1516SOL    HW2 4869   1.763   3.402   2.453  1.0745 -1.4197  0.2908
 1517SOL     OW 4870   0.391   5.350   2.968 -0.3366  0.0701  0.0092
 1517SOL    HW1 4871   0.386   5.338   3.067  1.2273  1.6866  0.3458
 1517SOL    HW2 4872   0.399   5.261   2.923  1.3526 -0.6122  1.5490
 1518SOL     OW 4873   0.359   3.212   3.964 -0.2513  0.2245 -0.0200
 1518SOL    HW1 4874   0.447   3.220   4.011  0.2815  0.4827 -1.0315
 1518SOL    HW2 4875   0.375   3.199   3.866 -1.3571  1.4817 -0.3905
 1519SOL     OW 4876   3.160   5.497   1.507 -0.3512  0.0095 -0.1212
 1519SOL    HW1 4877   3.250   5.456   1.523 -0.4762  0.2640  1.4051
 1519SOL    HW2 4878   3.167   5.597   1.515 -1.1871 -0.0704  2.6479
 1520SOL     OW 4879   0.273   0.402   2.270  0.7505  0.3095 -0.0941
 1520SOL    HW1 4880   0.267   0.354   2.358  1.9350 -1.0055 -0.6936
 1520SOL    HW2 4881   0.234   0.493   2.279  1.0526  0.2780  1.8567
 1521SOL     OW 4882   1.130   5.169   3.546 -0.0884  0.1896 -0.1915
 1521SOL    HW1 4883   1.040   5.188   3.506 -0.2769  0.5057  0.3769
 1521SOL    HW2 4884   1.119   5.112   3.627  0.3283 -0.8239 -0.8204
 1522SOL     OW 4885   1.533   4.287   1.607 -0.4211  0.2239 -0.1453
 1522SOL    HW1 4886   1.448   4.277   1.659 -0.8773 -0.2842 -0.9642
 1522SOL    HW2 4887   1.610   4.257   1.663 -0.8827 -0.1668  0.2894
 1523SOL     OW 4888   1.582   3.693   3.559 -0.4876 -0.6147 -0.2186
 1523SOL    HW1 4889   1.646   3.764   3.589 -1.1003 -1.0538  2.4340
 1523SOL    HW2 4890   1.633   3.616   3.521  0.5383 -0.5655  0.9795
 1524SOL     OW 4891   0.042   5.470   2.345  0.2640  0.0927  0.0087
 1524SOL    HW1 4892   0.081   5.380   2.329 -0.8242 -0.1238 -1.6137
 1524SOL    HW2 4893  -0.035   5.485   2.283  0.4962  2.1910  0.1483
 1525SOL     OW 4894   1.733   0.418   2.717  0.2120  0.2132 -0.3605
 1525SOL    HW1 4895   1.738   0.509   2.758  1.5723 -0.6744  1.5501
 1525SOL    HW2 4896   1.787   0.417   2.632  1.0742  0.9146  0.1625
 1526SOL     OW 4897   5.550   0.719   1.963  0.2125 -0.1364  0.3426
 1526SOL    HW1 4898   5.636   0.668   1.962  1.1790  1.3682  1.5497
 1526SOL    HW2 4899   5.481   0.666   2.012  0.5499 -1.1952 -0.2855
 1527SOL     OW 4900   1.274   3.847   3.309 -0.6321  0.0222  0.1614
 1527SOL    HW1 4901   1.240   3.907   3.237  0.6661 -0.8397 -1.2225
 1527SOL    HW2 4902   1.350   3.793   3.274 -0.4544 -0.9716  1.9747
 1528SOL     OW 4903   1.333   4.551   1.869  0.0515 -0.9676 -0.0442
 1528SOL    HW1 4904   1.259   4.522   1.809 -1.1917  2.8996 -0.6696
 1528SOL    HW2 4905   1.419   4.554   1.817 -0.3785 -0.7183 -0.7573
 1529SOL     OW 4906   4.774   4.216   2.509 -0.7713  0.2197 -0.1235
 1529SOL    HW1 4907   4.793   4.306   2.471  0.7379 -0.3741 -0.8688
 1529SOL    HW2 4908   4.717   4.225   2.591 -0.7119  1.8235 -0.2343
 1530SOL     OW 4909   5.597   1.190   3.607  0.5170  0.1721 -0.1636
 1530SOL    HW1 4910   5.553   1.215   3.693  0.9951  1.2536 -0.2165
 1530SOL    HW2 4911   5.610   1.091   3.604 -0.8928 -0.0552  0.3232
 1531SOL     OW 4912   0.692   3.974   2.984  0.8326 -0.3171  0.9835
 1531SOL    HW1 4913   0.630   4.022   2.922 -0.8991 -1.1513  1.9973
 1531SOL    HW2 4914   0.782   3.966   2.941  0.2187  0.7960 -0.6026
 1532SOL     OW 4915   0.591   4.188   2.415 -0.4734 -0.4420 -0.1474
 1532SOL    HW1 4916   0.555   4.106   2.371  0.0233 -1.7400  1.7307
 1532SOL    HW2 4917   0.570   4.268   2.359 -2.7759 -1.5850 -1.0519
 1533SOL     OW 4918   0.156   0.359   2.708  0.6469 -0.5184 -0.2873
 1533SOL    HW1 4919   0.217   0.428   2.747  0.1099 -0.8243  1.1672
 1533SOL    HW2 4920   0.141   0.286   2.775 -0.4542 -0.9974 -1.0201
 1534SOL     OW 4921   1.568   4.979   1.026 -0.4093 -0.7228 -0.0237
 1534SOL    HW1 4922   1.500   4.941   0.963 -0.3661 -0.3556 -0.2904
 1534SOL    HW2 4923   1.657   4.937   1.008 -0.3177 -0.3526 -0.4564
 1535SOL     OW 4924   1.815   5.148   4.587 -0.2434 -0.2668  0.1899
 1535SOL    HW1 4925   1.777   5.204   4.514 -1.5918 -1.2877  0.0477
 1535SOL    HW2 4926   1.756   5.155   4.668  0.3242 -0.4090  0.6183
 1536SOL     OW 4927   0.502   4.067   3.927 -0.4214  0.2027  0.0273
 1536SOL    HW1 4928   0.558   4.069   4.010 -0.1895 -0.7447 -0.0882
 1536SOL    HW2 4929   0.541   4.127   3.858 -0.1506  0.3679  0.3249
 1537SOL     OW 4930   1.610   4.888   2.307  0.2172 -0.1022  0.0442
 1537SOL    HW1 4931   1.623   4.790   2.325  0.4582 -0.3327 -1.2139
 1537SOL    HW2 4932   1.530   4.900   2.249  0.9106  0.3081 -0.8585
 1538SOL     OW 4933   1.301   4.393   2.624  0.7254 -0.7640 -0.8009
 1538SOL    HW1 4934   1.281   4.457   2.699  1.7074  0.8802 -1.8872
 1538SOL    HW2 4935   1.218   4.381   2.569  1.1781  1.8976 -2.2366
 1539SOL     OW 4936   1.887   4.663   2.653 -0.1281  0.1189  0.4188
 1539SOL    HW1 4937   1.903   4.668   2.751  1.5479  2.7837  0.1093
 1539SOL    HW2 4938   1.966   4.624   2.608  1.1065  3.0157 -0.1579
 1540SOL     OW 4939   0.859   3.486   2.108  0.0020 -0.3892  0.2069
 1540SOL    HW1 4940   0.923   3.416   2.076 -1.1528 -1.5917  0.4449
 1540SOL    HW2 4941   0.766   3.449   2.107 -0.6757  1.2543  0.0580
 1541SOL     OW 4942   2.003   4.466   2.502  0.1382  0.0274  0.2553
 1541SOL    HW1 4943   1.998   4.382   2.447 -2.1172  0.2361  0.0612
 1541SOL    HW2 4944   1.997   4.545   2.441 -1.8635  0.2640  0.6804
 1542SOL     OW 4945   0.450   2.981   3.235  0.2033  0.5757 -0.1858
 1542SOL    HW1 4946   0.486   2.890   3.257 -2.1610 -0.3571  0.1036
 1542SOL    HW2 4947   0.517   3.031   3.181  2.4994 -0.4638  1.5127
 1543SOL     OW 4948   1.256   2.198   2.874 -0.2135 -0.2125  0.3742
 1543SOL    HW1 4949   1.177   2.258   2.860  1.0033  1.4356  0.2163
 1543SOL    HW2 4950   1.257   2.165   2.968 -0.6567  0.4117  0.6036
 1544SOL     OW 4951   1.232   4.181   3.448 -0.2099 -0.4265  0.2534
 1544SOL    HW1 4952   1.203   4.246   3.378 -0.7149 -1.3475 -0.4142
 1544SOL    HW2 4953   1.311   4.130   3.415 -0.6837 -1.1309  0.1804
 1545SOL     OW 4954   5.495   3.323   3.412  0.3777  0.0973 -0.5397
 1545SOL    HW1 4955   5.488   3.406   3.467  0.9735 -1.7714  2.6667
 1545SOL    HW2 4956   5.419   3.319   3.347 -1.9711  1.3356  1.9245
 1546SOL     OW 4957   5.534   4.589   2.547  0.0563 -0.1526 -0.2613
 1546SOL    HW1 4958   5.520   4.627   2.638 -0.6236 -0.4896 -0.2274
 1546SOL    HW2 4959   5.632   4.589   2.526  0.1910  0.1780  0.3553
 1547SOL     OW 4960   0.665   4.261   3.283 -0.5067  0.0727  0.0574
 1547SOL    HW1 4961   0.569   4.232   3.280 -0.8220  0.9102  1.3585
 1547SOL    HW2 4962   0.680   4.333   3.215 -0.5750 -0.6426 -0.7344
 1548SOL     OW 4963   0.869   0.930   4.616  0.0179 -0.2056  0.1277
 1548SOL    HW1 4964   0.924   0.846   4.617  3.0435  1.5339 -2.0749
 1548SOL    HW2 4965   0.895   0.987   4.694  0.8640  0.3109 -0.5196
 1549SOL     OW 4966   1.618   4.701   3.115 -0.0247  0.0614 -0.0568
 1549SOL    HW1 4967   1.579   4.690   3.206  0.9191 -0.5937  0.2815
 1549SOL    HW2 4968   1.716   4.718   3.122 -0.2581  1.9792 -0.8761
 1550SOL     OW 4969   1.718   3.940   3.574 -0.0919 -0.5733 -0.2518
 1550SOL    HW1 4970   1.802   3.993   3.570  0.3137 -1.1145  0.7414
 1550SOL    HW2 4971   1.639   4.002   3.576  0.3225 -0.0414 -0.1992
 1551SOL     OW 4972   0.966   4.726   3.024 -0.5392  0.3388  0.0008
 1551SOL    HW1 4973   0.910   4.717   3.107  0.2164  1.2511  0.6280
 1551SOL    HW2 4974   0.923   4.674   2.950 -1.8227  0.4111  0.6566
 1552SOL     OW 4975   0.086   3.951   2.407 -0.0920 -0.4009 -0.2172
 1552SOL    HW1 4976   0.156   4.021   2.419  1.0515 -1.6041  0.4750
 1552SOL    HW2 4977  -0.004   3.993   2.413  0.5280  0.8351  1.5992
 1553SOL     OW 4978   0.016   4.451   3.278 -0.2793 -0.1296  0.0453
 1553SOL    HW1 4979   0.042   4.545   3.258  0.4656 -0.4482 -0.5034
 1553SOL    HW2 4980   0.010   4.399   3.193  0.4994 -0.8814  0.4451
 1554SOL     OW 4981   0.679   0.675   2.818  1.0135  0.0533  0.4984
 1554SOL    HW1 4982   0.697   0.594   2.874  0.2983  0.6630  1.6325
 1554SOL    HW2 4983   0.635   0.647   2.733 -1.5924 -0.6052  1.9524
 1555SOL     OW 4984   0.936   3.796   2.536  0.2394 -0.6185  0.9755
 1555SOL    HW1 4985   0.910   3.707   2.498  0.3161 -0.8979  1.5661
 1555SOL    HW2 4986   0.856   3.836   2.582  0.2307 -0.4248  0.7905
 1556SOL     OW 4987   0.411   5.563   4.452  0.0445  0.3723  0.4954
 1556SOL    HW1 4988   0.419   5.466   4.475  2.1146  0.9079  2.4335
 1556SOL    HW2 4989   0.500   5.598   4.421 -0.6642  1.6620 -0.1744
 1557SOL     OW 4990   0.850   4.117   1.129  0.1173  0.1972 -0.9618
 1557SOL    HW1 4991   0.831   4.035   1.075  0.0257  0.9065 -2.0235
 1557SOL    HW2 4992   0.767   4.144   1.178  0.0222 -0.0723 -0.9688
 1558SOL     OW 4993   1.755   4.072   2.724 -0.3058  0.0045  0.2072
 1558SOL    HW1 4994   1.743   4.169   2.742  1.3377  0.4287 -0.7408
 1558SOL    HW2 4995   1.774   4.024   2.810  1.1856  0.9350  0.4441
 1559SOL     OW 4996   5.341   5.301   4.283 -0.6871 -0.0678  0.6584
 1559SOL    HW1 4997   5.294   5.385   4.310 -3.3129 -0.7665 -1.2753
 1559SOL    HW2 4998   5.374   5.309   4.189  3.1982  0.3295  1.8915
 1560SOL     OW 4999   1.157   0.098   2.682  0.9442  0.1445  0.6376
 1560SOL    HW1 5000   1.227   0.145   2.736  0.2540  1.2586  0.5892
 1560SOL    HW2 5001   1.118   0.024   2.735  2.4315 -0.7640  0.5269
 1561SOL     OW 5002   5.562   3.382   2.910 -0.4325 -0.8631 -0.5309
 1561SOL    HW1 5003   5.586   3.454   2.844  0.5876  1.1617  1.8894
 1561SOL    HW2 5004   5.465   3.360   2.902 -1.0472  1.6194 -0.6403
 1562SOL     OW 5005   1.416   5.251   1.767  0.2782  0.0817  0.1572
 1562SOL    HW1 5006   1.360   5.214   1.694 -0.4247  0.7666  0.3321
 1562SOL    HW2 5007   1.487   5.310   1.729  1.3562 -1.3492 -0.1157
 1563SOL     OW 5008   4.969   4.657   1.787  0.0917 -0.1428  0.7185
 1563SOL    HW1 5009   4.900   4.693   1.850 -0.5338  0.4177 -0.2527
 1563SOL    HW2 5010   4.947   4.562   1.766 -0.5494  0.1069  0.2177
 1564SOL     OW 5011   1.590   4.308   2.451  0.2293 -0.3259 -0.0766
 1564SOL    HW1 5012   1.683   4.304   2.490  0.3218  2.4980  0.1833
 1564SOL    HW2 5013   1.595   4.295   2.352  1.2053  1.5649 -0.3291
 1565SOL     OW 5014   5.015   0.273   2.664 -0.0603 -0.3668  0.4796
 1565SOL    HW1 5015   4.984   0.195   2.610 -1.3220 -0.5112  1.3702
 1565SOL    HW2 5016   5.110   0.260   2.691  0.7730 -0.0728 -2.0667
 1566SOL     OW 5017   1.772   4.254   1.868  0.0944  0.1306  0.3926
 1566SOL    HW1 5018   1.815   4.167   1.842 -0.1983  0.3127 -0.7843
 1566SOL    HW2 5019   1.695   4.236   1.929  0.8365 -0.3204  1.2223
 1567SOL     OW 5020   0.696   4.745   1.732 -0.0462  0.1412 -0.4430
 1567SOL    HW1 5021   0.786   4.702   1.742 -0.2120 -0.4115 -1.2307
 1567SOL    HW2 5022   0.697   4.834   1.778  0.7387 -0.0809  0.0009
 1568SOL     OW 5023   2.443   4.350   4.073 -0.2869  0.0217  0.2972
 1568SOL    HW1 5024   2.382   4.295   4.130  2.1337 -1.7060  1.3997
 1568SOL    HW2 5025   2.397   4.436   4.048 -2.9735 -1.0069  1.3057
 1569SOL     OW 5026   1.233   3.719   1.586  0.1564  0.6402 -0.2431
 1569SOL    HW1 5027   1.300   3.740   1.657 -1.2317 -2.1571  2.1420
 1569SOL    HW2 5028   1.146   3.764   1.607 -0.0591  0.4021 -0.6053
 1570SOL     OW 5029   0.941   4.017   2.857 -0.2683  0.1448  0.1950
 1570SOL    HW1 5030   0.880   3.998   2.780 -2.7796  2.3702  1.4708
 1570SOL    HW2 5031   0.969   4.113   2.854  0.3003  0.0414  1.5867
 1571SOL     OW 5032   0.954   0.721   2.568 -0.3340 -0.1992  0.2790
 1571SOL    HW1 5033   1.011   0.642   2.590 -0.3740 -0.6592 -1.1388
 1571SOL    HW2 5034   0.922   0.713   2.473  0.6844  2.1179 -0.3285
 1572SOL     OW 5035   3.109   4.700   3.926  0.3363  0.6664  0.1399
 1572SOL    HW1 5036   3.142   4.626   3.867 -0.4241 -0.4614  1.0939
 1572SOL    HW2 5037   3.104   4.668   4.021 -1.0212  1.5988  0.4173
 1573SOL     OW 5038   0.805   0.661   2.343  0.3407  0.2205  0.3984
 1573SOL    HW1 5039   0.727   0.599   2.337  0.1208  0.2993  1.9538
 1573SOL    HW2 5040   0.809   0.718   2.261 -0.8183 -0.2632 -0.0137
 1574SOL     OW 5041   5.604   2.326   3.269 -0.1538  0.2764  0.7402
 1574SOL    HW1 5042   5.555   2.332   3.182  0.6055 -0.4632  0.2475
 1574SOL    HW2 5043   5.594   2.234   3.306  2.1211 -0.4045 -0.1582
 1575SOL     OW 5044   1.438   3.991   1.488  0.4804  0.2181  0.7892
 1575SOL    HW1 5045   1.535   4.007   1.467  0.7514 -0.4039  1.5055
 1575SOL    HW2 5046   1.381   4.042   1.424  1.2826  0.2217  0.0581
 1576SOL     OW 5047   1.424   5.234   2.219 -0.2936 -0.0470 -0.5830
 1576SOL    HW1 5048   1.347   5.170   2.222 -0.6326  0.3230 -1.3407
 1576SOL    HW2 5049   1.419   5.295   2.298  0.8412 -1.8514  0.9923
 1577SOL     OW 5050   0.231   3.437   1.902 -0.4264  0.1603 -0.3307
 1577SOL    HW1 5051   0.209   3.444   1.999 -0.3934  0.3014 -0.3336
 1577SOL    HW2 5052   0.146   3.444   1.849 -0.2052  3.1605 -0.4737
 1578SOL     OW 5053   1.066   3.508   1.726  0.0824  0.3095  0.2173
 1578SOL    HW1 5054   1.005   3.584   1.702 -1.7873 -0.5490  2.0005
 1578SOL    HW2 5055   1.051   3.433   1.662  0.0294  0.4751  0.0324
 1579SOL     OW 5056   1.359   4.733   2.543  0.2107 -0.1353  0.1887
 1579SOL    HW1 5057   1.310   4.786   2.612 -0.3040 -0.1218 -0.1793
 1579SOL    HW2 5058   1.372   4.789   2.461 -0.8245 -0.7395 -0.4084
 1580SOL     OW 5059   0.344   0.029   2.894 -0.7502 -0.5328  0.0418
 1580SOL    HW1 5060   0.344   0.061   2.989 -2.2485  1.9064 -0.6776
 1580SOL    HW2 5061   0.372  -0.067   2.891  3.1141  0.3169  2.5105
 1581SOL     OW 5062   0.505   4.101   2.786  0.1211  0.1446 -0.4920
 1581SOL    HW1 5063   0.484   4.020   2.732 -2.4012  0.7034 -0.4660
 1581SOL    HW2 5064   0.426   4.126   2.842  1.0209  2.2866 -0.0537
 1582SOL     OW 5065   1.905   0.362   3.491  0.7956  0.7379  0.1166
 1582SOL    HW1 5066   1.839   0.341   3.564  1.0459 -0.4219  0.0374
 1582SOL    HW2 5067   1.989   0.310   3.507  1.0827  0.9483 -0.6668
 1583SOL     OW 5068   0.651   4.817   1.345 -0.2105 -0.0419  0.2293
 1583SOL    HW1 5069   0.590   4.775   1.278  0.2336 -1.4382  0.6627
 1583SOL    HW2 5070   0.600   4.841   1.427 -0.2093 -1.2624  0.6139
 1584SOL     OW 5071   4.933   4.377   1.746 -0.2998  0.4627  0.4468
 1584SOL    HW1 5072   4.891   4.333   1.667 -1.5055  1.3071  0.5949
 1584SOL    HW2 5073   4.909   4.325   1.829  1.6754 -0.9297  0.2260
 1585SOL     OW 5074   0.452   3.448   3.287  0.3996  0.1928 -0.1208
 1585SOL    HW1 5075   0.404   3.406   3.210 -0.6184 -0.9668  1.1008
 1585SOL    HW2 5076   0.395   3.521   3.325  0.7499  0.5288 -0.2322
 1586SOL     OW 5077   5.559   4.173   2.639  0.2912 -0.3224 -0.4124
 1586SOL    HW1 5078   5.516   4.204   2.555  0.3923  0.7140 -0.0900
 1586SOL    HW2 5079   5.515   4.216   2.718  1.2394 -0.0392 -0.0180
 1587SOL     OW 5080   5.205   2.961   3.414  0.1178 -0.1099  0.4863
 1587SOL    HW1 5081   5.160   2.969   3.503 -1.2530  1.4108 -0.2890
 1587SOL    HW2 5082   5.297   3.000   3.420  1.2276 -2.7373  1.9511
 1588SOL     OW 5083   1.601   4.248   3.101 -0.1658  0.0686 -0.1231
 1588SOL    HW1 5084   1.521   4.215   3.052 -0.4654  0.4464  0.1095
 1588SOL    HW2 5085   1.654   4.308   3.042 -0.1562 -0.0262 -0.2112
 1589SOL     OW 5086   0.864   3.816   3.484  0.4491 -0.0535 -0.3132
 1589SOL    HW1 5087   0.818   3.824   3.572  2.6378  1.8845  0.7862
 1589SOL    HW2 5088   0.850   3.900   3.432  0.7882 -0.3779 -0.9389
 1590SOL     OW 5089   0.496   5.394   1.620  0.0365 -0.8775  0.3854
 1590SOL    HW1 5090   0.476   5.298   1.604 -1.8515 -0.3270 -0.9389
 1590SOL    HW2 5091   0.419   5.436   1.670  0.9387 -0.0941  1.1606
 1591SOL     OW 5092   0.571   4.513   2.650  0.1464  0.1306 -0.1432
 1591SOL    HW1 5093   0.633   4.517   2.571 -1.0996  1.5086 -1.0864
 1591SOL    HW2 5094   0.612   4.454   2.721  1.4702 -0.8192 -1.6299
 1592SOL     OW 5095   5.382   5.320   2.191  0.6259  0.1010 -0.0394
 1592SOL    HW1 5096   5.458   5.255   2.188  0.0985 -0.5644  0.5001
 1592SOL    HW2 5097   5.331   5.307   2.276 -0.2298  0.3604 -0.4969
 1593SOL     OW 5098   1.347   4.364   2.089 -0.1266 -0.0114  0.4236
 1593SOL    HW1 5099   1.318   4.433   2.023 -0.0201 -0.6002 -0.2448
 1593SOL    HW2 5100   1.286   4.285   2.084 -1.2162  0.6409  2.2752
 1594SOL     OW 5101   1.201   3.856   1.261 -0.3250  0.2734  0.2206
 1594SOL    HW1 5102   1.259   3.880   1.339 -0.7103  0.8500  0.3303
 1594SOL    HW2 5103   1.127   3.797   1.293 -0.9893  1.2178  0.4589
 1595SOL     OW 5104   1.772   4.706   3.390  1.0254 -0.8824 -0.7327
 1595SOL    HW1 5105   1.736   4.791   3.428 -1.3691 -1.2537 -1.9856
 1595SOL    HW2 5106   1.754   4.631   3.452  0.8738 -0.8622 -0.7529
 1596SOL     OW 5107   0.787   4.064   3.423 -0.4026  0.1975 -0.1334
 1596SOL    HW1 5108   0.730   4.140   3.392 -0.1153  0.9974  1.2636
 1596SOL    HW2 5109   0.857   4.097   3.486  3.1887 -0.3131 -3.4699
 1597SOL     OW 5110   1.642   4.807   4.321 -0.4221 -0.0576  0.2375
 1597SOL    HW1 5111   1.719   4.854   4.363 -1.2300  0.6402  0.9930
 1597SOL    HW2 5112   1.643   4.820   4.222  1.8113 -2.1466 -0.1067
 1598SOL     OW 5113   1.328   5.186   2.952 -0.1592 -0.4115  0.0500
 1598SOL    HW1 5114   1.387   5.252   2.997 -0.1037 -0.9331  0.7628
 1598SOL    HW2 5115   1.233   5.215   2.959 -0.0441  0.1361 -0.5911
 1599SOL     OW 5116   5.279   4.799   3.421 -0.3810  0.3569  0.1318
 1599SOL    HW1 5117   5.290   4.706   3.455 -1.4625  0.3467  0.4946
 1599SOL    HW2 5118   5.307   4.804   3.325  0.5530 -0.1251  0.3722
 1600SOL     OW 5119   0.349   2.854   4.565 -0.1857  0.2646 -0.2714
 1600SOL    HW1 5120   0.415   2.779   4.575 -1.1774 -0.3347  2.9569
 1600SOL    HW2 5121   0.397   2.937   4.535  1.5455 -0.7900 -0.5309
 1601SOL     OW 5122   0.497   3.984   3.492  0.2477 -0.1834 -0.7604
 1601SOL    HW1 5123   0.589   4.023   3.491  0.1100  0.1900  0.1759
 1601SOL    HW2 5124   0.495   3.905   3.554 -0.0431 -0.2272 -0.8253
 1602SOL     OW 5125   1.017   4.394   2.493  0.0477  0.1272 -0.4008
 1602SOL    HW1 5126   1.039   4.488   2.468  1.7228 -0.0396  0.3321
 1602SOL    HW2 5127   1.065   4.331   2.432  0.6530 -0.2437  0.4338
 1603SOL     OW 5128   5.453   4.821   2.039 -0.2429  0.5082  0.6457
 1603SOL    HW1 5129   5.520   4.855   2.104 -0.1610  0.3639  0.6377
 1603SOL    HW2 5130   5.426   4.728   2.063  0.6892 -0.0040 -0.1999
 1604SOL     OW 5131   2.045   3.986   2.980 -0.2066  0.3086  0.2423
 1604SOL    HW1 5132   2.051   4.048   3.058 -0.0721  0.0857  0.4100
 1604SOL    HW2 5133   2.001   4.033   2.903 -0.0413  0.6306  0.3454
 1605SOL     OW 5134   3.632   0.241   2.993  0.0607 -0.1460 -0.3172
 1605SOL    HW1 5135   3.725   0.245   3.030  0.0056 -0.8710 -0.0832
 1605SOL    HW2 5136   3.568   0.281   3.058  0.3681  1.6625 -1.0816
 1606SOL     OW 5137   0.296   5.591   2.300 -0.0360 -0.0086 -0.1957
 1606SOL    HW1 5138   0.335   5.595   2.392  2.3666  1.0732 -1.1850
 1606SOL    HW2 5139   0.212   5.536   2.302  0.9882 -1.6746  2.2511
 1607SOL     OW 5140   5.047   3.538   3.495 -0.3093  0.6020  0.0608
 1607SOL    HW1 5141   5.022   3.445   3.470 -2.0816  1.3330 -1.0901
 1607SOL    HW2 5142   5.063   3.591   3.412  0.2995  1.4221  0.6898
 1608SOL     OW 5143   0.372   5.155   2.603 -0.3473  0.0818  0.5195
 1608SOL    HW1 5144   0.397   5.142   2.699  0.0656  0.4055  0.4565
 1608SOL    HW2 5145   0.441   5.210   2.557 -1.6607  1.9172  0.6111
 1609SOL     OW 5146   2.231   5.547   3.482  0.3697  0.0657  0.5674
 1609SOL    HW1 5147   2.299   5.620   3.491  0.1264  0.3792 -0.0744
 1609SOL    HW2 5148   2.152   5.582   3.432 -1.2944  0.3933  3.2714
 1610SOL     OW 5149   0.714   4.452   3.078 -0.0703 -0.5598 -0.0118
 1610SOL    HW1 5150   0.763   4.422   2.996 -0.2979  0.1779 -0.4235
 1610SOL    HW2 5151   0.764   4.528   3.120 -1.1856  0.6436 -0.8064
 1611SOL     OW 5152   1.011   4.118   3.592 -0.0661  0.1745 -0.3480
 1611SOL    HW1 5153   0.985   4.193   3.653  0.5569 -0.6373  0.9888
 1611SOL    HW2 5154   1.094   4.142   3.543 -0.8961  1.0735 -1.3596
 1612SOL     OW 5155   1.908   4.626   2.914 -0.2632  0.1464 -0.3280
 1612SOL    HW1 5156   2.006   4.640   2.906 -0.3924  0.9438 -0.6985
 1612SOL    HW2 5157   1.874   4.668   2.998 -0.4375  0.8338 -0.7293
 1613SOL     OW 5158   1.239   3.939   4.391 -0.6320 -0.6063 -0.4056
 1613SOL    HW1 5159   1.337   3.920   4.398 -0.8380 -1.2736  1.3337
 1613SOL    HW2 5160   1.188   3.856   4.409 -1.5323 -0.1866 -0.9545
 1614SOL     OW 5161   0.367   3.300   3.042 -0.1583  0.0370  0.5178
 1614SOL    HW1 5162   0.283   3.354   3.047  0.2062  0.5977  0.7690
 1614SOL    HW2 5163   0.439   3.354   2.997  0.4120  0.0389  1.3963
 1615SOL     OW 5164   0.130   3.803   3.314 -0.5478 -0.1351 -0.3699
 1615SOL    HW1 5165   0.034   3.783   3.335 -0.5430 -0.9683 -1.0942
 1615SOL    HW2 5166   0.186   3.783   3.395 -0.7581 -1.5374 -0.5413
 1616SOL     OW 5167   0.264   4.071   2.984  0.2993  0.1357  0.2412
 1616SOL    HW1 5168   0.255   3.989   2.927  0.6864 -0.8012  1.4814
 1616SOL    HW2 5169   0.189   4.073   3.050  0.7197  0.3711  0.7163
 1617SOL     OW 5170   0.826   3.924   2.284  0.6015  0.8791 -0.8000
 1617SOL    HW1 5171   0.884   3.939   2.365  0.1131 -0.4727 -0.1636
 1617SOL    HW2 5172   0.870   3.858   2.224  0.4292  1.0127 -1.0714
 1618SOL     OW 5173   0.854   3.230   3.091 -0.1462  0.1786  0.4884
 1618SOL    HW1 5174   0.810   3.300   3.148  0.2922  0.8868 -0.0273
 1618SOL    HW2 5175   0.793   3.151   3.082 -0.5713  0.4126  1.2341
 1619SOL     OW 5176   3.637   5.091   4.243 -0.0686 -0.4121 -0.8272
 1619SOL    HW1 5177   3.687   5.175   4.261 -0.8717 -0.5243  2.4328
 1619SOL    HW2 5178   3.539   5.111   4.234 -0.2306 -0.9555 -0.3176
 1620SOL     OW 5179   0.812   5.286   3.504 -0.1087  1.2330  0.2311
 1620SOL    HW1 5180   0.829   5.354   3.433 -0.2874  0.5142 -0.5096
 1620SOL    HW2 5181   0.777   5.202   3.463  1.1147  0.3100  1.0161
 1621SOL     OW 5182   1.449   4.043   2.953 -0.1868 -0.2072  0.0021
 1621SOL    HW1 5183   1.403   4.025   3.040 -0.6802 -0.6523 -0.3440
 1621SOL    HW2 5184   1.383   4.081   2.888  0.4843  1.4066  0.2319
 1622SOL     OW 5185   4.686   3.458   3.469 -0.2865  0.1384  0.5313
 1622SOL    HW1 5186   4.623   3.425   3.538  0.4367 -0.2790  1.0063
 1622SOL    HW2 5187   4.690   3.557   3.472  0.2036  0.0958  1.5128
 1623SOL     OW 5188   0.027   4.780   3.589 -0.4284 -0.1280 -0.5104
 1623SOL    HW1 5189   0.055   4.693   3.630  1.3768  0.0818 -1.2280
 1623SOL    HW2 5190  -0.024   4.833   3.657  0.4806 -0.7637  0.7235
 1624SOL     OW 5191   4.703   0.957   2.999  0.6476  0.3176 -0.1378
 1624SOL    HW1 5192   4.653   0.918   3.077 -0.7866  1.5523 -0.3818
 1624SOL    HW2 5193   4.755   1.037   3.030  0.0312  0.8433 -0.4219
 1625SOL     OW 5194   2.023   4.595   3.639 -0.4303 -0.3887 -0.0522
 1625SOL    HW1 5195   1.956   4.599   3.713  0.3164 -1.4765  0.7296
 1625SOL    HW2 5196   2.040   4.687   3.604 -0.5030  0.2168  1.4146
 1626SOL     OW 5197   0.297   4.721   3.032  0.3278 -0.3203 -0.0100
 1626SOL    HW1 5198   0.264   4.716   2.937  1.6367 -0.6624 -0.4631
 1626SOL    HW2 5199   0.366   4.651   3.047  0.9044  0.4176  0.8800
 1627SOL     OW 5200   2.030   4.001   1.015 -0.3190 -0.3139  0.2730
 1627SOL    HW1 5201   2.076   4.073   1.066  0.8836 -1.7177  1.2538
 1627SOL    HW2 5202   1.933   4.000   1.038 -0.6155  1.7778 -0.7325
 1628SOL     OW 5203   0.826   4.021   1.483  0.2477 -0.0776  0.4569
 1628SOL    HW1 5204   0.875   4.104   1.455 -1.0519  0.2369 -1.0029
 1628SOL    HW2 5205   0.751   4.045   1.544 -0.0105 -0.1997  0.1894
 1629SOL     OW 5206   0.194   5.353   2.656  0.5888 -0.9229  0.5973
 1629SOL    HW1 5207   0.109   5.327   2.703 -1.4171  0.0709 -2.2007
 1629SOL    HW2 5208   0.244   5.270   2.630  0.2962 -1.5404  1.9139
 1630SOL     OW 5209   5.341   3.577   1.849 -0.4519  0.1273 -0.5030
 1630SOL    HW1 5210   5.402   3.656   1.841 -0.4449  0.4207  1.7368
 1630SOL    HW2 5211   5.247   3.609   1.861 -0.2477 -0.0855  2.0913
 1631SOL     OW 5212   0.328   4.761   3.619 -0.1994  0.4108  0.1095
 1631SOL    HW1 5213   0.236   4.736   3.650 -0.1620 -0.5999 -0.5632
 1631SOL    HW2 5214   0.320   4.830   3.546 -0.6269 -1.7912 -2.0569
 1632SOL     OW 5215   5.439   3.020   3.730  0.2072 -0.0768  0.4642
 1632SOL    HW1 5216   5.515   3.042   3.790  1.9142  1.0093 -1.9540
 1632SOL    HW2 5217   5.446   2.924   3.701  1.9257  0.5545 -1.3713
 1633SOL     OW 5218   1.290   4.913   2.976 -0.0618  0.6092  0.0963
 1633SOL    HW1 5219   1.308   5.010   2.994  0.5388  0.6073 -0.4603
 1633SOL    HW2 5220   1.256   4.870   3.059  1.3850  0.8926  0.8575
 1634SOL     OW 5221   1.368   5.395   2.435 -0.2805 -0.1278 -0.5903
 1634SOL    HW1 5222   1.374   5.339   2.517 -2.5532  0.2892 -0.0829
 1634SOL    HW2 5223   1.403   5.487   2.455  0.1723 -0.3385 -0.4093
 1635SOL     OW 5224   4.588   0.392   2.438 -0.3358 -0.0087  0.2610
 1635SOL    HW1 5225   4.658   0.326   2.410  0.0534 -0.9607  3.0996
 1635SOL    HW2 5226   4.498   0.351   2.428 -0.1358 -0.7655  1.3821
 1636SOL     OW 5227   5.247   0.145   2.916  0.1573  0.1157 -0.2001
 1636SOL    HW1 5228   5.228   0.176   2.823 -1.0813 -0.3987 -0.1404
 1636SOL    HW2 5229   5.162   0.140   2.967  0.8336  0.4212  0.9810
 1637SOL     OW 5230   0.738   4.341   2.808  0.1203 -0.2314 -0.0604
 1637SOL    HW1 5231   0.666   4.272   2.799 -0.0221  0.1196 -2.5783
 1637SOL    HW2 5232   0.824   4.304   2.772  1.0867 -0.3886  2.2314
 1638SOL     OW 5233   5.369   5.580   3.283 -0.2541 -0.8349 -0.6620
 1638SOL    HW1 5234   5.279   5.552   3.315  0.5470 -4.3302 -1.0784
 1638SOL    HW2 5235   5.362   5.616   3.190 -1.4527  1.2930  0.1820
 1639SOL     OW 5236   5.296   5.247   2.662 -0.0088  0.0606 -0.3665
 1639SOL    HW1 5237   5.204   5.266   2.697  0.3869 -1.2198  1.4679
 1639SOL    HW2 5238   5.346   5.333   2.655 -0.9785  0.6526 -0.3495
 1640SOL     OW 5239   1.121   3.901   3.699  0.1581  0.3072 -0.6403
 1640SOL    HW1 5240   1.068   3.976   3.661  1.7290  1.3742 -0.7930
 1640SOL    HW2 5241   1.203   3.886   3.644 -0.0473 -1.4462 -0.5394
 1641SOL     OW 5242   5.290   3.963   2.394  0.0699  0.3254 -0.4746
 1641SOL    HW1 5243   5.194   3.973   2.423  0.2073  0.5628 -0.0925
 1641SOL    HW2 5244   5.293   3.923   2.302 -0.4007  0.5305 -0.5831
 1642SOL     OW 5245   0.431   3.713   2.223 -0.3456 -0.7413  0.1111
 1642SOL    HW1 5246   0.482   3.628   2.215 -0.5658 -0.9890  1.1444
 1642SOL    HW2 5247   0.339   3.694   2.258 -0.7658 -0.1847 -0.6492
 1643SOL     OW 5248   0.103   1.258   3.310 -0.3654 -0.2323  0.3534
 1643SOL    HW1 5249   0.190   1.302   3.331 -0.2879 -1.3512  2.7054
 1643SOL    HW2 5250   0.118   1.162   3.288 -0.9726 -0.3240  0.3146
 1644SOL     OW 5251   0.416   4.493   3.560 -0.0821  0.3554  0.1301
 1644SOL    HW1 5252   0.354   4.454   3.493 -1.2579  1.2224  0.6588
 1644SOL    HW2 5253   0.419   4.593   3.549  1.3684  0.3165  0.0074
 1645SOL     OW 5254   0.388   0.105   3.172 -0.1419  0.3456 -0.3192
 1645SOL    HW1 5255   0.437   0.192   3.170  3.0539 -1.2701  0.4023
 1645SOL    HW2 5256   0.394   0.065   3.263  0.3895 -1.5879 -1.1536
 1646SOL     OW 5257   5.417   4.207   2.395  0.3294  0.5773 -0.5462
 1646SOL    HW1 5258   5.358   4.127   2.386 -0.1586  1.0127 -1.3183
 1646SOL    HW2 5259   5.365   4.282   2.434  0.6007  0.7209 -0.4603
 1647SOL     OW 5260   0.682   4.218   3.762 -0.0866  0.1653 -0.3781
 1647SOL    HW1 5261   0.778   4.245   3.770 -0.1276  0.3814 -0.5815
 1647SOL    HW2 5262   0.624   4.300   3.764 -0.1665  0.1787 -1.8110
 1648SOL     OW 5263   1.459   5.243   3.725  0.0235  0.2119  0.0367
 1648SOL    HW1 5264   1.426   5.238   3.630 -2.1279 -4.4559  0.7804
 1648SOL    HW2 5265   1.381   5.237   3.787  1.6371 -0.5819  2.0704
 1649SOL     OW 5266   0.953   4.648   1.730  0.1044 -0.0125  0.0134
 1649SOL    HW1 5267   0.999   4.699   1.803  0.6405  0.7387 -0.8274
 1649SOL    HW2 5268   0.963   4.550   1.746  0.3743  0.1428  0.8387
 1650SOL     OW 5269   2.200   5.418   3.930  0.4082  0.3320 -0.3801
 1650SOL    HW1 5270   2.191   5.429   3.831 -2.0707 -0.2691 -0.2892
 1650SOL    HW2 5271   2.236   5.502   3.970 -0.5979  1.3738 -1.5798
 1651SOL     OW 5272   1.887   4.764   3.139 -0.0052  0.2757  0.4862
 1651SOL    HW1 5273   1.933   4.850   3.118  2.4562 -0.7474  1.3379
 1651SOL    HW2 5274   1.862   4.762   3.236 -0.7040  0.2869  0.3144
 1652SOL     OW 5275   0.194   0.369   3.323  0.1461 -0.2032  0.2402
 1652SOL    HW1 5276   0.171   0.274   3.303 -0.3009 -0.1198  0.3468
 1652SOL    HW2 5277   0.292   0.383   3.313  0.1848 -0.6293  0.0313
 1653SOL     OW 5278   1.684   4.876   2.622 -0.2353  0.5315  0.0678
 1653SOL    HW1 5279   1.626   4.855   2.543 -1.0740  1.7004  0.3293
 1653SOL    HW2 5280   1.755   4.807   2.631 -2.8476 -2.2532  1.0077
 1654SOL     OW 5281   1.288   4.758   2.005 -0.4225 -0.2993 -1.0074
 1654SOL    HW1 5282   1.304   4.670   1.961 -3.3213 -1.0985 -0.6652
 1654SOL    HW2 5283   1.200   4.796   1.975 -1.3641  0.2956  2.1035
 1655SOL     OW 5284   5.377   0.207   2.149  0.9269  0.0746  0.1532
 1655SOL    HW1 5285   5.342   0.296   2.180  3.0312  0.6020  1.1973
 1655SOL    HW2 5286   5.347   0.190   2.055 -1.4789  0.7632  0.7238
 1656SOL     OW 5287   5.418   0.782   3.784 -0.5429  0.4009  0.3021
 1656SOL    HW1 5288   5.366   0.770   3.700 -0.2825  0.2945  0.1542
 1656SOL    HW2 5289   5.496   0.718   3.785 -1.0148 -0.1850  1.0011
 1657SOL     OW 5290   0.649   4.400   2.257 -0.5141  0.2253  0.0264
 1657SOL    HW1 5291   0.572   4.455   2.225  0.1480  0.4284 -1.2851
 1657SOL    HW2 5292   0.693   4.446   2.335 -2.2101 -0.3209  1.3595
 1658SOL     OW 5293   0.334   1.241   1.790 -1.0040 -0.1910  0.3386
 1658SOL    HW1 5294   0.271   1.313   1.759  0.4813  0.3660 -1.6284
 1658SOL    HW2 5295   0.339   1.170   1.720  0.9242  0.0469  0.1947
 1659SOL     OW 5296   0.731   1.156   1.697  0.1642 -0.0777  0.1772
 1659SOL    HW1 5297   0.675   1.126   1.774  2.2254 -1.9631  1.0479
 1659SOL    HW2 5298   0.817   1.195   1.732  0.9074 -0.4920 -1.1396
 1660SOL     OW 5299   1.816   0.595   3.483  0.2981 -0.2101  0.1005
 1660SOL    HW1 5300   1.850   0.501   3.477  3.4357  0.8085  0.0134
 1660SOL    HW2 5301   1.889   0.659   3.458 -1.4527  2.3203  0.9852
 1661SOL     OW 5302   2.008   3.974   2.680  0.3255 -0.2317 -0.1056
 1661SOL    HW1 5303   2.051   4.003   2.594  0.7815 -0.1246  0.1504
 1661SOL    HW2 5304   1.925   4.027   2.696  0.7822  0.4591  0.0149
 1662SOL     OW 5305   0.489   3.863   2.633 -0.0530  0.3521 -0.5211
 1662SOL    HW1 5306   0.546   3.855   2.551  0.5575 -0.7502 -0.0218
 1662SOL    HW2 5307   0.433   3.780   2.642  0.3765  0.1582  0.5190
 1663SOL     OW 5308   1.325   5.439   1.315  0.1689  0.1141 -0.4543
 1663SOL    HW1 5309   1.275   5.352   1.313 -1.3628  0.9090  0.6355
 1663SOL    HW2 5310   1.313   5.486   1.227 -1.5229  0.5130 -0.0619
 1664SOL     OW 5311   1.365   5.225   3.440  0.4702 -0.4389  0.8228
 1664SOL    HW1 5312   1.346   5.309   3.388  1.7652  1.2572  2.8874
 1664SOL    HW2 5313   1.281   5.194   3.484  0.0473  0.0388  0.3664
 1665SOL     OW 5314   0.780   4.685   3.217  0.0823 -0.3165 -0.0289
 1665SOL    HW1 5315   0.761   4.700   3.314  0.3500  1.0631 -0.1677
 1665SOL    HW2 5316   0.717   4.740   3.162  3.0210  2.9467 -0.5228
 1666SOL     OW 5317   5.497   0.448   2.640  0.0591  0.0487 -0.1164
 1666SOL    HW1 5318   5.590   0.416   2.662 -0.7830 -2.7243 -0.2771
 1666SOL    HW2 5319   5.496   0.485   2.547  1.4184  2.2045  0.6428
 1667SOL     OW 5320   5.434   4.334   2.812 -0.1877 -0.4005  0.6959
 1667SOL    HW1 5321   5.338   4.329   2.784 -0.3349  0.7626  0.9267
 1667SOL    HW2 5322   5.460   4.430   2.823  1.0248 -0.7034  0.5859
 1668SOL     OW 5323   1.278   0.101   3.170 -0.1841  0.4393 -0.4280
 1668SOL    HW1 5324   1.194   0.132   3.126  0.0223  0.0704 -1.0918
 1668SOL    HW2 5325   1.358   0.138   3.121  0.0468  0.3120 -0.1528
 1669SOL     OW 5326   1.498   4.994   3.303 -0.6091 -0.2666  0.2429
 1669SOL    HW1 5327   1.470   5.070   3.361 -2.5052 -0.1732 -0.7185
 1669SOL    HW2 5328   1.597   4.985   3.305 -0.5076  0.8928  2.0142
 1670SOL     OW 5329   1.612   4.240   1.247 -0.5322 -0.1486 -0.1620
 1670SOL    HW1 5330   1.663   4.200   1.323  1.0730  2.2067  0.1086
 1670SOL    HW2 5331   1.545   4.306   1.283 -1.6450 -0.9563 -0.6892
 1671SOL     OW 5332   0.159   5.011   2.490  0.0244 -0.2590 -0.0739
 1671SOL    HW1 5333   0.086   5.003   2.558  0.5082  2.2466  0.8559
 1671SOL    HW2 5334   0.245   5.030   2.537  0.5620  0.5427 -1.3475
 1672SOL     OW 5335   1.924   4.846   3.939  0.3273  0.1584 -0.1382
 1672SOL    HW1 5336   2.014   4.820   3.974  0.6511  0.6889 -0.5453
 1672SOL    HW2 5337   1.927   4.942   3.910 -0.0279 -0.1595 -1.2607
 1673SOL     OW 5338   5.274   5.509   2.012  0.3184 -0.3925 -0.5820
 1673SOL    HW1 5339   5.307   5.454   2.089 -0.2912 -0.5557 -0.4301
 1673SOL    HW2 5340   5.339   5.504   1.936  0.1362 -1.5487 -0.6738
 1674SOL     OW 5341   5.010   3.876   4.188  0.6265 -0.4008 -0.0621
 1674SOL    HW1 5342   4.972   3.786   4.167  1.0442 -0.4011 -0.8349
 1674SOL    HW2 5343   4.989   3.940   4.115  0.3796  0.1277  0.4606
 1675SOL     OW 5344   0.278   3.686   3.066 -0.1074 -0.0942 -0.1930
 1675SOL    HW1 5345   0.374   3.710   3.079 -0.3882  1.3952 -0.6233
 1675SOL    HW2 5346   0.223   3.729   3.138 -0.7785  1.7665 -1.7277
 1676SOL     OW 5347   5.435   4.492   2.072  0.1073  0.5993 -1.1359
 1676SOL    HW1 5348   5.342   4.474   2.039 -0.3372 -0.4718  0.5536
 1676SOL    HW2 5349   5.430   4.546   2.157  1.0323  0.6941 -1.1375
 1677SOL     OW 5350   0.172   5.522   3.540 -0.0321 -0.2403 -0.3707
 1677SOL    HW1 5351   0.179   5.530   3.640 -0.5701 -3.8777  0.1011
 1677SOL    HW2 5352   0.101   5.584   3.507  0.7784  1.7148  1.3106
 1678SOL     OW 5353   5.084   3.841   1.180  0.4893 -0.2121  0.4858
 1678SOL    HW1 5354   5.182   3.857   1.173  0.3777  0.4453  0.4049
 1678SOL    HW2 5355   5.057   3.769   1.117  0.8007  0.1061 -0.0134
 1679SOL     OW 5356   0.593   5.488   0.978 -0.0690  0.3919 -0.1446
 1679SOL    HW1 5357   0.562   5.543   0.901 -0.4950  0.2530 -0.0722
 1679SOL    HW2 5358   0.516   5.440   1.019  0.4383 -0.9716 -0.7546
 1680SOL     OW 5359   0.874   4.749   2.703  0.4286 -0.6788  0.2575
 1680SOL    HW1 5360   0.788   4.775   2.748  1.2475  0.8316  1.0500
 1680SOL    HW2 5361   0.866   4.765   2.604 -0.3483 -1.0223  0.2556
 1681SOL     OW 5362   0.913   0.858   2.796 -0.6448 -0.2274 -0.3714
 1681SOL    HW1 5363   0.943   0.797   2.723 -0.8676 -1.4535  0.5245
 1681SOL    HW2 5364   0.819   0.836   2.821 -1.7150  2.3191 -1.8554
 1682SOL     OW 5365   0.725   3.880   3.735  0.0141 -0.4158 -0.5593
 1682SOL    HW1 5366   0.789   3.826   3.790 -1.0655 -1.5704 -0.3809
 1682SOL    HW2 5367   0.707   3.967   3.781  1.0999 -0.2519 -0.4041
 1683SOL     OW 5368   0.951   5.445   2.777  0.1321 -0.0478  0.3043
 1683SOL    HW1 5369   0.947   5.345   2.769  0.6438 -0.1368  1.0276
 1683SOL    HW2 5370   0.919   5.486   2.692 -0.6458 -0.8166  0.2009
 1684SOL     OW 5371   5.188   5.271   3.457 -0.1374 -0.2232 -0.0223
 1684SOL    HW1 5372   5.272   5.220   3.440  0.9748  1.7049 -0.6698
 1684SOL    HW2 5373   5.110   5.209   3.453  1.2868 -2.2580  1.5933
 1685SOL     OW 5374   2.365   4.884   1.764 -0.3282 -0.3293  0.3743
 1685SOL    HW1 5375   2.431   4.840   1.702 -0.1813 -0.3221  0.5278
 1685SOL    HW2 5376   2.293   4.928   1.709 -0.0548 -0.0943  0.2003
 1686SOL     OW 5377   1.298   4.138   1.719 -0.0405 -0.2464 -0.0365
 1686SOL    HW1 5378   1.253   4.073   1.781 -0.7046 -0.3419 -0.6135
 1686SOL    HW2 5379   1.335   4.089   1.641  1.1356 -0.1753  0.4536
 1687SOL     OW 5380   0.945   4.378   1.864  0.4456  0.0727  0.2720
 1687SOL    HW1 5381   0.865   4.319   1.871  0.1205  0.5574  0.6372
 1687SOL    HW2 5382   0.947   4.442   1.941  0.4449  0.9773 -0.4721
 1688SOL     OW 5383   0.987   2.726   2.219  0.2574  0.3435  0.7728
 1688SOL    HW1 5384   1.048   2.751   2.295  3.0909  1.0575 -1.5714
 1688SOL    HW2 5385   0.973   2.805   2.160 -2.9606  0.1586  1.0714
 1689SOL     OW 5386   0.925   4.019   3.187  0.6019 -0.9743  0.0828
 1689SOL    HW1 5387   0.866   4.024   3.107  0.8597  0.7754 -0.0240
 1689SOL    HW2 5388   0.871   4.034   3.269  0.6661 -0.7920  0.0914
 1690SOL     OW 5389   0.713   0.056   3.166 -0.3767  0.5516  0.5029
 1690SOL    HW1 5390   0.778   0.057   3.090  0.0063  0.9748  0.8338
 1690SOL    HW2 5391   0.631   0.005   3.138 -0.8247  1.8541 -0.6777
 1691SOL     OW 5392   0.929   3.765   2.063 -0.8247  0.3343 -0.6037
 1691SOL    HW1 5393   0.890   3.674   2.082 -0.8370  0.3856 -0.3775
 1691SOL    HW2 5394   1.028   3.757   2.053 -1.0959 -0.3218 -4.2364
 1692SOL     OW 5395   0.538   3.902   2.376  0.3445 -0.3460  0.2231
 1692SOL    HW1 5396   0.501   3.827   2.321  0.5474  0.1874 -0.6474
 1692SOL    HW2 5397   0.633   3.919   2.351  0.6087 -0.4294  1.1039
 1693SOL     OW 5398   2.417   4.767   2.721  0.0624  0.4739  0.0647
 1693SOL    HW1 5399   2.350   4.792   2.791 -0.3293  1.6204 -0.6917
 1693SOL    HW2 5400   2.501   4.820   2.735  0.0895  0.4880 -0.1477
 1694SOL     OW 5401   3.510   0.199   3.367 -0.2764  0.0295  0.1410
 1694SOL    HW1 5402   3.465   0.115   3.399 -1.0244  1.6909  4.0270
 1694SOL    HW2 5403   3.599   0.176   3.328 -0.0092 -2.5426  2.0048
 1695SOL     OW 5404   0.421   4.501   3.108 -0.0294 -0.4210 -0.1783
 1695SOL    HW1 5405   0.398   4.475   3.201  0.4707 -2.8684 -0.6777
 1695SOL    HW2 5406   0.509   4.460   3.082 -0.6477 -0.6730 -2.0584
 1696SOL     OW 5407   5.103   5.431   3.698 -0.4037 -0.3054  0.7051
 1696SOL    HW1 5408   5.116   5.361   3.627 -0.5411 -1.1848  1.5149
 1696SOL    HW2 5409   5.005   5.442   3.716 -0.3330 -1.5849  2.1472
 1697SOL     OW 5410   2.070   4.143   3.197  0.4190 -0.2171  0.0889
 1697SOL    HW1 5411   2.155   4.141   3.250  1.5123 -0.1573 -1.6080
 1697SOL    HW2 5412   2.063   4.230   3.148 -1.4536  0.4709  1.4386
 1698SOL     OW 5413   0.713   4.229   1.871  0.1488 -0.3688 -0.2149
 1698SOL    HW1 5414   0.743   4.195   1.960 -2.2482 -0.0012  0.8022
 1698SOL    HW2 5415   0.627   4.279   1.881  0.3537  0.6150 -2.6030
 1699SOL     OW 5416   0.959   5.404   2.161  0.4308 -0.2199  0.1893
 1699SOL    HW1 5417   0.982   5.307   2.149  0.2142 -0.2433 -0.0481
 1699SOL    HW2 5418   1.020   5.460   2.106  1.3716 -0.1366  1.2830
 1700SOL     OW 5419   2.058   4.350   3.014 -0.2157 -0.1775  0.3023
 1700SOL    HW1 5420   2.073   4.365   2.916 -0.7489 -0.0800  0.2324
 1700SOL    HW2 5421   2.101   4.423   3.066  1.0275 -0.8071  0.2120
 1701SOL     OW 5422   0.296   3.652   2.664 -0.8139 -0.1024  0.4206
 1701SOL    HW1 5423   0.219   3.657   2.601  0.1971  0.7252 -0.8003
 1701SOL    HW2 5424   0.344   3.565   2.651  0.4728  0.8098 -1.3275
 1702SOL     OW 5425   5.204   3.236   3.874  0.3765  0.4229  1.0612
 1702SOL    HW1 5426   5.159   3.252   3.962 -0.8431  0.4559  0.4615
 1702SOL    HW2 5427   5.300   3.265   3.879  0.3141  0.4568  2.3570
 1703SOL     OW 5428   0.404   0.489   2.770 -0.1058  0.2384 -0.2489
 1703SOL    HW1 5429   0.399   0.561   2.839 -0.4348  1.6025 -1.6337
 1703SOL    HW2 5430   0.437   0.528   2.684 -1.1707 -1.0763 -1.3023
 1704SOL     OW 5431   0.154   5.137   3.603  0.4302 -0.2855 -0.2400
 1704SOL    HW1 5432   0.233   5.095   3.560  2.2525  1.9225  0.7481
 1704SOL    HW2 5433   0.164   5.134   3.703 -0.3033  0.7503 -0.1113
 1705SOL     OW 5434   1.511   3.356   1.253 -0.3919 -0.6253  0.6430
 1705SOL    HW1 5435   1.511   3.307   1.340 -0.3423  0.8262  1.4864
 1705SOL    HW2 5436   1.461   3.442   1.263  1.0173  0.3434 -0.3094
 1706SOL     OW 5437   1.020   4.528   2.780 -0.4837  0.0202 -0.1656
 1706SOL    HW1 5438   0.974   4.612   2.752  1.2780  0.6305 -1.3809
 1706SOL    HW2 5439   1.110   4.550   2.818 -0.1846 -1.3002 -0.0632
 1707SOL     OW 5440   1.097   5.486   1.932  0.1309  0.3750 -0.1085
 1707SOL    HW1 5441   1.166   5.419   1.963  0.1254  0.0017 -0.8878
 1707SOL    HW2 5442   1.141   5.554   1.873  0.0554  0.8346  0.3560
 1708SOL     OW 5443   0.718   0.169   2.774 -0.3902 -0.7708 -0.5960
 1708SOL    HW1 5444   0.767   0.182   2.688  0.8668 -0.3976  0.1482
 1708SOL    HW2 5445   0.622   0.191   2.761  0.0110  0.5301 -1.6018
 1709SOL     OW 5446   5.228   0.482   1.854 -0.4874 -0.3815 -0.1380
 1709SOL    HW1 5447   5.168   0.523   1.786 -0.8245 -0.4675  0.1057
 1709SOL    HW2 5448   5.190   0.395   1.885 -0.2515 -0.4263  0.0379
 1710SOL     OW 5449   5.602   4.842   3.940 -0.0975 -0.3000 -0.2048
 1710SOL    HW1 5450   5.593   4.743   3.947  0.5421 -0.4915 -1.7687
 1710SOL    HW2 5451   5.522   4.880   3.893 -1.3393  0.2196  2.1528
 1711SOL     OW 5452   4.984   5.548   4.797  0.0602  0.2138 -0.0058
 1711SOL    HW1 5453   4.966   5.646   4.803  0.0976  0.2341 -0.2078
 1711SOL    HW2 5454   4.959   5.503   4.883  1.4889  0.6364  0.6583
 1712SOL     OW 5455   0.205   4.574   5.081  0.1748  0.0224 -0.0591
 1712SOL    HW1 5456   0.243   4.663   5.054 -1.9043  0.6076 -1.2255
 1712SOL    HW2 5457   0.237   4.552   5.173  2.1320  1.1279 -0.4019
 1713SOL     OW 5458   5.558   5.270   0.753  0.2986 -0.3782  0.0596
 1713SOL    HW1 5459   5.570   5.223   0.666  0.8940 -1.7171  0.8376
 1713SOL    HW2 5460   5.597   5.215   0.827  0.3017  0.9814  1.1155
 1714SOL     OW 5461   0.429   4.759   4.068 -0.1861  0.1275 -0.1689
 1714SOL    HW1 5462   0.499   4.772   4.138 -1.8878  1.8490  1.3308
 1714SOL    HW2 5463   0.462   4.793   3.980  1.5868 -1.0550 -0.0068
 1715SOL     OW 5464   1.348   4.224   4.437 -0.0357  0.0714 -0.0210
 1715SOL    HW1 5465   1.333   4.272   4.351  1.7985 -0.2594 -0.5610
 1715SOL    HW2 5466   1.335   4.126   4.424  1.1211 -0.0757 -0.1673
 1716SOL     OW 5467   1.428   4.344   3.771 -0.6989 -0.1585 -0.3671
 1716SOL    HW1 5468   1.368   4.375   3.697  1.9172 -0.0205 -2.5873
 1716SOL    HW2 5469   1.491   4.418   3.795  0.9843 -1.3898 -0.7703
 1717SOL     OW 5470   5.109   5.006   4.478 -0.3287 -0.1707  0.3644
 1717SOL    HW1 5471   5.121   4.968   4.386  0.2568  0.1417  0.3065
 1717SOL    HW2 5472   5.043   5.081   4.474 -1.4211 -1.0943  0.4639
 1718SOL     OW 5473   5.360   4.583   0.625  0.8827  0.3804 -0.3181
 1718SOL    HW1 5474   5.425   4.547   0.558 -0.8944 -0.1223 -1.8961
 1718SOL    HW2 5475   5.298   4.647   0.579  0.7237  1.4363  1.2952
 1719SOL     OW 5476   1.185   4.649   5.494 -0.0858 -0.3064  0.1616
 1719SOL    HW1 5477   1.252   4.659   5.421 -1.3378  0.4477 -0.9150
 1719SOL    HW2 5478   1.182   4.553   5.523  1.2864 -0.3900  0.0962
 1720SOL     OW 5479   1.314   5.358   0.763  0.3332  0.0242  0.0750
 1720SOL    HW1 5480   1.386   5.417   0.799 -0.5794  0.8113  0.6565
 1720SOL    HW2 5481   1.327   5.345   0.665  1.7864 -0.6078  0.3383
 1721SOL     OW 5482   5.221   5.169   4.849  0.2896 -0.1718 -0.4172
 1721SOL    HW1 5483   5.277   5.118   4.784  1.4103  2.6446 -1.8133
 1721SOL    HW2 5484   5.234   5.267   4.835 -0.2864  0.6024  3.3604
 1722SOL     OW 5485   0.791   4.839   4.878  0.0489  0.1697  0.3057
 1722SOL    HW1 5486   0.840   4.912   4.925  0.9592 -0.2535  0.0435
 1722SOL    HW2 5487   0.854   4.763   4.861 -0.3108  0.2125 -1.3684
 1723SOL     OW 5488   1.358   4.571   5.072  0.0756  0.4721 -0.1127
 1723SOL    HW1 5489   1.258   4.566   5.072  0.1068 -1.1074  1.4804
 1723SOL    HW2 5490   1.395   4.481   5.093  1.8448  1.1142 -0.3675
 1724SOL     OW 5491   2.085   3.946   4.698 -0.1518  0.0848 -0.7158
 1724SOL    HW1 5492   2.098   3.987   4.788 -0.7308 -2.7429  0.8036
 1724SOL    HW2 5493   2.172   3.909   4.665 -0.4940 -1.7793  0.3197
 1725SOL     OW 5494   0.571   5.183   4.732  0.0898 -0.7237 -0.0552
 1725SOL    HW1 5495   0.588   5.188   4.831  0.4694 -0.5095 -0.1279
 1725SOL    HW2 5496   0.579   5.088   4.702  1.2357 -0.6288 -0.0926
 1726SOL     OW 5497   0.931   0.543   5.383 -0.7395  1.0296  0.2572
 1726SOL    HW1 5498   1.027   0.556   5.406 -0.7109 -0.1399  0.9049
 1726SOL    HW2 5499   0.884   0.500   5.460 -1.3516 -0.1330 -0.7200
 1727SOL     OW 5500   5.489   0.202   5.323  0.2998  0.3936  0.5274
 1727SOL    HW1 5501   5.550   0.131   5.360 -0.6298 -0.3600  0.6440
 1727SOL    HW2 5502   5.544   0.274   5.280  1.2439 -0.9082 -0.5273
 1728SOL     OW 5503   0.548   0.060   3.688  1.0904  0.1764  0.5027
 1728SOL    HW1 5504   0.513   0.083   3.779 -1.6422  0.1750 -0.4822
 1728SOL    HW2 5505   0.580  -0.034   3.687  0.5575 -0.0206  1.3031
 1729SOL     OW 5506   0.662   0.111   4.024  0.5650 -0.2473  0.0073
 1729SOL    HW1 5507   0.743   0.166   4.003  1.1385 -1.0157  0.1416
 1729SOL    HW2 5508   0.586   0.171   4.049  1.6533  0.4615  1.8984
 1730SOL     OW 5509   3.715   4.851   4.153 -0.3459  0.3982 -0.6539
 1730SOL    HW1 5510   3.657   4.792   4.210  2.1108 -0.4130  1.1813
 1730SOL    HW2 5511   3.711   4.945   4.188 -1.4875  0.6344 -1.3542
 1731SOL     OW 5512   2.473   3.750   0.544  0.7475 -0.3596  0.5015
 1731SOL    HW1 5513   2.389   3.730   0.493  1.3060  0.9776 -1.0481
 1731SOL    HW2 5514   2.466   3.841   0.585  0.6371 -1.0968  2.1867
 1732SOL     OW 5515   0.333   4.495   3.982 -0.2909 -0.4038  0.2894
 1732SOL    HW1 5516   0.362   4.573   4.038  0.3982 -0.4987  0.0703
 1732SOL    HW2 5517   0.308   4.418   4.042 -2.8486  0.5710  0.6118
 1733SOL     OW 5518   0.560   0.354   3.669 -0.2521 -0.7416 -0.0843
 1733SOL    HW1 5519   0.471   0.374   3.712 -0.1049 -1.2315  0.4620
 1733SOL    HW2 5520   0.570   0.255   3.660  0.1748 -0.6775 -0.2882
 1734SOL     OW 5521   5.361   4.742   4.645 -0.1250  0.0835 -0.4409
 1734SOL    HW1 5522   5.277   4.784   4.680  0.6085  1.9350 -0.7582
 1734SOL    HW2 5523   5.371   4.650   4.683 -2.8489 -0.6459 -1.3028
 1735SOL     OW 5524   1.347   5.010   0.268 -0.2790 -0.8039 -0.1218
 1735SOL    HW1 5525   1.279   5.029   0.340  0.1573 -0.7767  0.2905
 1735SOL    HW2 5526   1.309   4.945   0.203 -0.8883 -0.4048 -0.1743
 1736SOL     OW 5527   0.382   4.263   5.445 -0.2614  0.3797 -0.4478
 1736SOL    HW1 5528   0.350   4.174   5.415 -1.9686  0.8260 -0.0765
 1736SOL    HW2 5529   0.330   4.335   5.398 -0.8581  1.1207  1.2568
 1737SOL     OW 5530   0.504   4.593   4.786 -0.1171 -0.2804 -0.8017
 1737SOL    HW1 5531   0.569   4.575   4.859 -0.4607  1.5251 -0.0033
 1737SOL    HW2 5532   0.420   4.541   4.802  0.1626 -0.6162 -0.4288
 1738SOL     OW 5533   1.153   4.994   4.604 -0.3933 -0.6228 -0.0247
 1738SOL    HW1 5534   1.152   4.942   4.689  0.0555 -0.8834 -0.1729
 1738SOL    HW2 5535   1.060   5.019   4.578 -0.6289 -1.5146 -0.0527
 1739SOL     OW 5536   0.892   0.875   0.247 -0.2709 -0.0048  0.2280
 1739SOL    HW1 5537   0.801   0.849   0.215 -0.4424 -0.6153  1.1561
 1739SOL    HW2 5538   0.893   0.973   0.267 -0.2099  0.3474 -1.4150
 1740SOL     OW 5539   1.005   5.109   4.193 -0.3034  0.3033 -0.1616
 1740SOL    HW1 5540   0.985   5.127   4.289  0.3195  1.9526 -0.3077
 1740SOL    HW2 5541   0.933   5.150   4.136 -0.4604 -0.3192 -0.4182
 1741SOL     OW 5542   0.509   4.414   3.799  0.1590  0.0276 -0.4144
 1741SOL    HW1 5543   0.432   4.436   3.859 -0.3521 -1.1124 -0.6259
 1741SOL    HW2 5544   0.476   4.409   3.704  0.2022 -1.7112 -0.3654
 1742SOL     OW 5545   3.048   4.900   1.076  0.5524 -0.1444  0.2159
 1742SOL    HW1 5546   3.063   4.997   1.054  0.5437 -0.5540 -1.7186
 1742SOL    HW2 5547   3.134   4.860   1.107  0.8819  0.1614 -0.2889
 1743SOL     OW 5548   0.359   0.127   0.724  0.0768 -0.2546  0.4286
 1743SOL    HW1 5549   0.331   0.128   0.820  0.7965  3.9430  0.7740
 1743SOL    HW2 5550   0.281   0.102   0.667 -0.9028 -0.8952  1.9892
 1744SOL     OW 5551   0.596   3.790   5.548  0.4017  0.0743 -0.0197
 1744SOL    HW1 5552   0.522   3.779   5.613  1.3550  1.5458  1.4032
 1744SOL    HW2 5553   0.566   3.848   5.472  0.2867  1.3343  0.9550
 1745SOL     OW 5554   0.647   0.091   4.399  0.4552  0.5801  0.0532
 1745SOL    HW1 5555   0.735   0.092   4.353  1.1055  1.4640  1.2727
 1745SOL    HW2 5556   0.620   0.184   4.424 -0.7282  0.3066 -0.1126
 1746SOL     OW 5557   4.993   5.094   4.052 -0.0147  0.0418  0.4325
 1746SOL    HW1 5558   4.961   5.184   4.082 -1.0432  0.1849 -1.0207
 1746SOL    HW2 5559   5.073   5.068   4.106  1.4736  2.6596 -0.3299
 1747SOL     OW 5560   1.446   4.996   4.618 -0.0096 -0.3103  0.1735
 1747SOL    HW1 5561   1.497   4.921   4.661 -0.4060  0.1178  1.4181
 1747SOL    HW2 5562   1.355   4.963   4.591  0.7232 -0.9630 -1.6802
 1748SOL     OW 5563   2.542   0.253   4.721  0.1937  0.5505  0.0315
 1748SOL    HW1 5564   2.447   0.255   4.751  0.5221  0.3972  1.1069
 1748SOL    HW2 5565   2.547   0.280   4.625 -1.0757 -0.6858 -0.4204
 1749SOL     OW 5566   0.652   3.704   4.747  0.4393 -0.2486  0.3255
 1749SOL    HW1 5567   0.598   3.671   4.824 -0.1545 -0.6577 -0.2588
 1749SOL    HW2 5568   0.591   3.733   4.673  1.0121 -1.0677 -0.4896
 1750SOL     OW 5569   1.081   3.462   4.659 -0.2965 -0.4642  0.3065
 1750SOL    HW1 5570   1.060   3.409   4.741  1.3670  0.0524  1.1168
 1750SOL    HW2 5571   1.023   3.431   4.583 -1.2053 -1.5958  1.4182
 1751SOL     OW 5572   1.484   4.459   5.357 -0.1135  0.0740 -0.1755
 1751SOL    HW1 5573   1.459   4.420   5.268 -1.2328 -0.6578  0.4517
 1751SOL    HW2 5574   1.469   4.558   5.355 -3.1300 -0.3098  0.1630
 1752SOL     OW 5575   2.867   4.859   4.193 -0.3990 -0.0457 -0.4525
 1752SOL    HW1 5576   2.920   4.774   4.186  1.1916  0.8931 -0.2746
 1752SOL    HW2 5577   2.794   4.847   4.260 -1.3473 -1.8211 -1.7050
 1753SOL     OW 5578   1.095   3.659   3.416  0.0762 -0.2069 -0.9927
 1753SOL    HW1 5579   1.025   3.719   3.455  1.2793  0.2020  0.6349
 1753SOL    HW2 5580   1.167   3.715   3.375 -0.1793 -0.6166 -2.0353
 1754SOL     OW 5581   0.784   5.164   4.069  0.4800 -0.6020  0.0738
 1754SOL    HW1 5582   0.728   5.169   4.152 -0.6947 -0.8472 -0.6874
 1754SOL    HW2 5583   0.806   5.257   4.039  0.1224 -0.4944  0.1382
 1755SOL     OW 5584   0.226   0.615   0.851 -0.1567 -0.0847  0.0222
 1755SOL    HW1 5585   0.267   0.557   0.921  1.2921  0.9075  0.0441
 1755SOL    HW2 5586   0.267   0.594   0.762  0.4863  0.9340  0.0505
 1756SOL     OW 5587   1.825   4.620   3.846 -0.3517  0.1570  0.2902
 1756SOL    HW1 5588   1.836   4.541   3.907 -1.4110  0.7475  1.3002
 1756SOL    HW2 5589   1.848   4.704   3.896 -2.9984  0.8314  0.5466
 1757SOL     OW 5590   1.330   2.809   0.064  0.1594 -0.2435  0.7103
 1757SOL    HW1 5591   1.262   2.847   0.001  0.9385 -0.4227 -0.2696
 1757SOL    HW2 5592   1.284   2.760   0.138 -0.8043  0.8296  0.8462
 1758SOL     OW 5593   0.373   5.053   4.254  0.2771  0.4371 -0.2872
 1758SOL    HW1 5594   0.299   5.010   4.203  0.5556 -0.9879  0.4799
 1758SOL    HW2 5595   0.336   5.093   4.339  0.1227  1.2440 -0.7165
 1759SOL     OW 5596   5.006   3.418  -0.008 -0.0417  0.3879  0.0261
 1759SOL    HW1 5597   4.991   3.367   0.077  2.6365  0.4916  0.6274
 1759SOL    HW2 5598   4.918   3.429  -0.055 -1.4925 -0.3415  2.3624
 1760SOL     OW 5599   0.093   4.571   3.748 -0.1506  0.2817  0.1051
 1760SOL    HW1 5600   0.018   4.564   3.813  0.2294 -1.2587  0.4348
 1760SOL    HW2 5601   0.176   4.531   3.789  0.5740  0.9947 -0.6369
 1761SOL     OW 5602   5.565   0.295   4.072  0.3068 -0.1495 -0.7154
 1761SOL    HW1 5603   5.624   0.270   3.996 -1.1809  0.0261 -1.9659
 1761SOL    HW2 5604   5.480   0.242   4.068  0.1633 -0.0951  0.7968
 1762SOL     OW 5605   1.460   4.395   0.028  0.5930  0.2838  0.0356
 1762SOL    HW1 5606   1.456   4.434  -0.064  0.6876 -0.7674 -0.4256
 1762SOL    HW2 5607   1.377   4.341   0.044  0.2707  0.9988  0.8172
 1763SOL     OW 5608   5.410   5.098   0.544  0.1896  0.0463  0.3601
 1763SOL    HW1 5609   5.352   5.031   0.499 -1.0791  0.5830  1.1548
 1763SOL    HW2 5610   5.357   5.148   0.613  1.9215 -0.4479  2.1539
 1764SOL     OW 5611   0.775   3.319   3.593 -0.0705 -0.1723  0.5345
 1764SOL    HW1 5612   0.776   3.400   3.652 -0.7906 -1.3405  2.2489
 1764SOL    HW2 5613   0.857   3.318   3.537  0.5574  1.1219  1.3795
 1765SOL     OW 5614   1.730   3.903   3.222  0.0665  0.3981 -0.5307
 1765SOL    HW1 5615   1.811   3.858   3.262  0.0254  0.7712 -0.0203
 1765SOL    HW2 5616   1.693   3.968   3.287 -1.8631 -1.2041  0.0783
 1766SOL     OW 5617   0.999   5.316   5.256 -0.4608  0.1627 -0.6649
 1766SOL    HW1 5618   0.910   5.322   5.211 -1.7827 -0.6126  1.6167
 1766SOL    HW2 5619   1.060   5.388   5.222 -1.7539  0.3952 -2.6519
 1767SOL     OW 5620   0.424   5.338   3.502 -0.2073 -0.7860  0.3384
 1767SOL    HW1 5621   0.495   5.406   3.487  0.4582 -1.1042  1.8454
 1767SOL    HW2 5622   0.465   5.248   3.512 -1.0056 -1.2944 -0.7139
 1768SOL     OW 5623   4.394   2.892   0.117  0.2175  0.0714  0.5345
 1768SOL    HW1 5624   4.377   2.899   0.216  2.4322 -0.5270  1.0254
 1768SOL    HW2 5625   4.335   2.956   0.068 -0.3967  0.9292  2.3099
 1769SOL     OW 5626   1.228   4.725   4.034 -0.3026  0.4050 -0.5059
 1769SOL    HW1 5627   1.264   4.717   3.941  0.0562 -0.5783 -0.2973
 1769SOL    HW2 5628   1.152   4.790   4.036 -0.9371 -0.2757 -1.6735
 1770SOL     OW 5629   0.494   0.124   1.760 -0.3008 -0.3278  0.1774
 1770SOL    HW1 5630   0.428   0.049   1.754  1.3461 -1.8062 -0.6004
 1770SOL    HW2 5631   0.549   0.113   1.843 -0.5549  0.4663  0.4514
 1771SOL     OW 5632   1.392   3.707   4.636  0.3674 -0.0841  0.2635
 1771SOL    HW1 5633   1.416   3.610   4.632  0.8796  0.0021  1.0707
 1771SOL    HW2 5634   1.300   3.720   4.599 -0.7987 -1.2637  2.5335
 1772SOL     OW 5635   4.930   1.231   5.300 -0.3428  0.0259 -0.4137
 1772SOL    HW1 5636   4.882   1.172   5.365  1.1863  0.2939  1.0322
 1772SOL    HW2 5637   5.028   1.212   5.304 -0.1426  0.4958 -2.2226
 1773SOL     OW 5638   5.549   0.482   5.194 -0.1081 -0.1160  0.1839
 1773SOL    HW1 5639   5.565   0.574   5.159  0.2775 -0.1168  0.3510
 1773SOL    HW2 5640   5.450   0.466   5.202 -0.2403 -0.4337 -1.7297
 1774SOL     OW 5641   0.457   3.773   3.714  0.0975 -0.1042 -0.7260
 1774SOL    HW1 5642   0.548   3.806   3.740 -0.0245  0.3014 -0.8055
 1774SOL    HW2 5643   0.388   3.838   3.745 -0.2310 -0.7913  0.0140
 1775SOL     OW 5644   0.940   3.316   4.859  0.2426  0.3483  0.3636
 1775SOL    HW1 5645   0.921   3.356   4.949  1.3261 -0.3177  0.9202
 1775SOL    HW2 5646   1.019   3.254   4.867  0.1686  0.0582 -0.9912
 1776SOL     OW 5647   5.226   2.665   4.854  0.2130 -0.2199  0.1868
 1776SOL    HW1 5648   5.190   2.588   4.802  0.0633  0.6683 -1.0724
 1776SOL    HW2 5649   5.177   2.673   4.940 -3.1793  1.3219 -1.6971
 1777SOL     OW 5650   0.533   3.576   4.960 -0.2082  0.4670 -0.4192
 1777SOL    HW1 5651   0.528   3.635   5.040 -0.4609 -1.7446  1.2791
 1777SOL    HW2 5652   0.441   3.557   4.926 -0.2394 -0.2488  0.0528
 1778SOL     OW 5653   0.832   4.501   5.352  0.2524 -0.2185  0.6307
 1778SOL    HW1 5654   0.873   4.448   5.278 -2.1750 -0.9103 -0.3080
 1778SOL    HW2 5655   0.829   4.447   5.436 -0.1948 -0.7603  0.2679
 1779SOL     OW 5656   0.804   5.591   5.266 -0.4680 -0.0999  0.9237
 1779SOL    HW1 5657   0.896   5.611   5.301 -0.4310 -0.2847  0.9360
 1779SOL    HW2 5658   0.807   5.505   5.214 -0.3053  0.6710 -0.3935
 1780SOL     OW 5659   0.241   5.040   5.050 -0.0604  0.2490 -0.4085
 1780SOL    HW1 5660   0.262   5.133   5.022 -2.9982  1.3343  0.6691
 1780SOL    HW2 5661   0.156   5.010   5.006  0.6181 -1.7946 -0.4270
 1781SOL     OW 5662   0.653   4.057   4.723 -0.0081  0.6009 -0.8849
 1781SOL    HW1 5663   0.746   4.076   4.755  0.1795  1.2548 -1.7565
 1781SOL    HW2 5664   0.594   4.037   4.801  1.0754 -0.8078 -0.3880
 1782SOL     OW 5665   0.569   3.139   4.628  0.1851 -0.0210  0.1000
 1782SOL    HW1 5666   0.510   3.180   4.698  1.6425  0.0997  1.3003
 1782SOL    HW2 5667   0.552   3.184   4.540 -2.3180 -0.7824  0.1070
 1783SOL     OW 5668   1.269   4.493   3.158  0.0111  0.1132  0.0966
 1783SOL    HW1 5669   1.192   4.444   3.201 -0.1732  0.6913  0.4417
 1783SOL    HW2 5670   1.246   4.590   3.150  0.3011  0.1210 -0.7480
 1784SOL     OW 5671   0.473   3.618   3.940 -0.4839 -0.0109 -0.4436
 1784SOL    HW1 5672   0.463   3.648   3.845 -0.1862 -0.4807 -0.6332
 1784SOL    HW2 5673   0.567   3.585   3.954 -0.6068 -0.2029 -0.0665
 1785SOL     OW 5674   0.475   3.461   5.286  0.2996 -0.5978 -0.3419
 1785SOL    HW1 5675   0.515   3.549   5.261  0.1960  0.0595  1.6538
 1785SOL    HW2 5676   0.443   3.415   5.203  0.2517  1.2635 -1.4217
 1786SOL     OW 5677   0.263   3.292   4.565  0.3474  0.2234  0.5395
 1786SOL    HW1 5678   0.334   3.358   4.589 -1.1533  2.1745 -0.0580
 1786SOL    HW2 5679   0.203   3.278   4.644 -0.7189  1.4968  0.0038
 1787SOL     OW 5680   0.631   5.330   0.305 -0.2263  0.1023 -0.1968
 1787SOL    HW1 5681   0.575   5.252   0.276  0.9393 -0.4893 -0.9486
 1787SOL    HW2 5682   0.727   5.311   0.285  0.0587  1.8832 -0.6670
 1788SOL     OW 5683   0.458   3.769   4.533 -0.1486  0.2068  0.8411
 1788SOL    HW1 5684   0.532   3.793   4.470 -0.6788 -0.0168  0.1279
 1788SOL    HW2 5685   0.379   3.736   4.482 -0.5399 -0.1169  1.6313
 1789SOL     OW 5686   1.099   4.823   5.310 -0.3815 -0.4337  0.0285
 1789SOL    HW1 5687   1.109   4.758   5.386  1.3733  0.0470  0.2570
 1789SOL    HW2 5688   1.161   4.900   5.324 -3.2985  2.0573  0.4684
 1790SOL     OW 5689   0.237   3.043   3.401 -0.0886 -0.7216 -0.5477
 1790SOL    HW1 5690   0.321   3.002   3.366 -0.9758 -2.2376 -0.9636
 1790SOL    HW2 5691   0.239   3.142   3.384  1.1529 -0.8788 -1.4551
 1791SOL     OW 5692   5.452   3.344   4.506  0.3031  0.3319 -0.2960
 1791SOL    HW1 5693   5.406   3.368   4.591  0.4131 -0.9605  0.1453
 1791SOL    HW2 5694   5.407   3.390   4.430 -0.4031  0.7443  0.3574
 1792SOL     OW 5695   1.101   3.767   4.571 -0.2559 -0.9403 -0.2714
 1792SOL    HW1 5696   1.021   3.721   4.533 -1.2285 -1.6280  2.3568
 1792SOL    HW2 5697   1.071   3.830   4.643  1.4940 -0.4909  0.0914
 1793SOL     OW 5698   2.670   3.963   4.423 -0.2459 -0.4542  0.0088
 1793SOL    HW1 5699   2.712   4.050   4.399 -0.4713  0.3331  2.2793
 1793SOL    HW2 5700   2.720   3.888   4.378  3.1893  0.4741  1.9393
 1794SOL     OW 5701   0.768   4.109   5.153  0.3218 -0.1333 -0.1825
 1794SOL    HW1 5702   0.780   4.199   5.111  1.1111 -0.1896 -0.0929
 1794SOL    HW2 5703   0.713   4.117   5.236  0.5946  0.2941 -0.0473
 1795SOL     OW 5704   1.638   5.152   5.553  1.0609 -1.0778 -0.1176
 1795SOL    HW1 5705   1.736   5.147   5.534  1.2815 -0.8169  0.8923
 1795SOL    HW2 5706   1.623   5.189   5.645 -0.0296  1.4719 -1.1982
 1796SOL     OW 5707   2.806   3.296   3.203  0.3760  0.2016 -0.1310
 1796SOL    HW1 5708   2.811   3.393   3.178  0.1007  0.1657 -0.3203
 1796SOL    HW2 5709   2.769   3.243   3.127 -2.6003  0.3912  1.0569
 1797SOL     OW 5710   2.035   4.532   4.190 -0.1374  0.4942 -0.2930
 1797SOL    HW1 5711   2.089   4.614   4.169  1.1495 -0.4149 -0.6739
 1797SOL    HW2 5712   1.973   4.513   4.114  0.8087  0.1501 -1.0029
 1798SOL     OW 5713   0.490   0.369   3.276 -0.1132 -0.1396 -0.0615
 1798SOL    HW1 5714   0.543   0.326   3.350 -1.6869 -1.9017  0.1346
 1798SOL    HW2 5715   0.542   0.445   3.238  0.9390  0.5757  2.5699
 1799SOL     OW 5716   1.397   4.715   5.303 -0.3940 -0.6860  0.0166
 1799SOL    HW1 5717   1.425   4.811   5.308  0.7306 -1.0079  0.1418
 1799SOL    HW2 5718   1.395   4.686   5.208 -1.1386 -0.4352 -0.0525
 1800SOL     OW 5719   0.418   3.777   1.938  0.2846 -0.2498  0.1575
 1800SOL    HW1 5720   0.428   3.768   2.037  1.0198  0.5141  0.1562
 1800SOL    HW2 5721   0.321   3.778   1.914  0.1080 -0.5811  0.8516
 1801SOL     OW 5722   1.093   3.942   4.048 -0.0765 -0.2013  0.5957
 1801SOL    HW1 5723   1.130   4.024   4.006  0.1713 -0.5621  0.0947
 1801SOL    HW2 5724   1.022   3.904   3.988  0.8078 -1.1444  0.1147
 1802SOL     OW 5725   1.051   3.777   5.356  0.1744  0.1794  0.6962
 1802SOL    HW1 5726   1.031   3.726   5.272 -0.0566  0.2314  0.7194
 1802SOL    HW2 5727   0.988   3.854   5.365  0.8172  0.7471  0.4264
 1803SOL     OW 5728   0.884   4.883   5.502  0.1835  0.5161  0.5599
 1803SOL    HW1 5729   0.949   4.907   5.430 -0.4782 -0.2933 -0.3337
 1803SOL    HW2 5730   0.933   4.863   5.587  1.1830 -0.8091 -0.2945
 1804SOL     OW 5731   1.525   5.464   5.276 -0.0850 -0.0797 -0.3164
 1804SOL    HW1 5732   1.584   5.407   5.333 -0.9403 -1.3269 -0.6187
 1804SOL    HW2 5733   1.577   5.498   5.197  0.6606  0.2449  0.3109
 1805SOL     OW 5734   0.646   5.474   5.486 -0.0253  0.5965  0.4951
 1805SOL    HW1 5735   0.669   5.529   5.406 -0.7451 -1.5054 -1.2307
 1805SOL    HW2 5736   0.723   5.413   5.508  0.5739  1.8460  2.0945
 1806SOL     OW 5737   2.955   4.217   4.759 -0.3978  0.1909  0.2834
 1806SOL    HW1 5738   3.043   4.259   4.742 -0.1831 -0.6450 -0.7522
 1806SOL    HW2 5739   2.951   4.184   4.854  0.5423 -0.1154  0.2176
 1807SOL     OW 5740   1.544   3.269   4.948  0.1339 -0.3843 -0.3258
 1807SOL    HW1 5741   1.583   3.307   5.032  0.2854 -2.4896  0.6143
 1807SOL    HW2 5742   1.597   3.301   4.870  1.9063 -0.8029  0.6581
 1808SOL     OW 5743   1.840   5.358   5.163  0.0560  0.1532 -0.6897
 1808SOL    HW1 5744   1.928   5.342   5.207 -0.1580 -1.8949 -0.9174
 1808SOL    HW2 5745   1.780   5.280   5.178 -2.1235  1.8885  0.2983
 1809SOL     OW 5746   0.501   5.051   3.734 -0.0185 -0.5372  0.1874
 1809SOL    HW1 5747   0.474   5.039   3.638 -0.5914 -0.0730  0.2803
 1809SOL    HW2 5748   0.449   5.127   3.773  1.3224  0.2717  0.4378
 1810SOL     OW 5749   0.525   5.533   0.127  0.3024  0.1258 -0.0457
 1810SOL    HW1 5750   0.561   5.514   0.036 -0.4270 -0.4689 -0.2217
 1810SOL    HW2 5751   0.542   5.454   0.187 -0.5881 -0.1106 -0.1000
 1811SOL     OW 5752   0.394   3.551   0.193 -0.2959 -0.1977  0.4262
 1811SOL    HW1 5753   0.338   3.617   0.243 -1.8236 -2.4003  1.7975
 1811SOL    HW2 5754   0.353   3.532   0.105  0.1300  0.6026  0.0403
 1812SOL     OW 5755   0.495   0.840   5.337 -0.1844  0.3055 -0.0521
 1812SOL    HW1 5756   0.405   0.798   5.333  0.2952 -0.9373  1.3222
 1812SOL    HW2 5757   0.563   0.771   5.360  1.1706  1.1827 -1.2360
 1813SOL     OW 5758   0.746   5.495   4.166 -0.6599 -0.2737 -0.0669
 1813SOL    HW1 5759   0.711   5.573   4.114 -0.6041  0.0634  0.3980
 1813SOL    HW2 5760   0.670   5.438   4.197 -0.9112  0.9416  1.7158
 1814SOL     OW 5761   1.785   3.341   3.999  0.6500 -0.3750  0.1739
 1814SOL    HW1 5762   1.795   3.244   4.018 -1.2307 -1.0218 -1.8374
 1814SOL    HW2 5763   1.840   3.366   3.920  1.1515  0.2439  0.7005
 1815SOL     OW 5764   1.990   4.863   3.626  0.0195  0.1354 -0.3770
 1815SOL    HW1 5765   2.033   4.907   3.705  0.2857 -0.0682 -0.4080
 1815SOL    HW2 5766   2.040   4.886   3.543  1.1600 -1.5377 -0.1937
 1816SOL     OW 5767   0.944   4.715   4.569  0.2780 -0.4139  0.2686
 1816SOL    HW1 5768   1.017   4.681   4.509 -0.0987 -0.5022 -0.1493
 1816SOL    HW2 5769   0.954   4.674   4.659  0.6063 -0.6125  0.1459
 1817SOL     OW 5770   1.885   4.877   4.457 -0.0623  0.2212  0.0566
 1817SOL    HW1 5771   1.865   4.960   4.509 -1.1178 -0.0945  0.1634
 1817SOL    HW2 5772   1.883   4.797   4.517 -1.5153 -0.1724 -0.4790
 1818SOL     OW 5773   0.758   5.554   4.892 -0.0436  0.3321 -0.4279
 1818SOL    HW1 5774   0.829   5.483   4.892 -1.5479 -1.2458 -0.4425
 1818SOL    HW2 5775   0.747   5.590   4.800 -0.0920 -0.3194 -0.6854
 1819SOL     OW 5776   0.794   3.472   5.046 -0.5396  0.2324  0.0433
 1819SOL    HW1 5777   0.730   3.532   4.996  0.6872 -0.5519 -2.6292
 1819SOL    HW2 5778   0.744   3.393   5.082 -1.2455 -0.0318 -1.4224
 1820SOL     OW 5779   2.946   3.603   4.484 -0.1288 -0.4531  0.2869
 1820SOL    HW1 5780   2.859   3.591   4.435 -0.9831  1.1657  1.3252
 1820SOL    HW2 5781   2.937   3.676   4.551  3.3694  3.3196 -2.8219
 1821SOL     OW 5782   0.964   3.682   0.542 -0.5386 -0.0916 -0.2104
 1821SOL    HW1 5783   1.006   3.631   0.617 -1.2434 -1.3804 -0.6510
 1821SOL    HW2 5784   1.023   3.679   0.462 -1.6433 -2.4057 -1.0140
 1822SOL     OW 5785   0.493   3.942   5.358 -0.1614 -0.2800 -0.3061
 1822SOL    HW1 5786   0.553   4.017   5.384 -0.8965  0.2153 -0.0018
 1822SOL    HW2 5787   0.408   3.978   5.320 -0.5215 -0.9531 -0.1691
 1823SOL     OW 5788   1.030   4.326   5.196 -0.0588  0.6405  0.5247
 1823SOL    HW1 5789   1.100   4.332   5.125 -0.8949  0.3753 -0.3456
 1823SOL    HW2 5790   1.050   4.249   5.256  1.0085  1.2550  0.9808
 1824SOL     OW 5791   5.172   4.927   4.228  0.0877  0.2452  0.2712
 1824SOL    HW1 5792   5.187   4.838   4.187  0.6274  0.2445  0.4682
 1824SOL    HW2 5793   5.235   4.994   4.188 -2.8695  1.5002 -2.8526
 1825SOL     OW 5794   0.844   4.067   4.098 -0.5498 -0.2617  0.4329
 1825SOL    HW1 5795   0.927   4.042   4.147 -0.0740 -1.1806 -0.7980
 1825SOL    HW2 5796   0.826   4.165   4.110  1.0099  0.0593  0.2726
 1826SOL     OW 5797   1.305   4.361   4.691 -0.5014 -0.2883  0.3473
 1826SOL    HW1 5798   1.207   4.378   4.690 -0.2265  1.7138 -1.3014
 1826SOL    HW2 5799   1.334   4.322   4.604  0.3974  1.2113 -0.0827
 1827SOL     OW 5800   5.268   5.536   5.081 -0.7063  0.3850  0.0617
 1827SOL    HW1 5801   5.213   5.473   5.136 -1.5641 -0.1098 -1.3205
 1827SOL    HW2 5802   5.247   5.630   5.109  0.9525  0.1298  2.4869
 1828SOL     OW 5803   0.306   4.018   4.267 -0.3256  0.3169  0.4421
 1828SOL    HW1 5804   0.323   3.925   4.235 -1.2245 -0.1955  1.3747
 1828SOL    HW2 5805   0.392   4.063   4.288  0.0725 -0.6640  0.9496
 1829SOL     OW 5806   1.729   3.372   0.129 -0.4640 -0.2264  0.4890
 1829SOL    HW1 5807   1.670   3.292   0.128 -2.2137  1.0068  0.9665
 1829SOL    HW2 5808   1.781   3.374   0.215  1.5058 -2.1032 -0.5556
 1830SOL     OW 5809   5.413   5.289   4.009 -0.4384 -0.1996 -0.4323
 1830SOL    HW1 5810   5.338   5.330   3.958 -0.3680  1.1328  0.4736
 1830SOL    HW2 5811   5.390   5.195   4.034 -1.7047  0.1175 -0.3646
 1831SOL     OW 5812   1.004   2.994   3.456  0.1855  0.2244  0.9716
 1831SOL    HW1 5813   1.086   2.975   3.510  0.8925 -0.3558 -0.2648
 1831SOL    HW2 5814   1.023   3.068   3.392  0.1686 -0.7619 -0.2025
 1832SOL     OW 5815   1.565   4.960   5.000  0.4541  0.0368  0.6329
 1832SOL    HW1 5816   1.479   4.929   4.960  0.9469 -0.1021 -0.3603
 1832SOL    HW2 5817   1.604   4.886   5.056  0.0516  0.0118  0.8834
 1833SOL     OW 5818   1.307   4.835   0.046 -0.2949 -0.1453  0.3989
 1833SOL    HW1 5819   1.405   4.839   0.062 -0.6501  1.0844  2.6532
 1833SOL    HW2 5820   1.287   4.763  -0.021  2.1761  0.2105 -0.8345
 1834SOL     OW 5821   2.629   4.691   5.060  0.4702 -0.1913 -0.3554
 1834SOL    HW1 5822   2.601   4.740   4.977  0.8445  0.4325 -0.1231
 1834SOL    HW2 5823   2.632   4.755   5.137  3.3789  0.0145 -0.5345
 1835SOL     OW 5824   5.482   4.433   5.576 -0.0060  0.1585 -0.0147
 1835SOL    HW1 5825   5.428   4.368   5.629  0.0462 -0.8527 -1.1572
 1835SOL    HW2 5826   5.548   4.383   5.520  0.8133  1.2695 -0.0803
 1836SOL     OW 5827   1.349   1.848   3.873 -0.4398 -0.1016  0.0527
 1836SOL    HW1 5828   1.304   1.892   3.950  0.6721 -0.0577  0.7043
 1836SOL    HW2 5829   1.381   1.758   3.900 -0.6821 -0.3825 -0.5832
 1837SOL     OW 5830   1.196   4.755   3.180  0.1368 -0.1666  0.4299
 1837SOL    HW1 5831   1.115   4.759   3.122  0.2541  2.9417  0.3388
 1837SOL    HW2 5832   1.173   4.786   3.272  0.8174 -1.2784  1.0037
 1838SOL     OW 5833   1.033   3.541   3.969 -0.3249  0.1395  0.1014
 1838SOL    HW1 5834   1.074   3.527   3.879  1.6075 -1.2276  1.1238
 1838SOL    HW2 5835   0.979   3.461   3.994 -0.2474  0.1958  0.4591
 1839SOL     OW 5836   0.512   4.253   4.602  0.3236  0.1852 -0.1487
 1839SOL    HW1 5837   0.419   4.263   4.637 -0.3499 -0.9431 -1.5269
 1839SOL    HW2 5838   0.561   4.185   4.657  0.7339  1.5588  1.2623
 1840SOL     OW 5839   0.475   0.523   0.065  0.2961  0.0388 -0.0631
 1840SOL    HW1 5840   0.541   0.496   0.134 -1.1277 -0.4292  1.1867
 1840SOL    HW2 5841   0.497   0.478  -0.022  0.7343 -1.3673  0.7375
 1841SOL     OW 5842   5.390   3.703   5.177 -0.2265 -0.1058 -0.1141
 1841SOL    HW1 5843   5.447   3.642   5.233  0.4383 -1.9906 -2.6698
 1841SOL    HW2 5844   5.295   3.697   5.207  0.2232 -0.3075  1.3759
 1842SOL     OW 5845   1.774   4.190   0.003 -0.1469  0.3172 -0.7192
 1842SOL    HW1 5846   1.827   4.272   0.024  0.6445  0.3434 -2.5961
 1842SOL    HW2 5847   1.700   4.180   0.069 -0.1561  2.4474 -0.3402
 1843SOL     OW 5848   5.337   5.524   2.749 -0.9271 -0.7715 -0.1010
 1843SOL    HW1 5849   5.409   5.564   2.692  0.0352  0.2607  1.7496
 1843SOL    HW2 5850   5.304   5.592   2.814 -2.1097 -1.8682  0.4983
 1844SOL     OW 5851   0.850   1.399   4.631  0.6582 -0.3228  0.3476
 1844SOL    HW1 5852   0.801   1.385   4.716 -2.6832  2.1524 -0.9455
 1844SOL    HW2 5853   0.938   1.443   4.651  0.6501 -1.1600  2.5376
 1845SOL     OW 5854   1.002   0.154   3.496 -0.1593 -0.2627  0.2582
 1845SOL    HW1 5855   1.102   0.151   3.496 -0.1650 -1.3258 -0.2985
 1845SOL    HW2 5856   0.968   0.145   3.589  0.2595  1.7475  0.6499
 1846SOL     OW 5857   1.366   4.801   4.935 -0.6139 -0.3496  0.4492
 1846SOL    HW1 5858   1.382   4.728   5.001  0.4389 -0.2996  0.2718
 1846SOL    HW2 5859   1.406   4.776   4.847 -0.7618  0.1786  0.2239
 1847SOL     OW 5860   0.310   5.069  -0.004  0.6620  0.2110 -0.0141
 1847SOL    HW1 5861   0.299   5.152  -0.059 -0.4304  0.3528  0.3907
 1847SOL    HW2 5862   0.249   5.073   0.075 -0.0303 -1.3580 -0.4362
 1848SOL     OW 5863   0.665   3.480   4.403 -0.0364 -0.4800 -0.0537
 1848SOL    HW1 5864   0.746   3.499   4.458  0.1625 -0.1822 -0.4460
 1848SOL    HW2 5865   0.664   3.540   4.323 -0.1270 -1.1647 -0.5758
 1849SOL     OW 5866   2.716   3.665   4.113  0.3632 -0.2883  0.0264
 1849SOL    HW1 5867   2.763   3.642   4.028 -0.0961  1.0092 -0.6061
 1849SOL    HW2 5868   2.743   3.757   4.143 -0.1278 -0.3908  0.8226
 1850SOL     OW 5869   4.295   4.974   4.818 -0.2840  0.1023  0.5309
 1850SOL    HW1 5870   4.334   5.063   4.842  0.2859 -0.1814  0.6856
 1850SOL    HW2 5871   4.221   4.951   4.882  0.5950 -0.2232  1.4635
 1851SOL     OW 5872   1.951   4.371   4.829  0.0805  0.1556 -1.0060
 1851SOL    HW1 5873   2.022   4.329   4.772  0.0495 -1.7843  0.3029
 1851SOL    HW2 5874   1.981   4.373   4.924 -0.5990  1.7279 -0.7872
 1852SOL     OW 5875   0.648   0.881   5.061  0.3751  0.0479 -0.3430
 1852SOL    HW1 5876   0.591   0.830   4.997  0.2316  0.7837 -0.8204
 1852SOL    HW2 5877   0.634   0.846   5.154  1.7831 -2.1045 -0.8727
 1853SOL     OW 5878   1.093   3.934   4.843 -0.3974  0.5148  0.1524
 1853SOL    HW1 5879   1.192   3.918   4.846 -0.3562  0.3497 -1.3728
 1853SOL    HW2 5880   1.045   3.848   4.861 -0.1995 -0.2016 -2.2818
 1854SOL     OW 5881   1.449   4.865   0.755 -0.5926  0.0330  0.0945
 1854SOL    HW1 5882   1.382   4.814   0.702  0.1412 -0.9245  0.0571
 1854SOL    HW2 5883   1.407   4.948   0.792 -1.2678  0.4712 -1.5597
 1855SOL     OW 5884   1.246   4.659   4.668  0.0574 -0.5140  0.3713
 1855SOL    HW1 5885   1.231   4.707   4.581 -1.0071  0.4663  1.0570
 1855SOL    HW2 5886   1.302   4.578   4.652  0.8100  0.2340 -1.0475
 1856SOL     OW 5887   5.589   0.140   0.078 -0.0117 -0.3939 -1.3022
 1856SOL    HW1 5888   5.608   0.113  -0.016 -0.6597 -0.6894 -1.3510
 1856SOL    HW2 5889   5.574   0.059   0.134  1.6853 -0.2870 -0.6403
 1857SOL     OW 5890   1.282   3.728   3.873 -0.3335 -0.1219  0.1630
 1857SOL    HW1 5891   1.228   3.782   3.808  0.9277 -0.2060 -1.0082
 1857SOL    HW2 5892   1.246   3.741   3.965 -0.6119  2.0630 -0.1959
 1858SOL     OW 5893   1.675   5.158   4.821  0.7436 -0.3758 -0.1924
 1858SOL    HW1 5894   1.690   5.247   4.864  0.8444 -0.5114  0.0472
 1858SOL    HW2 5895   1.600   5.111   4.868 -0.3070  0.2002 -1.2256
 1859SOL     OW 5896   0.792   5.359   5.107  0.0444  0.1766 -0.1795
 1859SOL    HW1 5897   0.707   5.324   5.066  0.2664  1.4840 -1.8957
 1859SOL    HW2 5898   0.855   5.387   5.034  0.0854  3.5602  0.9580
 1860SOL     OW 5899   0.099   5.281   4.957  0.2335  0.0709 -0.0445
 1860SOL    HW1 5900   0.065   5.367   4.920 -1.0571 -0.4149 -0.0553
 1860SOL    HW2 5901   0.040   5.252   5.033  1.1910 -0.3511  0.5563
 1861SOL     OW 5902   5.551   0.895   5.223  0.1222  0.6260 -0.2443
 1861SOL    HW1 5903   5.481   0.848   5.170  1.9306 -1.4080 -0.9849
 1861SOL    HW2 5904   5.530   0.888   5.320 -1.3102  1.1677 -0.4922
 1862SOL     OW 5905   1.475   5.254   0.208  0.1303  0.3003  0.0236
 1862SOL    HW1 5906   1.431   5.166   0.224  0.0935  0.6286  1.9157
 1862SOL    HW2 5907   1.419   5.308   0.145 -0.6746 -0.3862  0.1411
 1863SOL     OW 5908   2.777   2.593   5.563 -0.3772  0.3242  0.5757
 1863SOL    HW1 5909   2.771   2.656   5.485 -0.6722 -0.1831  0.1831
 1863SOL    HW2 5910   2.861   2.611   5.614 -0.3990  0.9580  0.3986
 1864SOL     OW 5911   1.863   4.034   4.132  0.1774  0.1583  0.0957
 1864SOL    HW1 5912   1.764   4.022   4.129  0.2809 -0.5760 -0.8967
 1864SOL    HW2 5913   1.886   4.102   4.202 -1.1208  1.4370 -0.6746
 1865SOL     OW 5914   0.710   0.455   4.886  0.3775  0.1045  0.6061
 1865SOL    HW1 5915   0.727   0.363   4.922 -1.3510 -0.6595 -0.4155
 1865SOL    HW2 5916   0.616   0.482   4.908  0.7070  1.4350  0.4538
 1866SOL     OW 5917   1.590   4.507   4.624 -0.1144 -0.9525  0.1148
 1866SOL    HW1 5918   1.647   4.430   4.651 -1.3686 -1.5971  0.9944
 1866SOL    HW2 5919   1.589   4.514   4.524  0.2896 -1.8572  0.0393
 1867SOL     OW 5920   0.868   5.403   3.921 -0.7818  0.1924 -0.0747
 1867SOL    HW1 5921   0.961   5.420   3.954 -0.2821 -0.0886 -1.2863
 1867SOL    HW2 5922   0.805   5.467   3.965 -0.0072  0.4565  0.6837
 1868SOL     OW 5923   1.274   5.121   4.211 -0.1236 -0.3229  0.4645
 1868SOL    HW1 5924   1.179   5.122   4.181 -0.2197 -0.9069  0.7421
 1868SOL    HW2 5925   1.296   5.032   4.252  0.6135 -0.2867  0.1662
 1869SOL     OW 5926   0.527   0.799   4.392 -0.3585  0.3193  0.0713
 1869SOL    HW1 5927   0.621   0.820   4.364  0.0271 -0.5974  0.6410
 1869SOL    HW2 5928   0.485   0.740   4.323 -0.2652  0.1199  0.1856
 1870SOL     OW 5929   1.761   2.882   3.955 -0.0743 -0.1016 -0.0256
 1870SOL    HW1 5930   1.683   2.819   3.953 -0.5065  0.2468  2.1766
 1870SOL    HW2 5931   1.843   2.833   3.984 -0.3998  0.2409  1.6376
 1871SOL     OW 5932   5.315   5.267   0.332 -0.1232  0.1861 -0.0771
 1871SOL    HW1 5933   5.237   5.224   0.377 -2.8549  3.0320 -1.6517
 1871SOL    HW2 5934   5.334   5.355   0.377  1.1685  0.2490 -0.7165
 1872SOL     OW 5935   0.620   4.838   3.048 -0.3245  0.2293  0.0867
 1872SOL    HW1 5936   0.622   4.834   2.948  0.8057  0.6630  0.0855
 1872SOL    HW2 5937   0.528   4.863   3.078 -0.0338  2.8786 -0.9712
 1873SOL     OW 5938   5.504   4.578   4.202 -0.6149  0.1404  0.1323
 1873SOL    HW1 5939   5.493   4.494   4.255 -1.1045  0.2170  0.1536
 1873SOL    HW2 5940   5.583   4.629   4.236 -0.6716 -0.0220  0.5075
 1874SOL     OW 5941   2.185   4.254   4.724  0.0216 -0.2493  0.6196
 1874SOL    HW1 5942   2.186   4.234   4.626 -0.3112  0.4717  0.4645
 1874SOL    HW2 5943   2.157   4.172   4.775 -2.7373  0.1477 -0.0936
 1875SOL     OW 5944   2.003   0.661   3.890 -0.3038 -0.0642  0.6302
 1875SOL    HW1 5945   1.917   0.617   3.916 -0.8424 -0.0506 -1.0439
 1875SOL    HW2 5946   2.054   0.602   3.828  1.3657 -0.4706  2.3047
 1876SOL     OW 5947   0.121   0.340   0.613  0.1211  0.3570  0.0354
 1876SOL    HW1 5948   0.189   0.408   0.641  0.3599  0.5534 -0.9715
 1876SOL    HW2 5949   0.168   0.253   0.595 -0.2180 -0.1894  1.6033
 1877SOL     OW 5950   1.820   4.516   5.332  0.0955  0.0573 -0.2099
 1877SOL    HW1 5951   1.884   4.494   5.258 -0.7976 -0.2021 -0.9301
 1877SOL    HW2 5952   1.745   4.450   5.332  0.6778 -0.6746  1.7024
 1878SOL     OW 5953   1.537   0.059   4.195  0.2974  0.1334  0.3041
 1878SOL    HW1 5954   1.597   0.070   4.117  0.4215  0.4339  0.4419
 1878SOL    HW2 5955   1.565   0.121   4.269  0.0224  0.0422  0.4890
 1879SOL     OW 5956   0.853   4.331   5.006  0.6497 -0.1116 -0.5103
 1879SOL    HW1 5957   0.856   4.257   4.939  0.2521 -0.0859 -0.5595
 1879SOL    HW2 5958   0.926   4.317   5.074 -0.5056 -1.5315  0.5073
 1880SOL     OW 5959   0.120   4.731   4.312  0.4343  0.3200 -0.1984
 1880SOL    HW1 5960   0.174   4.737   4.395  0.1183  3.0985 -0.0742
 1880SOL    HW2 5961   0.156   4.796   4.244 -2.0291  1.5020 -0.4920
 1881SOL     OW 5962   2.805   3.348   4.844 -0.6983  0.2480  0.3419
 1881SOL    HW1 5963   2.888   3.327   4.793  0.3899  1.7632  1.3969
 1881SOL    HW2 5964   2.827   3.409   4.920 -2.7282  0.3801  0.8884
 1882SOL     OW 5965   0.834   4.457   4.048  0.2875 -0.2518  0.3293
 1882SOL    HW1 5966   0.795   4.541   4.012  1.4761  0.3521  0.3920
 1882SOL    HW2 5967   0.848   4.392   3.973  1.3394  0.4229 -0.0760
 1883SOL     OW 5968   0.551   0.919   0.414 -0.4270 -0.2108 -0.1130
 1883SOL    HW1 5969   0.537   0.850   0.485 -1.0786 -1.1209 -1.0958
 1883SOL    HW2 5970   0.539   0.877   0.324  0.6182  0.8594 -0.7825
 1884SOL     OW 5971   1.706   4.200   5.148  0.4339 -0.4088  0.3604
 1884SOL    HW1 5972   1.683   4.287   5.105  1.2673 -0.4792 -0.2477
 1884SOL    HW2 5973   1.665   4.196   5.239  1.8089  1.3631  1.1227
 1885SOL     OW 5974   1.209   4.025   3.092 -0.2184 -0.5245  0.7595
 1885SOL    HW1 5975   1.118   4.018   3.132  0.4196 -1.7973  2.0879
 1885SOL    HW2 5976   1.229   3.942   3.039 -0.4655  0.4995 -1.0373
 1886SOL     OW 5977   0.802   3.966   4.509 -0.1319  0.0044  0.0204
 1886SOL    HW1 5978   0.758   3.956   4.420 -0.6376  2.1133 -0.0089
 1886SOL    HW2 5979   0.732   3.972   4.580  0.2425 -0.6207  0.4538
 1887SOL     OW 5980   0.167   3.085   4.115  0.4099 -0.3397  0.3713
 1887SOL    HW1 5981   0.252   3.114   4.071  0.0456  0.3858  0.1247
 1887SOL    HW2 5982   0.168   3.110   4.211  0.0835  0.5601  0.1526
 1888SOL     OW 5983   1.369   4.493   4.132 -0.5053  0.5680  0.4568
 1888SOL    HW1 5984   1.309   4.424   4.173 -0.0916 -0.8782 -1.2280
 1888SOL    HW2 5985   1.319   4.579   4.121 -1.5022  0.1169  1.2693
 1889SOL     OW 5986   0.300   5.280   5.378 -0.9967  0.6187  0.5773
 1889SOL    HW1 5987   0.342   5.284   5.287 -0.6597  0.2393  0.7182
 1889SOL    HW2 5988   0.217   5.225   5.374 -0.1146 -0.7838  0.8347
 1890SOL     OW 5989   1.137   5.371   4.331 -0.4128  0.5477  0.5364
 1890SOL    HW1 5990   1.187   5.290   4.300 -0.2419  0.5057  0.9200
 1890SOL    HW2 5991   1.121   5.365   4.429 -2.4822 -0.1468  0.2113
 1891SOL     OW 5992   0.974   3.619   4.358 -0.5513  0.1157 -0.2600
 1891SOL    HW1 5993   1.060   3.635   4.309 -0.9890  0.1931 -1.0292
 1891SOL    HW2 5994   0.972   3.526   4.393 -0.2268  0.0575 -0.3939
 1892SOL     OW 5995   0.882   5.351   5.517  0.0560  0.0462 -0.4452
 1892SOL    HW1 5996   0.896   5.271   5.575 -0.3395 -0.8037 -1.4918
 1892SOL    HW2 5997   0.906   5.328   5.422 -2.0405  0.5253 -1.1428
 1893SOL     OW 5998   0.895   5.262   0.674  0.0788  0.0213 -0.2121
 1893SOL    HW1 5999   0.812   5.299   0.632  0.5122  1.1031 -0.1419
 1893SOL    HW2 6000   0.886   5.265   0.773 -0.1357 -0.6714 -0.2037
 1894SOL     OW 6001   5.118   5.291   5.173  0.2764 -0.0840  0.1001
 1894SOL    HW1 6002   5.165   5.203   5.178 -1.1222 -0.8073  1.0654
 1894SOL    HW2 6003   5.066   5.306   5.257  2.0987  2.6306  0.8856
 1895SOL     OW 6004   1.427   4.760   3.823 -0.5055  0.0074  0.2375
 1895SOL    HW1 6005   1.502   4.696   3.805  0.2201  1.3595 -1.9369
 1895SOL    HW2 6006   1.463   4.853   3.833 -1.8847  0.9232 -2.2227
 1896SOL     OW 6007   1.022   4.623   4.861 -0.1414  0.3564 -0.4068
 1896SOL    HW1 6008   1.021   4.614   4.960  1.4030  0.9800 -0.3052
 1896SOL    HW2 6009   1.117   4.629   4.829 -0.2086 -4.1650 -2.3154
 1897SOL     OW 6010   1.711   3.228   4.677  0.0385  0.6524  0.0724
 1897SOL    HW1 6011   1.694   3.146   4.622  1.2985 -0.7009  1.6020
 1897SOL    HW2 6012   1.695   3.309   4.621 -0.7151 -0.6226 -1.6577
 1898SOL     OW 6013   1.669   4.452   5.034  0.5455 -0.6234  0.5754
 1898SOL    HW1 6014   1.613   4.435   4.953  1.1189 -3.1325  0.6381
 1898SOL    HW2 6015   1.755   4.495   5.007  0.5559 -1.0660 -0.0995
 1899SOL     OW 6016   0.775   4.700   3.510  0.0928 -0.4900 -0.5307
 1899SOL    HW1 6017   0.747   4.652   3.593  0.9248 -1.3207 -0.7145
 1899SOL    HW2 6018   0.853   4.759   3.529  0.3192 -0.7220 -0.7308
 1900SOL     OW 6019   0.092   4.048   3.175 -0.0444 -0.5773  0.0910
 1900SOL    HW1 6020   0.060   4.095   3.257  0.6192  0.8365 -0.4193
 1900SOL    HW2 6021   0.140   3.964   3.200  1.1616  0.4219  1.2406
 1901SOL     OW 6022   2.338   4.835   4.452  0.7233  0.1998 -0.5082
 1901SOL    HW1 6023   2.340   4.736   4.462  0.6284  0.1988 -0.4986
 1901SOL    HW2 6024   2.406   4.876   4.512 -1.1366  0.3203  1.6564
 1902SOL     OW 6025   4.958   5.271   4.518 -0.2323 -0.6046 -0.0553
 1902SOL    HW1 6026   5.017   5.350   4.497  1.0903 -1.7927 -0.9578
 1902SOL    HW2 6027   4.962   5.252   4.616  2.4352 -1.7746 -0.2984
 1903SOL     OW 6028   1.983   0.106   5.088  0.6225  0.0700  0.0273
 1903SOL    HW1 6029   1.920   0.164   5.036  0.3840  0.7005  1.0108
 1903SOL    HW2 6030   2.007   0.026   5.032  1.9226  1.6640 -1.8527
 1904SOL     OW 6031  -0.002   4.291   0.872 -0.1064 -0.4567  0.5555
 1904SOL    HW1 6032   0.067   4.278   0.801  0.0091  0.2621  0.5328
 1904SOL    HW2 6033   0.035   4.264   0.961 -0.1853 -1.1691  0.3730
 1905SOL     OW 6034   5.010   0.696   4.863  0.1823  0.2556  0.4927
 1905SOL    HW1 6035   4.961   0.616   4.826  1.8337  0.0854 -1.5314
 1905SOL    HW2 6036   5.108   0.678   4.862  0.4835  1.6665  1.7030
 1906SOL     OW 6037   1.401   0.484   0.162 -0.3109  0.4013  0.0188
 1906SOL    HW1 6038   1.466   0.530   0.222  0.5657 -0.8471  0.0724
 1906SOL    HW2 6039   1.311   0.527   0.171  0.1105  1.0920  1.2041
 1907SOL     OW 6040   3.965   3.087   4.798  0.2604  0.0636 -0.0363
 1907SOL    HW1 6041   3.897   3.152   4.762  0.0117 -0.8447 -1.2966
 1907SOL    HW2 6042   3.997   3.118   4.887 -0.6754  1.3223 -0.1064
 1908SOL     OW 6043   0.724   4.398   4.287 -0.0318  0.6163 -0.1756
 1908SOL    HW1 6044   0.752   4.438   4.200 -0.8957 -1.0402 -1.2782
 1908SOL    HW2 6045   0.662   4.460   4.334  0.4261  1.5230 -0.7335
 1909SOL     OW 6046   2.279   5.445   5.139 -0.3571  0.1668 -0.0316
 1909SOL    HW1 6047   2.225   5.470   5.059 -0.5236  0.9221  0.3064
 1909SOL    HW2 6048   2.336   5.523   5.166 -1.7924  0.6766  1.7867
 1910SOL     OW 6049   1.610   5.472   3.746 -0.0423 -0.1452 -0.0334
 1910SOL    HW1 6050   1.659   5.499   3.829  0.3885  0.1895 -0.3905
 1910SOL    HW2 6051   1.581   5.377   3.754  1.6587 -0.7217 -0.2568
 1911SOL     OW 6052   5.564   0.027   2.574  0.5248  1.0951  0.3505
 1911SOL    HW1 6053   5.625  -0.009   2.504 -0.4312  1.6597 -0.8194
 1911SOL    HW2 6054   5.484   0.070   2.530 -0.6529  0.5040  1.8144
 1912SOL     OW 6055   0.498   3.292   4.859 -0.2031  0.3634  0.2583
 1912SOL    HW1 6056   0.560   3.262   4.932 -0.0092  1.6695  0.6689
 1912SOL    HW2 6057   0.472   3.388   4.875 -0.1267  0.6950 -1.4015
 1913SOL     OW 6058   5.490   2.821   4.412 -0.1365  0.4695 -0.3879
 1913SOL    HW1 6059   5.467   2.918   4.425  1.0717  0.7031  0.2069
 1913SOL    HW2 6060   5.514   2.781   4.501  0.4240 -0.0861 -0.7824
 1914SOL     OW 6061   0.902   4.533   0.069  0.4072  0.1906 -0.1474
 1914SOL    HW1 6062   0.923   4.617   0.120  0.0963  0.8739 -1.1122
 1914SOL    HW2 6063   0.987   4.487   0.045  0.6107  0.5923 -0.2027
 1915SOL     OW 6064   2.201   0.110   5.490  0.1015  0.8004 -0.0204
 1915SOL    HW1 6065   2.252   0.042   5.438  1.8106  2.2086 -0.2599
 1915SOL    HW2 6066   2.129   0.149   5.433 -0.0591  0.1320 -0.2866
 1916SOL     OW 6067   1.031   2.369   2.840  0.5373 -0.4332 -0.2535
 1916SOL    HW1 6068   1.025   2.418   2.927  1.0581 -2.2757  0.8639
 1916SOL    HW2 6069   0.996   2.428   2.767  0.5036  1.3283  1.1070
 1917SOL     OW 6070   2.100   4.266   5.438  0.3821  0.6006 -0.2110
 1917SOL    HW1 6071   2.138   4.303   5.523 -0.2916 -0.3158  0.5063
 1917SOL    HW2 6072   2.091   4.340   5.371  0.9904  1.3245  0.4832
 1918SOL     OW 6073   1.917   4.044   5.080 -0.0525  0.4971  0.0584
 1918SOL    HW1 6074   1.837   4.103   5.073  0.1405  0.7385 -0.1883
 1918SOL    HW2 6075   1.927   4.012   5.174  0.0071  1.1042  0.2679
 1919SOL     OW 6076   0.160   4.461   4.518  0.1717  0.0007 -0.1730
 1919SOL    HW1 6077   0.210   4.546   4.538 -0.2007  0.0527  0.5611
 1919SOL    HW2 6078   0.128   4.464   4.423  2.3413 -0.4426 -0.9782
 1920SOL     OW 6079   0.518   4.544   4.517 -0.5528  0.2486  0.5038
 1920SOL    HW1 6080   0.503   4.576   4.611 -1.2494 -1.6526  1.0932
 1920SOL    HW2 6081   0.531   4.444   4.518  2.1060  0.4945 -1.1424
 1921SOL     OW 6082   2.467   1.476   0.537 -0.3373  0.3478 -0.7854
 1921SOL    HW1 6083   2.478   1.421   0.620 -0.5453  0.6614 -0.5451
 1921SOL    HW2 6084   2.512   1.430   0.460 -2.7290 -1.5019 -1.2079
 1922SOL     OW 6085   1.199   5.166   1.248 -0.2415  0.4300  0.1024
 1922SOL    HW1 6086   1.124   5.194   1.308  1.0567  0.4764  1.7711
 1922SOL    HW2 6087   1.169   5.090   1.190 -1.4849  0.2259  0.9774
 1923SOL     OW 6088   1.913   0.070   0.721 -0.3121  0.5314  0.8220
 1923SOL    HW1 6089   1.963   0.038   0.641  0.6591  1.0134  1.2259
 1923SOL    HW2 6090   1.816   0.082   0.697 -0.5828 -1.8850  0.4405
 1924SOL     OW 6091   3.150   1.464   1.036 -0.0747  0.1773 -0.8792
 1924SOL    HW1 6092   3.190   1.528   1.101  0.0013 -0.1711 -0.5823
 1924SOL    HW2 6093   3.068   1.422   1.076 -0.9233  1.1030 -1.5878
 1925SOL     OW 6094   2.388   2.546   5.266 -0.0263  0.3613  0.5391
 1925SOL    HW1 6095   2.441   2.464   5.288 -0.6508 -0.4183 -0.7106
 1925SOL    HW2 6096   2.331   2.571   5.344  0.9455  0.2418  1.3070
 1926SOL     OW 6097   4.145   1.116   1.819 -0.8840 -0.1251 -0.6184
 1926SOL    HW1 6098   4.158   1.125   1.720 -0.4128  0.6379 -0.4905
 1926SOL    HW2 6099   4.199   1.185   1.866 -2.7669  0.9507  0.0838
 1927SOL     OW 6100   3.780   0.195   1.730  0.3413  0.1887 -0.4761
 1927SOL    HW1 6101   3.711   0.254   1.689 -0.7976 -0.7043  0.1032
 1927SOL    HW2 6102   3.824   0.140   1.658 -0.1383  0.1702 -0.7583
 1928SOL     OW 6103   1.595   1.682   0.756  0.4707  0.2122  0.0506
 1928SOL    HW1 6104   1.552   1.602   0.798 -0.6659  1.4658  1.3598
 1928SOL    HW2 6105   1.565   1.690   0.661 -2.5680  1.2264  0.9930
 1929SOL     OW 6106   3.487   1.209   2.137 -0.0732  0.3994 -0.6323
 1929SOL    HW1 6107   3.506   1.221   2.234  0.5056  0.8114 -0.7910
 1929SOL    HW2 6108   3.439   1.289   2.102  0.5999  0.6977 -0.8977
 1930SOL     OW 6109   3.186   1.939   0.403 -0.4105 -0.6683  0.0931
 1930SOL    HW1 6110   3.169   2.002   0.328  0.3083  2.0840  2.0843
 1930SOL    HW2 6111   3.108   1.941   0.466  0.2508 -0.6703  0.9203
 1931SOL     OW 6112   3.209   1.131   2.088 -0.7225 -0.2584 -0.5898
 1931SOL    HW1 6113   3.180   1.073   2.164  0.4940 -1.6573 -1.1482
 1931SOL    HW2 6114   3.306   1.115   2.069 -0.1725  2.3845 -0.4214
 1932SOL     OW 6115   2.795   1.098   0.857 -0.0486  0.5172  0.0098
 1932SOL    HW1 6116   2.702   1.070   0.882 -1.2951  1.9418 -2.6657
 1932SOL    HW2 6117   2.830   1.038   0.785  1.0736  0.1232  0.8510
 1933SOL     OW 6118   3.757   1.397   0.538 -0.2697  0.3927 -0.1226
 1933SOL    HW1 6119   3.780   1.387   0.635 -0.5949  0.7337 -0.0066
 1933SOL    HW2 6120   3.807   1.329   0.484 -0.6525 -0.2854  0.3681
 1934SOL     OW 6121   2.643   5.570   0.451  0.0424 -0.1222  0.0877
 1934SOL    HW1 6122   2.574   5.639   0.427 -2.4050 -1.8770  1.5247
 1934SOL    HW2 6123   2.632   5.544   0.547  2.2212 -1.0990  0.1336
 1935SOL     OW 6124   4.090   1.459   0.610 -0.3572  0.0555  0.0295
 1935SOL    HW1 6125   4.150   1.396   0.561  0.7745  0.6408  0.6203
 1935SOL    HW2 6126   4.045   1.520   0.544 -2.2494 -1.9624 -0.6485
 1936SOL     OW 6127   2.089   0.788   5.168  0.1748 -0.0045 -0.1079
 1936SOL    HW1 6128   2.041   0.771   5.254  0.3120 -0.2426 -0.0789
 1936SOL    HW2 6129   2.160   0.857   5.183  0.2214 -0.0706 -0.0226
 1937SOL     OW 6130   2.342   1.201   1.620  0.3682 -0.5010  0.3814
 1937SOL    HW1 6131   2.398   1.282   1.608  1.6826 -1.5358 -0.8730
 1937SOL    HW2 6132   2.396   1.130   1.665  0.3237 -1.7106 -1.3571
 1938SOL     OW 6133   2.743   2.317   0.528 -0.2522  0.0970 -0.0480
 1938SOL    HW1 6134   2.754   2.222   0.499  3.1072  0.0637  0.9165
 1938SOL    HW2 6135   2.703   2.320   0.620 -1.7349 -0.2606 -0.6573
 1939SOL     OW 6136   2.627   1.964   5.053  0.1711 -0.0371 -0.0063
 1939SOL    HW1 6137   2.608   2.056   5.086  0.1871 -0.2278  0.5611
 1939SOL    HW2 6138   2.586   1.898   5.116 -0.4761 -0.4100 -0.8043
 1940SOL     OW 6139   2.046   1.871   1.055 -0.3629  0.1869  0.1756
 1940SOL    HW1 6140   2.104   1.941   1.014  0.2845 -0.5501 -0.2071
 1940SOL    HW2 6141   1.992   1.826   0.984  0.8357 -1.1600  0.0843
 1941SOL     OW 6142   2.953   0.812   0.137 -0.0282 -0.7537 -0.3667
 1941SOL    HW1 6143   2.919   0.774   0.051 -1.0089 -1.8548  0.4819
 1941SOL    HW2 6144   2.903   0.895   0.159  0.0611 -0.6010 -0.7299
 1942SOL     OW 6145   2.557   0.082   1.632 -0.1729  0.5738  0.0100
 1942SOL    HW1 6146   2.598   0.014   1.571  1.5968  1.1927  0.4503
 1942SOL    HW2 6147   2.565   0.173   1.592 -0.2450  0.8221  0.5482
 1943SOL     OW 6148   3.048   0.196   0.353 -0.8641  0.4447 -0.0236
 1943SOL    HW1 6149   3.110   0.271   0.328 -0.7068  0.6058  0.8241
 1943SOL    HW2 6150   3.031   0.139   0.273 -2.1572  2.2224 -1.0689
 1944SOL     OW 6151   3.897   2.088   4.868  0.3232  0.0883 -0.7742
 1944SOL    HW1 6152   3.828   2.136   4.923 -1.0016  0.5975 -2.7813
 1944SOL    HW2 6153   3.986   2.131   4.882 -0.2313  1.0393 -0.0170
 1945SOL     OW 6154   2.362   1.722   4.469 -0.1299 -0.7396 -0.0116
 1945SOL    HW1 6155   2.310   1.764   4.544  2.3548  0.4962  1.1139
 1945SOL    HW2 6156   2.358   1.781   4.389 -0.6886 -0.8133 -0.0474
 1946SOL     OW 6157   3.245   1.744   0.210  0.1907 -0.1679  0.6599
 1946SOL    HW1 6158   3.282   1.663   0.256  0.9284  0.1058  0.5504
 1946SOL    HW2 6159   3.227   1.816   0.277  0.8771  0.0832  0.5804
 1947SOL     OW 6160   3.179   0.574   1.210  0.5925 -0.0256  0.1271
 1947SOL    HW1 6161   3.112   0.648   1.205 -0.0922 -0.6253  0.1939
 1947SOL    HW2 6162   3.141   0.492   1.166  0.8312 -0.7007  1.1365
 1948SOL     OW 6163   2.115   0.732   1.243  0.3739 -0.5235 -0.7024
 1948SOL    HW1 6164   2.169   0.648   1.241  0.2078 -0.6575  0.1296
 1948SOL    HW2 6165   2.111   0.768   1.336 -1.0058 -0.5431 -0.7239
 1949SOL     OW 6166   2.932   1.336   1.162 -0.5006  0.2445 -0.2806
 1949SOL    HW1 6167   2.938   1.374   1.254  2.8080 -0.9202  0.1294
 1949SOL    HW2 6168   2.857   1.270   1.157 -0.0786 -0.4714  1.9555
 1950SOL     OW 6169   1.603   1.272   1.528 -0.2533 -0.1348  0.6958
 1950SOL    HW1 6170   1.577   1.369   1.531 -0.3901 -0.0033 -2.1950
 1950SOL    HW2 6171   1.702   1.264   1.537  0.0850  0.5927 -1.6490
 1951SOL     OW 6172   2.260   0.289   0.111 -0.8156  0.2099 -0.2153
 1951SOL    HW1 6173   2.227   0.221   0.046  0.1550  0.5335 -1.0730
 1951SOL    HW2 6174   2.252   0.380   0.070  0.1161  0.3883 -0.0136
 1952SOL     OW 6175   1.563   0.357   5.383  0.0370 -0.1601  0.1022
 1952SOL    HW1 6176   1.644   0.411   5.407  0.5340 -0.2095 -1.4105
 1952SOL    HW2 6177   1.561   0.274   5.440 -0.1483  0.8704  1.6755
 1953SOL     OW 6178   3.988   1.884   0.791  0.3607 -0.1236 -0.5081
 1953SOL    HW1 6179   3.888   1.879   0.788  0.1406  1.6094  1.6991
 1953SOL    HW2 6180   4.025   1.792   0.804 -1.1650 -0.5018  1.6740
 1954SOL     OW 6181   3.700   3.577   2.370 -0.1713  0.0108  0.2713
 1954SOL    HW1 6182   3.622   3.619   2.325  1.1158  1.0092 -1.1033
 1954SOL    HW2 6183   3.668   3.521   2.447 -2.2725 -0.2208 -0.7114
 1955SOL     OW 6184   1.277   0.437   1.551  0.3621  0.0543  0.1048
 1955SOL    HW1 6185   1.254   0.486   1.467  0.6313  2.5446  1.3595
 1955SOL    HW2 6186   1.345   0.367   1.532 -0.7414 -0.5164 -1.9742
 1956SOL     OW 6187   3.446   2.378   0.140  0.4161  0.1046 -0.1661
 1956SOL    HW1 6188   3.519   2.416   0.083 -0.4551 -0.9593 -2.1131
 1956SOL    HW2 6189   3.445   2.424   0.229  0.3886  3.5702 -1.7752
 1957SOL     OW 6190   3.284   1.849   0.654 -0.2824 -0.4456 -0.5951
 1957SOL    HW1 6191   3.274   1.885   0.561  0.1311 -0.0917 -0.5029
 1957SOL    HW2 6192   3.196   1.854   0.701 -0.3341  0.0151 -0.7355
 1958SOL     OW 6193   2.891   0.042   0.525 -0.3678  0.0258 -0.4893
 1958SOL    HW1 6194   2.795   0.026   0.502 -0.5889  0.9818 -0.3033
 1958SOL    HW2 6195   2.932   0.102   0.456 -0.0981  0.1656 -0.2095
 1959SOL     OW 6196   2.328   0.862   1.822 -0.6146 -0.8170  0.4136
 1959SOL    HW1 6197   2.295   0.787   1.766 -1.0229  0.2806 -0.8712
 1959SOL    HW2 6198   2.394   0.917   1.770 -0.7652  0.0499  1.1029
 1960SOL     OW 6199   3.747   1.591   0.146  0.2138 -0.6878  0.1566
 1960SOL    HW1 6200   3.836   1.636   0.157  0.1219 -0.4801  0.0578
 1960SOL    HW2 6201   3.679   1.638   0.201 -0.2201  0.2756 -1.1472
 1961SOL     OW 6202   2.657   0.378   2.538  0.4903 -0.2186 -0.4229
 1961SOL    HW1 6203   2.672   0.293   2.589  0.8641 -0.4708 -0.9527
 1961SOL    HW2 6204   2.619   0.447   2.600  0.6561 -0.6136  0.1274
 1962SOL     OW 6205   3.583   0.322   1.631 -0.3308 -0.5173 -0.0592
 1962SOL    HW1 6206   3.552   0.415   1.651 -0.0695 -0.5003  0.2678
 1962SOL    HW2 6207   3.507   0.258   1.643 -0.3224 -0.4352  0.4292
 1963SOL     OW 6208   2.665   1.831   2.445  0.2375  0.4218  0.3933
 1963SOL    HW1 6209   2.713   1.752   2.485  0.0632  0.3432  0.4476
 1963SOL    HW2 6210   2.699   1.846   2.352  0.9831  0.8977  0.7327
 1964SOL     OW 6211   2.708   1.328   1.719  0.3114  0.0296 -0.4746
 1964SOL    HW1 6212   2.760   1.411   1.740  2.9487 -1.4881 -0.6581
 1964SOL    HW2 6213   2.679   1.285   1.804  2.2538 -0.8060 -0.1843
 1965SOL     OW 6214   3.711   0.927   1.531  0.0806  0.3696 -0.3424
 1965SOL    HW1 6215   3.711   0.925   1.631 -0.6203 -1.4202 -0.3438
 1965SOL    HW2 6216   3.662   1.009   1.499  0.9703  1.3595  0.7409
 1966SOL     OW 6217   3.446   1.159   5.253  0.5683  0.5445 -0.2089
 1966SOL    HW1 6218   3.435   1.142   5.351  0.5776  1.7573  0.0202
 1966SOL    HW2 6219   3.436   1.257   5.235  0.3017  0.3021 -1.4628
 1967SOL     OW 6220   0.922   1.919   1.205 -0.8021 -0.1002 -0.1033
 1967SOL    HW1 6221   0.997   1.977   1.237 -0.5649  0.3907 -1.4816
 1967SOL    HW2 6222   0.918   1.835   1.259  1.3914 -0.6057 -0.6292
 1968SOL     OW 6223   3.843   5.011   5.418 -0.4533 -0.3224 -0.2489
 1968SOL    HW1 6224   3.894   5.088   5.380 -1.8110  1.0722  0.6004
 1968SOL    HW2 6225   3.901   4.959   5.480  0.7185 -0.4681 -1.4400
 1969SOL     OW 6226   2.246   1.075   2.513 -0.2954 -0.2857  0.4059
 1969SOL    HW1 6227   2.181   1.088   2.438  0.4903 -0.3472 -0.2960
 1969SOL    HW2 6228   2.338   1.059   2.476  0.2314  0.3583  1.3861
 1970SOL     OW 6229   2.893   1.585   1.329  0.0852 -0.8358 -0.2656
 1970SOL    HW1 6230   2.886   1.621   1.236  0.2052 -0.1120 -0.0056
 1970SOL    HW2 6231   2.802   1.560   1.362 -0.4367  1.7450  0.4944
 1971SOL     OW 6232   3.835   0.036   1.507  0.3237  0.7938 -0.4873
 1971SOL    HW1 6233   3.880  -0.041   1.551  1.3465  1.4405 -0.3475
 1971SOL    HW2 6234   3.847   0.030   1.408 -3.0066 -1.3034 -0.8958
 1972SOL     OW 6235   2.457   1.981   1.270  0.0207  0.4112  0.4372
 1972SOL    HW1 6236   2.551   1.997   1.239  0.2551 -1.2278  0.2088
 1972SOL    HW2 6237   2.393   2.031   1.212  0.7994  2.9206  1.6275
 1973SOL     OW 6238   1.664   1.713   0.179  0.1953 -0.1747 -0.3958
 1973SOL    HW1 6239   1.685   1.705   0.082  0.9916  0.5061 -0.2928
 1973SOL    HW2 6240   1.739   1.761   0.226  0.2364 -1.2655  0.7084
 1974SOL     OW 6241   4.134   0.974   1.245 -0.1617  0.1581 -0.1268
 1974SOL    HW1 6242   4.124   0.880   1.213  1.1523  0.1603 -0.5956
 1974SOL    HW2 6243   4.044   1.010   1.270 -0.7072 -1.1508 -0.1153
 1975SOL     OW 6244   3.485   1.439   1.156 -0.2804 -0.3286  1.1130
 1975SOL    HW1 6245   3.416   1.511   1.151 -0.3305 -0.2136  2.8916
 1975SOL    HW2 6246   3.440   1.350   1.158 -0.1965 -0.7664 -3.8397
 1976SOL     OW 6247   3.338   1.535   0.366  0.7267  0.0126  0.1915
 1976SOL    HW1 6248   3.431   1.557   0.396  0.9219  0.4084 -0.6884
 1976SOL    HW2 6249   3.328   1.435   0.363  0.2856 -0.0928  2.7914
 1977SOL     OW 6250   3.081   1.084   1.343  0.3148 -0.2816 -0.2811
 1977SOL    HW1 6251   3.077   1.079   1.243  2.3405  0.9613 -0.4631
 1977SOL    HW2 6252   3.021   1.158   1.374  0.3692 -0.0740 -0.6582
 1978SOL     OW 6253   1.298   2.227   1.798 -0.8086 -0.1045  0.2155
 1978SOL    HW1 6254   1.246   2.276   1.728  0.6632  0.8369 -0.2815
 1978SOL    HW2 6255   1.331   2.292   1.867 -0.9925 -0.8027  0.9807
 1979SOL     OW 6256   3.254   1.643   1.207  0.0642 -0.0867  0.4596
 1979SOL    HW1 6257   3.210   1.724   1.167  0.5826  0.3784  0.8176
 1979SOL    HW2 6258   3.273   1.660   1.304 -0.2306 -0.8090  0.6441
 1980SOL     OW 6259   2.227   0.284   2.176  0.0138  0.1821  0.8192
 1980SOL    HW1 6260   2.312   0.316   2.134 -0.0444  2.4130  2.2511
 1980SOL    HW2 6261   2.245   0.201   2.229  0.0583 -2.8506 -3.4254
 1981SOL     OW 6262   3.435   2.117   0.214  0.4968  0.7528  0.1655
 1981SOL    HW1 6263   3.409   2.066   0.132  1.3243  1.0999 -0.3269
 1981SOL    HW2 6264   3.447   2.213   0.190  0.8968  0.8285  0.6601
 1982SOL     OW 6265   2.036   2.607   5.291  0.5239  0.7181  0.5042
 1982SOL    HW1 6266   2.070   2.700   5.282  1.0551  0.6564  1.6116
 1982SOL    HW2 6267   2.086   2.547   5.228  1.3496  0.9087  0.9627
 1983SOL     OW 6268   3.022   5.297   1.602  0.2071  0.2278  0.6056
 1983SOL    HW1 6269   3.077   5.376   1.574 -0.2418  0.6703  0.9519
 1983SOL    HW2 6270   3.076   5.213   1.589  0.1454  0.4291 -1.1941
 1984SOL     OW 6271   1.494   0.999   2.081  0.1766 -0.0082 -0.5670
 1984SOL    HW1 6272   1.560   0.936   2.123  1.1720  1.2837 -0.1160
 1984SOL    HW2 6273   1.520   1.018   1.987 -0.4328 -0.6873 -0.8758
 1985SOL     OW 6274   3.034   1.599   5.371  0.5931 -0.6874  0.1737
 1985SOL    HW1 6275   3.073   1.541   5.299 -0.1217 -1.9010  0.7502
 1985SOL    HW2 6276   2.935   1.594   5.369  0.5679 -1.3217  1.7037
 1986SOL     OW 6277   3.659   0.549   5.553 -0.0092 -0.3367 -0.8430
 1986SOL    HW1 6278   3.758   0.544   5.543 -0.0176 -1.5138 -0.5059
 1986SOL    HW2 6279   3.636   0.603   5.634  0.4304 -1.5807  0.1475
 1987SOL     OW 6280   3.414   0.224   2.228 -0.0376 -0.6060  0.6142
 1987SOL    HW1 6281   3.479   0.296   2.203  1.8739 -1.9401  1.4750
 1987SOL    HW2 6282   3.341   0.263   2.284  0.2963  0.8437  0.0842
 1988SOL     OW 6283   3.484   0.774   5.485 -0.0504  0.0522  0.1713
 1988SOL    HW1 6284   3.393   0.813   5.501 -1.1301  0.3789 -5.0730
 1988SOL    HW2 6285   3.550   0.848   5.471  0.9493 -0.2095  2.7862
 1989SOL     OW 6286   3.330   0.980   1.435 -0.5358 -0.4719 -0.1398
 1989SOL    HW1 6287   3.319   0.929   1.521 -1.3304  0.7181  0.4957
 1989SOL    HW2 6288   3.244   1.026   1.413  0.2846  0.9516 -0.4456
 1990SOL     OW 6289   2.526   1.368   1.531 -0.0745  0.3004  0.1762
 1990SOL    HW1 6290   2.600   1.348   1.596 -0.1988  0.8065  0.4813
 1990SOL    HW2 6291   2.556   1.439   1.467 -0.2901  0.4988  0.2949
 1991SOL     OW 6292   3.249   0.534   3.130  0.6076 -0.6017  0.3169
 1991SOL    HW1 6293   3.309   0.611   3.106  1.1223  0.0098  3.2211
 1991SOL    HW2 6294   3.162   0.544   3.082  0.8174  1.5827  0.3032
 1992SOL     OW 6295   3.194   2.666   4.849 -0.3717 -0.5054 -0.9954
 1992SOL    HW1 6296   3.203   2.757   4.889 -0.0411 -0.2430 -1.6537
 1992SOL    HW2 6297   3.098   2.639   4.849 -0.6781  0.4793 -2.1527
 1993SOL     OW 6298   2.267   0.811   0.660  0.3551 -0.5035  0.3870
 1993SOL    HW1 6299   2.269   0.790   0.562  2.3907 -0.1279  0.3166
 1993SOL    HW2 6300   2.234   0.904   0.674 -3.9049 -1.7924  0.3999
 1994SOL     OW 6301   3.038   5.016   0.592 -0.6891 -0.5350 -0.0141
 1994SOL    HW1 6302   3.068   5.054   0.504 -0.0165 -1.1675 -0.0699
 1994SOL    HW2 6303   3.059   4.918   0.595  2.6644  0.0717  2.2167
 1995SOL     OW 6304   4.095   1.657   5.242 -0.0216  0.0580  0.6344
 1995SOL    HW1 6305   3.996   1.656   5.260  0.0342  0.6200  0.9759
 1995SOL    HW2 6306   4.118   1.736   5.185 -0.0401 -1.1286 -1.1072
 1996SOL     OW 6307   2.835   0.751   0.845  0.4763 -0.7914  0.1162
 1996SOL    HW1 6308   2.890   0.796   0.775 -1.6983  1.5052 -0.2318
 1996SOL    HW2 6309   2.843   0.802   0.931 -0.8125 -0.6042  0.1444
 1997SOL     OW 6310   3.051   4.399   5.109 -0.4599 -0.7419 -0.2325
 1997SOL    HW1 6311   3.081   4.419   5.203 -1.2684 -0.3343 -0.0479
 1997SOL    HW2 6312   2.963   4.443   5.093  1.1205  1.9517 -2.2651
 1998SOL     OW 6313   2.916   0.974   2.407 -0.2951 -0.6555  0.4227
 1998SOL    HW1 6314   2.827   1.010   2.436  0.3826 -0.4359  2.3554
 1998SOL    HW2 6315   2.950   0.910   2.476  1.5613  0.1011  0.2535
 1999SOL     OW 6316   3.251   1.011   0.818 -0.1128  0.0179 -0.3968
 1999SOL    HW1 6317   3.179   1.002   0.750 -0.4248  0.8760 -0.1899
 1999SOL    HW2 6318   3.280   1.107   0.825 -0.1477 -0.0305  0.7376
 2000SOL     OW 6319   2.828   0.564   0.022 -0.1183 -0.1833 -0.3315
 2000SOL    HW1 6320   2.825   0.573   0.122  2.8920 -0.6888 -0.0884
 2000SOL    HW2 6321   2.739   0.535  -0.012 -1.3563  0.4976  2.1445
 2001SOL     OW 6322   3.721   1.832   0.468 -0.1062  0.2328  0.1129
 2001SOL    HW1 6323   3.772   1.917   0.458 -1.4609  1.3396  1.8635
 2001SOL    HW2 6324   3.660   1.820   0.389 -0.2315  1.1381  0.0587
 2002SOL     OW 6325   2.853   0.315   0.866  0.1449 -0.1558 -0.4512
 2002SOL    HW1 6326   2.781   0.246   0.860 -0.4606  0.4906 -0.8267
 2002SOL    HW2 6327   2.888   0.335   0.775  0.9291 -0.5893 -0.2525
 2003SOL     OW 6328   1.800   4.932   0.259 -0.0315  0.0433  0.3406
 2003SOL    HW1 6329   1.790   4.921   0.358  2.6676 -0.6140  0.6218
 2003SOL    HW2 6330   1.823   5.027   0.238 -2.0515  0.5306  0.1374
 2004SOL     OW 6331   2.866   5.168   1.382  0.3220 -0.1378 -0.3625
 2004SOL    HW1 6332   2.873   5.235   1.457  0.0804 -0.4355 -0.0725
 2004SOL    HW2 6333   2.916   5.203   1.302  0.9420 -0.0027  0.0710
 2005SOL     OW 6334   2.970   0.454   0.653  0.4231  0.7596  0.2721
 2005SOL    HW1 6335   2.880   0.487   0.622 -0.9509 -1.2580  1.8423
 2005SOL    HW2 6336   3.041   0.512   0.614 -1.3803  1.1549 -2.8223
 2006SOL     OW 6337   2.221   5.595   1.587 -0.6850  0.4212  0.3408
 2006SOL    HW1 6338   2.319   5.617   1.588 -0.7921  1.2328 -1.8463
 2006SOL    HW2 6339   2.209   5.498   1.565 -0.3677 -0.1544  2.5429
 2007SOL     OW 6340   2.597   0.657   0.957  0.1158  0.1348  0.0393
 2007SOL    HW1 6341   2.541   0.737   0.939 -0.7418 -0.2726  0.8156
 2007SOL    HW2 6342   2.686   0.667   0.911 -0.3114  1.1116 -0.5984
 2008SOL     OW 6343   4.567   1.095   0.937  0.2330 -0.0748 -0.3790
 2008SOL    HW1 6344   4.532   1.186   0.961 -0.5450 -0.5601  0.3847
 2008SOL    HW2 6345   4.496   1.044   0.891  0.5036 -0.4812 -0.3472
 2009SOL     OW 6346   3.670   2.294   0.601  0.0179 -0.2577 -0.4218
 2009SOL    HW1 6347   3.605   2.244   0.544  1.5877 -0.8384 -1.7657
 2009SOL    HW2 6348   3.737   2.340   0.543  0.7854  0.3905  0.9212
 2010SOL     OW 6349   3.991   2.781   0.190 -0.3829 -0.7662  0.5009
 2010SOL    HW1 6350   3.958   2.695   0.151  1.1969 -1.6937  1.1197
 2010SOL    HW2 6351   4.063   2.762   0.256  0.2605  1.0659  0.3822
 2011SOL     OW 6352   2.841   0.795   1.627  0.7270 -0.0129  0.1765
 2011SOL    HW1 6353   2.819   0.765   1.720 -1.7637 -1.6153 -0.8057
 2011SOL    HW2 6354   2.878   0.718   1.574  0.3321  0.3475 -0.6557
 2012SOL     OW 6355   3.875   0.915   0.950  0.2604  0.4045 -0.2000
 2012SOL    HW1 6356   3.857   0.993   1.011  0.4095  0.1179  0.2108
 2012SOL    HW2 6357   3.939   0.852   0.993 -0.7693 -0.5523 -0.0176
 2013SOL     OW 6358   1.522   5.165   0.587  0.0931 -0.9289 -0.4300
 2013SOL    HW1 6359   1.505   5.091   0.652  0.3747  0.5929  1.4637
 2013SOL    HW2 6360   1.436   5.210   0.563  0.2813  0.7224  1.7082
 2014SOL     OW 6361   3.539   0.720   1.437 -0.7638  0.4368  0.0439
 2014SOL    HW1 6362   3.490   0.719   1.349 -0.0861 -0.2020 -0.3303
 2014SOL    HW2 6363   3.605   0.796   1.437  0.7654 -0.8368 -0.8677
 2015SOL     OW 6364   2.080   1.872   1.529 -0.2120  0.8467 -0.2125
 2015SOL    HW1 6365   2.161   1.852   1.474  0.9864  1.5722  1.2199
 2015SOL    HW2 6366   2.003   1.892   1.468  1.4103  3.0746 -1.6710
 2016SOL     OW 6367   3.465   0.576   1.678 -0.5775 -0.1386  0.0190
 2016SOL    HW1 6368   3.490   0.652   1.617 -0.2356 -1.7503 -1.9842
 2016SOL    HW2 6369   3.366   0.563   1.676 -0.4412 -1.3083 -1.7465
 2017SOL     OW 6370   1.850   2.378   2.203  0.2957 -0.4166  0.5668
 2017SOL    HW1 6371   1.826   2.304   2.266  0.0442 -1.6437 -0.9263
 2017SOL    HW2 6372   1.943   2.410   2.223  0.0881 -0.5158  1.7792
 2018SOL     OW 6373   4.303   2.243   0.849  0.9894 -0.0602 -0.0379
 2018SOL    HW1 6374   4.358   2.291   0.918 -0.7311  1.7216  0.2003
 2018SOL    HW2 6375   4.219   2.209   0.891  0.7314 -0.4946 -0.8879
 2019SOL     OW 6376   2.610   4.533   1.861 -0.0641  0.3797  0.1622
 2019SOL    HW1 6377   2.644   4.440   1.877  0.7245  0.8047  1.0869
 2019SOL    HW2 6378   2.678   4.585   1.810 -1.5798 -0.2569 -2.7485
 2020SOL     OW 6379   3.447   1.531   1.883 -0.5501 -0.3567  0.8441
 2020SOL    HW1 6380   3.406   1.583   1.808 -0.3625 -0.0615  0.9431
 2020SOL    HW2 6381   3.409   1.439   1.884 -0.3322 -0.4564  0.2036
 2021SOL     OW 6382   3.034   1.606   4.803  0.2057  0.5542  0.2522
 2021SOL    HW1 6383   2.940   1.590   4.773 -0.4285  2.1516  1.2695
 2021SOL    HW2 6384   3.071   1.687   4.757  0.9593  0.1718  0.1584
 2022SOL     OW 6385   2.517   1.014   1.713 -0.2805  0.5416 -0.4289
 2022SOL    HW1 6386   2.566   0.976   1.634  0.9852  0.9379  0.1378
 2022SOL    HW2 6387   2.582   1.058   1.775 -0.7877 -2.1330  2.2473
 2023SOL     OW 6388   1.896   1.021   2.449  0.1161 -0.3539 -0.3416
 2023SOL    HW1 6389   1.973   1.067   2.405  0.3462 -1.6806 -1.3760
 2023SOL    HW2 6390   1.815   1.080   2.445  0.5441  0.2041 -1.0915
 2024SOL     OW 6391   1.390   0.854   1.382 -0.3810  0.3649  0.5923
 2024SOL    HW1 6392   1.435   0.943   1.372 -2.1205  1.0560 -2.3996
 2024SOL    HW2 6393   1.444   0.783   1.337  0.2245  0.1656  1.5995
 2025SOL     OW 6394   2.037   0.792   4.896 -0.1202  0.2787  0.8304
 2025SOL    HW1 6395   1.951   0.756   4.861  2.2827 -3.6380 -1.9195
 2025SOL    HW2 6396   2.043   0.775   4.994 -1.7683 -1.0934  0.7470
 2026SOL     OW 6397   2.617   5.023   0.807  0.1049  0.0561  0.0349
 2026SOL    HW1 6398   2.715   5.003   0.807  0.2225  0.5056  1.3450
 2026SOL    HW2 6399   2.592   5.067   0.893 -1.1217  0.6326 -0.5824
 2027SOL     OW 6400   4.129   0.886   0.796  0.0690 -0.4142  0.0455
 2027SOL    HW1 6401   4.095   0.969   0.752 -1.4004 -0.2006  1.4833
 2027SOL    HW2 6402   4.055   0.819   0.800  1.1986 -1.7725 -0.9632
 2028SOL     OW 6403   1.959   0.673   1.016  0.0288  0.4294  0.3523
 2028SOL    HW1 6404   2.018   0.652   0.938 -0.9456  0.1992 -0.3465
 2028SOL    HW2 6405   2.013   0.714   1.089  1.1933 -0.5077  0.0474
 2029SOL     OW 6406   2.861   0.279   1.713 -0.6338  0.0363 -0.0643
 2029SOL    HW1 6407   2.765   0.290   1.687 -1.0969 -3.2147 -0.1006
 2029SOL    HW2 6408   2.908   0.222   1.645  1.0193  0.5697  0.5816
 2030SOL     OW 6409   2.060   2.780   0.819 -0.1388  0.1800  0.0706
 2030SOL    HW1 6410   2.016   2.792   0.730 -0.5730  0.2042  0.2849
 2030SOL    HW2 6411   2.048   2.686   0.849 -1.3544  0.5450  0.8077
 2031SOL     OW 6412   2.123   2.183   2.085  0.4310  0.1514  0.2163
 2031SOL    HW1 6413   2.073   2.108   2.128  0.9730 -0.4325 -0.1646
 2031SOL    HW2 6414   2.115   2.265   2.142 -1.7569  0.3542 -0.2906
 2032SOL     OW 6415   4.300   5.470   1.165 -0.4005 -0.1178  0.2699
 2032SOL    HW1 6416   4.287   5.380   1.207  1.4426 -1.0062 -0.9438
 2032SOL    HW2 6417   4.261   5.540   1.225 -0.8860 -1.6125  1.7921
 2033SOL     OW 6418   2.975   0.767   2.643  0.3272  0.0430 -0.1272
 2033SOL    HW1 6419   2.946   0.679   2.606  0.7329 -0.0239 -0.2884
 2033SOL    HW2 6420   2.912   0.794   2.716 -1.9067  1.2865 -2.3297
 2034SOL     OW 6421   1.988   5.088   0.999 -0.5097  0.0759  0.6279
 2034SOL    HW1 6422   1.937   5.001   0.997 -0.6392  0.1576  0.3670
 2034SOL    HW2 6423   1.952   5.146   1.071  0.0310 -0.3613  1.2635
 2035SOL     OW 6424   3.002   1.029   1.661 -0.1694  0.1080 -0.4440
 2035SOL    HW1 6425   2.965   1.104   1.608 -1.2675 -0.1000  0.0088
 2035SOL    HW2 6426   2.941   0.950   1.657  1.1774 -0.9418 -1.2785
 2036SOL     OW 6427   4.067   0.460   1.424 -0.3566 -0.0059 -0.1077
 2036SOL    HW1 6428   3.990   0.472   1.361 -2.6766 -0.9458  2.3677
 2036SOL    HW2 6429   4.091   0.363   1.430  2.2953  0.3973 -2.0953
 2037SOL     OW 6430   2.606   0.362   1.654  0.1645 -0.2151  0.7059
 2037SOL    HW1 6431   2.541   0.326   1.721 -0.4019  0.7561  0.6889
 2037SOL    HW2 6432   2.562   0.433   1.599  0.5572 -1.1152 -0.8419
 2038SOL     OW 6433   2.062   0.505   5.078  0.0267  0.1178  0.3338
 2038SOL    HW1 6434   2.011   0.462   5.003  1.7560 -1.7536  0.1376
 2038SOL    HW2 6435   2.052   0.605   5.073 -3.1672 -0.1385  0.0725
 2039SOL     OW 6436   0.816   1.777   2.016  0.1254 -0.2955 -0.0976
 2039SOL    HW1 6437   0.725   1.749   1.986  0.8473 -0.3989 -2.4308
 2039SOL    HW2 6438   0.818   1.783   2.115 -2.7066  0.7000  0.0102
 2040SOL     OW 6439   2.411   1.506   2.707  0.4681  0.2160  0.4516
 2040SOL    HW1 6440   2.313   1.505   2.727  0.4853 -0.4559  0.5451
 2040SOL    HW2 6441   2.461   1.541   2.786  0.4052 -0.8217  0.9737
 2041SOL     OW 6442   2.919   0.576   1.488  0.5862 -0.7026 -0.4458
 2041SOL    HW1 6443   3.008   0.531   1.496 -0.3480 -2.6484 -0.2512
 2041SOL    HW2 6444   2.849   0.507   1.467 -0.9128  0.7389 -0.3828
 2042SOL     OW 6445   2.148  -0.013   2.587  0.9307  0.6493 -0.1534
 2042SOL    HW1 6446   2.065  -0.045   2.632 -0.2713  0.9176 -2.0896
 2042SOL    HW2 6447   2.157   0.086   2.599  0.3103  0.8082 -0.9563
 2043SOL     OW 6448   3.096   1.060   1.048  0.6557 -0.3662  0.7559
 2043SOL    HW1 6449   3.158   1.056   0.969 -0.4874  2.0429 -0.3726
 2043SOL    HW2 6450   3.004   1.034   1.020  0.3038  0.1829  1.3555
 2044SOL     OW 6451   2.838   1.551   1.781  0.6997 -0.5377  0.5338
 2044SOL    HW1 6452   2.842   1.646   1.752  0.2544 -0.2058  1.5024
 2044SOL    HW2 6453   2.797   1.546   1.873  1.0860 -1.6204  0.6625
 2045SOL     OW 6454   2.991   0.796   1.313 -0.8084 -0.0295  0.1234
 2045SOL    HW1 6455   3.021   0.872   1.370  0.0436 -0.3551  0.1203
 2045SOL    HW2 6456   2.948   0.726   1.370 -1.2257  0.2704  0.1792
 2046SOL     OW 6457   4.212   2.115   2.443  0.5490 -0.0097  0.4122
 2046SOL    HW1 6458   4.265   2.049   2.389  1.0288  0.3051  0.4894
 2046SOL    HW2 6459   4.241   2.112   2.538 -0.1792 -0.4417  0.6248
 2047SOL     OW 6460   2.631   1.657   2.211  0.2296  0.1368 -0.0318
 2047SOL    HW1 6461   2.685   1.739   2.193  1.1213 -0.4666 -0.2221
 2047SOL    HW2 6462   2.535   1.675   2.191  0.4938  0.9580 -0.6303
 2048SOL     OW 6463   3.924   0.385   0.971 -0.1939  0.3411  0.2519
 2048SOL    HW1 6464   3.835   0.428   0.960 -1.7610 -2.2968  1.5598
 2048SOL    HW2 6465   3.938   0.318   0.899  0.3581  0.1707  0.5133
 2049SOL     OW 6466   3.068   0.215   5.103 -0.8603  0.2374 -0.1781
 2049SOL    HW1 6467   3.151   0.170   5.070 -0.5321  0.3934  0.4067
 2049SOL    HW2 6468   3.077   0.231   5.202 -1.8819 -0.3972  0.0285
 2050SOL     OW 6469   2.543   1.112   1.374 -0.6533  0.3883  0.2484
 2050SOL    HW1 6470   2.509   1.189   1.428  0.2989  0.0494  1.3787
 2050SOL    HW2 6471   2.546   1.030   1.432  1.4687  0.2719  0.0258
 2051SOL     OW 6472   2.008   1.473   1.413  0.2849  0.5368  0.2853
 2051SOL    HW1 6473   2.039   1.400   1.352  0.3573  0.4063  0.4795
 2051SOL    HW2 6474   1.909   1.483   1.404  0.1589 -0.1231  0.8419
 2052SOL     OW 6475   1.469   0.254   1.508 -0.2163 -0.4829  0.1719
 2052SOL    HW1 6476   1.519   0.279   1.592 -1.2032  2.5940 -0.0212
 2052SOL    HW2 6477   1.423   0.166   1.522 -0.6210  0.0642  3.0167
 2053SOL     OW 6478   3.607   5.145   1.949  0.0609  0.1698  0.0223
 2053SOL    HW1 6479   3.605   5.236   1.990  0.5480 -0.4814  1.5726
 2053SOL    HW2 6480   3.697   5.105   1.962 -0.3076 -0.7481 -0.1766
 2054SOL     OW 6481   2.519   1.074   0.925 -0.4432 -0.2264 -1.0110
 2054SOL    HW1 6482   2.455   1.001   0.902 -0.8880 -0.0513 -0.3628
 2054SOL    HW2 6483   2.487   1.121   1.007  1.2044 -0.9701  0.1067
 2055SOL     OW 6484   3.395   1.515   5.525 -0.0895 -0.4543 -0.4590
 2055SOL    HW1 6485   3.395   1.610   5.492  0.3453 -0.7444 -1.3123
 2055SOL    HW2 6486   3.309   1.471   5.499 -1.8068  0.6294  2.7808
 2056SOL     OW 6487   1.616   0.297   1.295 -0.1298  0.2503 -0.0541
 2056SOL    HW1 6488   1.571   0.280   1.383 -1.3407  0.0180 -0.7000
 2056SOL    HW2 6489   1.714   0.277   1.303 -0.0426  1.1139  1.4863
 2057SOL     OW 6490   2.694   1.199   1.138 -0.6253 -0.1968  0.1813
 2057SOL    HW1 6491   2.713   1.134   1.064 -2.2717  0.9296 -1.3337
 2057SOL    HW2 6492   2.650   1.152   1.214  1.9944 -1.5680  0.9482
 2058SOL     OW 6493   1.278   5.180   2.628  0.1759 -0.3913 -0.0974
 2058SOL    HW1 6494   1.196   5.124   2.619  0.0183 -0.1688 -0.0554
 2058SOL    HW2 6495   1.349   5.128   2.676 -0.2604 -0.2570  0.7097
 2059SOL     OW 6496   1.124   0.848   1.281  0.6325  0.2412 -0.1586
 2059SOL    HW1 6497   1.203   0.852   1.342  0.2218  0.5208  0.3661
 2059SOL    HW2 6498   1.130   0.921   1.213  1.1055 -0.0865 -0.4737
 2060SOL     OW 6499   1.607   5.428   1.710 -0.1479 -0.2399 -0.6622
 2060SOL    HW1 6500   1.616   5.432   1.810 -0.6934  0.4110 -0.6273
 2060SOL    HW2 6501   1.669   5.496   1.669 -0.1712 -0.2720 -0.7495
 2061SOL     OW 6502   2.397   1.740   1.381 -0.0493 -0.0343 -0.0028
 2061SOL    HW1 6503   2.310   1.706   1.346 -0.2161  0.6408 -0.2645
 2061SOL    HW2 6504   2.423   1.823   1.332  0.8484 -0.3343 -0.0697
 2062SOL     OW 6505   3.363   1.717   5.300  0.8919  0.1903 -0.3318
 2062SOL    HW1 6506   3.304   1.638   5.281  1.0058  0.2752 -1.0470
 2062SOL    HW2 6507   3.319   1.800   5.266  1.1806  0.3225 -0.3807
 2063SOL     OW 6508   4.502   0.106   1.725 -0.2209  0.0210  0.0530
 2063SOL    HW1 6509   4.519   0.203   1.738  0.1726  0.3389 -2.4247
 2063SOL    HW2 6510   4.574   0.067   1.667 -1.5221 -1.2669 -0.7664
 2064SOL     OW 6511   1.509   1.965   0.767  0.3796  0.0732  0.6276
 2064SOL    HW1 6512   1.534   1.870   0.784 -0.7596 -0.5243 -0.8622
 2064SOL    HW2 6513   1.425   1.968   0.713  1.4359  1.8777 -1.0503
 2065SOL     OW 6514   3.522   5.155   2.426  0.3745  0.0299 -0.0889
 2065SOL    HW1 6515   3.525   5.220   2.502  1.1117  1.3138 -1.1791
 2065SOL    HW2 6516   3.426   5.137   2.402  0.1587  0.6143  0.3130
 2066SOL     OW 6517   4.047   0.926   1.997 -0.1190 -0.2693 -0.6077
 2066SOL    HW1 6518   4.090   0.957   2.082  0.5788 -2.4421 -0.0968
 2066SOL    HW2 6519   4.072   0.987   1.922  0.0101  1.1669  0.5500
 2067SOL     OW 6520   2.692   0.270   4.940  0.4431  0.3758  0.0880
 2067SOL    HW1 6521   2.634   0.258   4.860  0.4001 -1.1293  0.3072
 2067SOL    HW2 6522   2.785   0.293   4.911  0.3441  0.1994 -0.3758
 2068SOL     OW 6523   1.575   0.656   1.867  0.2019  0.2314  0.1781
 2068SOL    HW1 6524   1.586   0.609   1.955 -0.6456  0.3689  0.3669
 2068SOL    HW2 6525   1.547   0.751   1.884 -0.2092  0.1853 -0.2432
 2069SOL     OW 6526   4.927   0.383   2.255  0.1605 -0.1952  0.1513
 2069SOL    HW1 6527   4.906   0.468   2.206  0.1481 -1.1760 -1.6377
 2069SOL    HW2 6528   4.842   0.333   2.272 -0.1178  1.0932  3.1904
 2070SOL     OW 6529   3.973   1.594   4.447  0.5547  0.0089 -0.6223
 2070SOL    HW1 6530   4.067   1.613   4.475  0.8537 -0.3408 -1.3757
 2070SOL    HW2 6531   3.910   1.629   4.517  1.2635 -0.5154  0.2898
 2071SOL     OW 6532   3.718   1.787   0.741  0.4651 -0.4099  0.4889
 2071SOL    HW1 6533   3.719   1.810   0.644  1.7787  0.1129  0.6060
 2071SOL    HW2 6534   3.649   1.717   0.758 -0.4673  0.2017 -0.6447
 2072SOL     OW 6535   3.813   1.728   1.920 -0.2395  0.3041 -0.2475
 2072SOL    HW1 6536   3.804   1.697   2.014 -0.2624  0.3954 -0.2191
 2072SOL    HW2 6537   3.765   1.666   1.859  0.0510  0.0626 -0.2338
 2073SOL     OW 6538   1.826   0.381   1.035  0.2565 -0.7233 -0.5724
 2073SOL    HW1 6539   1.891   0.306   1.018  0.2955 -0.7692 -0.2440
 2073SOL    HW2 6540   1.877   0.465   1.055  0.2148 -0.7119 -0.5129
 2074SOL     OW 6541   1.550   1.906   1.232 -0.2677  0.2580  0.4133
 2074SOL    HW1 6542   1.533   1.959   1.149 -0.0999  0.5477  0.5630
 2074SOL    HW2 6543   1.637   1.858   1.224 -0.4262 -0.0126  0.2720
 2075SOL     OW 6544   2.956   5.599   0.164  0.3436 -0.3835  0.4921
 2075SOL    HW1 6545   2.905   5.621   0.081  0.1957 -2.4741 -0.0442
 2075SOL    HW2 6546   3.019   5.524   0.144  0.2861 -0.9391  2.2785
 2076SOL     OW 6547   2.706   0.461   1.349  0.0315 -0.3599 -0.0149
 2076SOL    HW1 6548   2.775   0.389   1.338  1.1265  0.8015 -0.9620
 2076SOL    HW2 6549   2.645   0.460   1.270  0.5672  0.2805 -0.4443
 2077SOL     OW 6550   4.077   1.496   5.570  0.5264  0.7093 -0.2271
 2077SOL    HW1 6551   4.146   1.486   5.498 -0.1002  3.2327 -1.2690
 2077SOL    HW2 6552   4.074   1.591   5.600 -2.9147  0.8417 -0.6718
 2078SOL     OW 6553   1.747   1.531   1.376  0.1290 -0.0150  0.1599
 2078SOL    HW1 6554   1.666   1.553   1.430  0.6357  0.3842  0.7893
 2078SOL    HW2 6555   1.761   1.601   1.306  1.1217  1.1437  1.4515
 2079SOL     OW 6556   2.512   0.745   2.000 -0.7120  0.0010  0.1441
 2079SOL    HW1 6557   2.491   0.775   2.093  0.4065  1.8308 -0.1355
 2079SOL    HW2 6558   2.439   0.773   1.938  0.1090  1.8442 -0.0376
 2080SOL     OW 6559   2.461   1.350   0.184  0.3060  0.2572 -0.1982
 2080SOL    HW1 6560   2.510   1.369   0.099 -1.5539  0.1820 -1.3631
 2080SOL    HW2 6561   2.525   1.321   0.254  1.7943 -0.7394 -1.8889
 2081SOL     OW 6562   2.396   1.706   0.775  0.1630 -0.0286 -0.0571
 2081SOL    HW1 6563   2.324   1.681   0.710  0.3974 -0.1147 -0.2888
 2081SOL    HW2 6564   2.448   1.783   0.738 -0.4023  0.6432  0.5436
 2082SOL     OW 6565   4.175   3.441   1.420  0.0831  0.5737  0.5883
 2082SOL    HW1 6566   4.111   3.462   1.347 -1.6030  0.2752  1.9296
 2082SOL    HW2 6567   4.219   3.353   1.401 -0.9134  0.1273  0.3187
 2083SOL     OW 6568   4.076   0.240   1.820  0.0843 -0.5309 -0.4701
 2083SOL    HW1 6569   3.978   0.242   1.799  0.3346 -0.2666 -1.6852
 2083SOL    HW2 6570   4.093   0.177   1.895 -1.1160  0.0339  0.2969
 2084SOL     OW 6571   2.401   0.675   0.372  0.2905 -0.5110  0.2721
 2084SOL    HW1 6572   2.497   0.705   0.370  0.5055 -1.2136 -1.1910
 2084SOL    HW2 6573   2.398   0.576   0.391  0.0478 -1.0142 -2.0386
 2085SOL     OW 6574   4.694   1.115   5.039 -0.0595  0.2585  0.9539
 2085SOL    HW1 6575   4.765   1.169   4.994  0.2834 -1.1654 -0.3088
 2085SOL    HW2 6576   4.680   1.148   5.132  0.1001  2.5021  0.2299
 2086SOL     OW 6577   3.367   1.557   2.276 -0.2467 -0.4105  0.0983
 2086SOL    HW1 6578   3.435   1.496   2.319 -0.2220 -0.1314  0.4593
 2086SOL    HW2 6579   3.322   1.612   2.346 -0.5264 -0.2663 -0.1897
 2087SOL     OW 6580   3.528   1.858   0.247  0.3531  0.2957  0.3971
 2087SOL    HW1 6581   3.534   1.838   0.149 -0.5552  0.6808  0.2556
 2087SOL    HW2 6582   3.496   1.951   0.260  1.2232  0.5129  1.0727
 2088SOL     OW 6583   4.670   2.442   4.695  0.1350  0.6517 -1.0365
 2088SOL    HW1 6584   4.661   2.386   4.613  0.2820  0.5148 -0.9574
 2088SOL    HW2 6585   4.738   2.402   4.757 -1.4665 -0.4071  0.1163
 2089SOL     OW 6586   2.090   1.287   1.223  0.0702  0.1845  0.4339
 2089SOL    HW1 6587   2.105   1.220   1.296  0.5219 -0.6614 -0.4096
 2089SOL    HW2 6588   2.175   1.300   1.173 -0.3265  0.5031 -0.1611
 2090SOL     OW 6589   4.081   1.365   5.207 -0.2354 -0.0036  0.3249
 2090SOL    HW1 6590   4.095   1.462   5.227 -0.5219 -0.0927  0.9865
 2090SOL    HW2 6591   3.986   1.341   5.224 -0.6247  0.0034 -1.6193
 2091SOL     OW 6592   4.362   0.244   2.427  0.0639 -0.4244 -0.2032
 2091SOL    HW1 6593   4.330   0.265   2.334 -0.0041 -1.3015 -0.3888
 2091SOL    HW2 6594   4.369   0.145   2.438  1.1983 -0.2982  0.3515
 2092SOL     OW 6595   2.549   1.283   2.626 -0.2887 -0.0540 -0.4351
 2092SOL    HW1 6596   2.483   1.356   2.610  1.1902  1.2380 -0.9189
 2092SOL    HW2 6597   2.596   1.299   2.714 -0.2005 -0.6166 -0.3777
 2093SOL     OW 6598   2.173   0.970   1.066 -0.1531  0.3215 -0.0695
 2093SOL    HW1 6599   2.134   0.916   1.140  0.5806  0.3434  0.3415
 2093SOL    HW2 6600   2.100   1.016   1.016 -0.7230 -0.4255  0.0635
 2094SOL     OW 6601   2.856   0.239   1.320 -0.2029  0.2860  0.1774
 2094SOL    HW1 6602   2.931   0.238   1.253 -0.0504  1.2131  0.3203
 2094SOL    HW2 6603   2.879   0.180   1.397  0.0530 -0.0194 -0.1292
 2095SOL     OW 6604   2.509   1.798   5.241  0.1741  0.0997  0.3130
 2095SOL    HW1 6605   2.480   1.791   5.337  2.2134 -1.3689  0.8845
 2095SOL    HW2 6606   2.502   1.708   5.198  2.8126 -0.1571  0.2401
 2096SOL     OW 6607   2.150   0.925   2.045 -0.2637  0.1966 -0.1962
 2096SOL    HW1 6608   2.065   0.923   1.994  1.2945 -3.2033 -3.1347
 2096SOL    HW2 6609   2.227   0.914   1.982  2.5049  3.2068  2.2795
 2097SOL     OW 6610   2.784   5.342   0.844  0.3821 -0.3897 -0.2989
 2097SOL    HW1 6611   2.787   5.358   0.942  0.7801 -1.7901 -0.0570
 2097SOL    HW2 6612   2.791   5.244   0.826  1.8011 -0.0597 -1.7820
 2098SOL     OW 6613   1.819   5.486   0.194  0.1084 -0.6897 -0.0808
 2098SOL    HW1 6614   1.791   5.522   0.283  0.3690 -2.0969  0.5963
 2098SOL    HW2 6615   1.885   5.548   0.152  0.4998 -0.3304  1.0222
 2099SOL     OW 6616   2.529   1.288   0.754  0.4513  0.1581 -0.2292
 2099SOL    HW1 6617   2.465   1.340   0.810  0.2252  0.0916 -0.4268
 2099SOL    HW2 6618   2.569   1.215   0.809  2.5215  1.9137  0.7545
 2100SOL     OW 6619   2.183   5.062   0.544 -0.0917 -0.2605  0.1220
 2100SOL    HW1 6620   2.282   5.063   0.562 -0.4128  0.1862  2.0181
 2100SOL    HW2 6621   2.164   5.116   0.461  1.1651  0.3589  0.2095
 2101SOL     OW 6622   4.767   2.800   0.490  0.2875  0.4412  0.5128
 2101SOL    HW1 6623   4.736   2.783   0.583 -0.1018 -1.9692  0.0237
 2101SOL    HW2 6624   4.801   2.714   0.450  0.6295  1.4482 -1.4928
 2102SOL     OW 6625   1.865   0.806   2.315  0.0220  0.2499  0.3096
 2102SOL    HW1 6626   1.959   0.774   2.305 -0.0295  0.3634 -0.6222
 2102SOL    HW2 6627   1.865   0.900   2.350  0.2455  0.1690  0.5284
 2103SOL     OW 6628   3.995   1.746   0.169  0.3838 -0.1801 -0.3606
 2103SOL    HW1 6629   4.033   1.733   0.261  0.0640  0.1045 -0.1884
 2103SOL    HW2 6630   3.979   1.843   0.153 -2.8126 -0.4178  0.6165
 2104SOL     OW 6631   1.973   2.213   1.884 -0.0248  0.2253  0.7590
 2104SOL    HW1 6632   1.884   2.187   1.920  0.0134 -0.3464  0.4543
 2104SOL    HW2 6633   2.041   2.210   1.956  0.1550 -1.4211  0.5535
 2105SOL     OW 6634   3.089   1.814   2.967 -0.5995 -0.0647 -0.5245
 2105SOL    HW1 6635   3.042   1.753   3.032  0.9038 -1.5479 -0.7619
 2105SOL    HW2 6636   3.099   1.766   2.880  0.1173  0.7549 -0.8963
 2106SOL     OW 6637   2.118   2.446   2.236  0.6233  0.4639  0.1874
 2106SOL    HW1 6638   2.204   2.468   2.190  0.2871 -0.2066 -0.7800
 2106SOL    HW2 6639   2.131   2.454   2.335  2.2791 -1.2017  0.1648
 2107SOL     OW 6640   3.947   4.823   1.517  0.0443  0.2113  0.5279
 2107SOL    HW1 6641   3.976   4.914   1.548 -0.4623  0.4906  0.2042
 2107SOL    HW2 6642   3.912   4.829   1.424 -0.6796 -0.1771  0.7627
 2108SOL     OW 6643   2.459   0.045   1.907  0.0425  0.2716  0.1273
 2108SOL    HW1 6644   2.507   0.037   1.820 -1.9066  0.2238 -0.9925
 2108SOL    HW2 6645   2.526   0.056   1.981  1.7704 -0.4828 -1.2524
 2109SOL     OW 6646   3.235   1.098  -0.009 -0.0151 -0.2838 -0.1172
 2109SOL    HW1 6647   3.240   1.099   0.091  0.9273 -1.6370 -0.1260
 2109SOL    HW2 6648   3.319   1.134  -0.048  0.4423 -1.5983 -0.3947
 2110SOL     OW 6649   2.391   1.132   2.092  0.1842  0.4342 -0.5301
 2110SOL    HW1 6650   2.395   1.040   2.131 -0.4560 -0.1241 -1.7325
 2110SOL    HW2 6651   2.404   1.199   2.164  2.4456 -0.6100  0.1487
 2111SOL     OW 6652   1.813   1.756   1.247  0.1306 -0.3946  0.4865
 2111SOL    HW1 6653   1.850   1.832   1.300  2.2529 -0.9014 -0.1672
 2111SOL    HW2 6654   1.853   1.758   1.155 -0.3860 -1.8643  0.2140
 2112SOL     OW 6655   4.030   1.988   5.360 -0.4081  0.1566  0.0287
 2112SOL    HW1 6656   4.019   1.889   5.364 -0.4596  0.2029  1.1026
 2112SOL    HW2 6657   3.949   2.029   5.319 -0.7652 -0.1741  0.4040
 2113SOL     OW 6658   2.248   1.777   0.275 -0.1245 -0.3822  0.2625
 2113SOL    HW1 6659   2.170   1.729   0.234  0.3620 -1.0098  0.0539
 2113SOL    HW2 6660   2.330   1.757   0.222  0.0967  0.6744  0.1930
 2114SOL     OW 6661   2.016   1.401   0.771  0.3326 -0.2456  0.0061
 2114SOL    HW1 6662   2.053   1.444   0.854 -1.0893  0.1646  0.4517
 2114SOL    HW2 6663   2.015   1.302   0.782  0.7430 -0.2288  0.2196
 2115SOL     OW 6664   3.410   2.040   0.855 -0.0516  0.7091  0.2468
 2115SOL    HW1 6665   3.386   1.970   0.787 -1.3388 -0.8196  2.1433
 2115SOL    HW2 6666   3.502   2.021   0.891 -0.5781 -0.3462  1.0884
 2116SOL     OW 6667   3.300   1.351   0.598  0.1596 -0.9199 -0.0986
 2116SOL    HW1 6668   3.347   1.308   0.675  0.9901 -0.2478 -0.2188
 2116SOL    HW2 6669   3.265   1.440   0.625 -1.0191 -1.3823 -0.0329
 2117SOL     OW 6670   1.704   1.740   2.260 -0.2889  0.4397  0.1143
 2117SOL    HW1 6671   1.750   1.784   2.337 -0.2252 -1.1323  1.0203
 2117SOL    HW2 6672   1.749   1.653   2.240 -1.4347 -0.0335 -0.5038
 2118SOL     OW 6673   1.078   0.268   2.104 -0.1074 -0.2145  0.5113
 2118SOL    HW1 6674   1.015   0.314   2.042  0.2127 -0.8489 -0.3004
 2118SOL    HW2 6675   1.142   0.213   2.051 -0.1576 -1.1864  1.4434
 2119SOL     OW 6676   0.772   2.868   2.326  0.9037 -0.1193 -0.3547
 2119SOL    HW1 6677   0.698   2.849   2.391  0.1329  0.8840 -0.9015
 2119SOL    HW2 6678   0.844   2.799   2.336 -0.4187 -1.5358 -0.2843
 2120SOL     OW 6679   3.887   0.470   1.229 -0.0676  0.6662  0.0932
 2120SOL    HW1 6680   3.794   0.453   1.260 -0.3651  0.4621 -0.8659
 2120SOL    HW2 6681   3.898   0.434   1.136  1.5985 -1.3595  0.9894
 2121SOL     OW 6682   2.256   0.684   1.569  0.3349  0.8741  0.3538
 2121SOL    HW1 6683   2.231   0.619   1.640  0.6507  0.4176  0.0569
 2121SOL    HW2 6684   2.349   0.664   1.537 -0.4978 -0.2134 -1.5772
 2122SOL     OW 6685   5.381   5.476   0.852 -0.2447 -0.3967 -0.3772
 2122SOL    HW1 6686   5.424   5.481   0.942 -0.1178 -0.5365 -0.4309
 2122SOL    HW2 6687   5.432   5.413   0.793 -0.0915  0.0072 -0.6812
 2123SOL     OW 6688   2.679   5.472   1.505  0.2792  0.0296 -0.1670
 2123SOL    HW1 6689   2.635   5.430   1.426  1.1702 -0.6771 -0.3090
 2123SOL    HW2 6690   2.699   5.401   1.573  2.2248  0.0938 -0.6002
 2124SOL     OW 6691   2.227   1.110   0.682 -0.4174  0.3408  0.1277
 2124SOL    HW1 6692   2.291   1.182   0.710  1.5423 -1.4656  0.5230
 2124SOL    HW2 6693   2.236   1.094   0.583  0.0844 -0.2154  0.2597
 2125SOL     OW 6694   4.341   0.668   1.809  0.3371  0.3569 -0.1660
 2125SOL    HW1 6695   4.360   0.604   1.884  0.9179  0.6612 -0.0429
 2125SOL    HW2 6696   4.262   0.636   1.757  0.3566 -0.2307  0.1522
 2126SOL     OW 6697   3.082   1.533   2.140  1.1060 -0.2462  0.2290
 2126SOL    HW1 6698   3.130   1.580   2.215  0.8643  0.3002  0.0442
 2126SOL    HW2 6699   3.086   1.589   2.058 -0.0304 -0.0965  0.2622
 2127SOL     OW 6700   3.457   1.168   0.461  0.0432  0.0448 -0.0032
 2127SOL    HW1 6701   3.501   1.115   0.533  0.1933  0.6547  0.3531
 2127SOL    HW2 6702   3.414   1.250   0.500  1.8168  1.4376 -0.8525
 2128SOL     OW 6703   1.346   0.460   1.805  0.1562 -0.7805  0.7695
 2128SOL    HW1 6704   1.442   0.471   1.830  0.3945 -2.5651  0.7630
 2128SOL    HW2 6705   1.339   0.442   1.706 -0.3612  1.0533  0.4210
 2129SOL     OW 6706   3.308   0.076   0.252  0.3754  0.1869 -0.5722
 2129SOL    HW1 6707   3.330  -0.010   0.206 -0.1212  0.5084 -1.4448
 2129SOL    HW2 6708   3.257   0.058   0.335  2.1210 -0.4652  0.4078
 2130SOL     OW 6709   4.086   1.673   1.852 -0.1361  0.3414  1.0605
 2130SOL    HW1 6710   3.988   1.686   1.870 -0.5185 -0.6971 -0.1135
 2130SOL    HW2 6711   4.102   1.677   1.753  0.7190 -1.2244  1.1089
 2131SOL     OW 6712   2.475   5.130   1.543 -0.3051 -0.2744 -0.3371
 2131SOL    HW1 6713   2.538   5.100   1.614  0.4136 -0.9899 -1.2542
 2131SOL    HW2 6714   2.503   5.093   1.455 -0.4176  1.6293 -1.2303
 2132SOL     OW 6715   2.548   0.412   5.552  0.2531  0.2702 -0.2145
 2132SOL    HW1 6716   2.482   0.452   5.488 -0.0696 -0.8368 -0.6122
 2132SOL    HW2 6717   2.589   0.331   5.510  0.7626  0.0896  0.6144
 2133SOL     OW 6718   2.603   5.500   0.726  0.2860 -0.1242 -0.0793
 2133SOL    HW1 6719   2.670   5.436   0.763 -0.2118  0.0395  1.1489
 2133SOL    HW2 6720   2.511   5.469   0.748 -0.1238 -0.8343 -2.5491
 2134SOL     OW 6721   1.717   0.307   2.224  0.3925  0.0203 -0.3532
 2134SOL    HW1 6722   1.646   0.244   2.254  1.3187 -0.3261  1.2312
 2134SOL    HW2 6723   1.800   0.256   2.201  1.6792  0.6045  2.4418
 2135SOL     OW 6724   1.595   0.859   3.062  0.4168  0.0292  0.1063
 2135SOL    HW1 6725   1.628   0.872   3.156 -0.0085  1.0988  0.1249
 2135SOL    HW2 6726   1.646   0.919   3.001  0.6883 -0.6645 -0.3510
 2136SOL     OW 6727   2.956   0.077   2.915 -0.2666  0.1748  0.1523
 2136SOL    HW1 6728   3.021   0.031   2.977 -0.0454 -0.4752 -0.5466
 2136SOL    HW2 6729   2.863   0.062   2.947 -0.0798  1.5158  1.4376
 2137SOL     OW 6730   3.248   1.258   2.484  0.2095 -0.3523 -0.2837
 2137SOL    HW1 6731   3.315   1.296   2.421  0.6547 -2.4871 -1.1588
 2137SOL    HW2 6732   3.267   1.161   2.499 -1.3106 -0.4556  1.2925
 2138SOL     OW 6733   3.572   1.037   3.553  0.0512  0.1209  0.2920
 2138SOL    HW1 6734   3.571   1.080   3.462  0.8213  0.3229  0.3785
 2138SOL    HW2 6735   3.595   0.940   3.543  0.1656  0.1497  0.2750
 2139SOL     OW 6736   1.524   5.064   2.748  0.1913  0.0555  0.5284
 2139SOL    HW1 6737   1.511   5.051   2.846 -0.2936 -0.4476  0.4040
 2139SOL    HW2 6738   1.594   5.000   2.715 -0.7869 -0.9055  0.2684
 2140SOL     OW 6739   2.123   0.736   2.272  0.2914  0.0576  0.3335
 2140SOL    HW1 6740   2.214   0.734   2.313  0.6696 -0.9719 -0.4923
 2140SOL    HW2 6741   2.125   0.794   2.190 -0.0122  0.6884  0.7652
 2141SOL     OW 6742   2.186   1.543   3.593 -0.2573  0.6715  0.2661
 2141SOL    HW1 6743   2.264   1.554   3.655  0.6313  0.8722 -0.8533
 2141SOL    HW2 6744   2.152   1.449   3.599  2.2868 -0.5215 -1.6737
 2142SOL     OW 6745   1.191   0.921   3.943  0.0274  0.0620  0.1766
 2142SOL    HW1 6746   1.268   0.967   3.986  1.9418 -0.6992 -2.1916
 2142SOL    HW2 6747   1.107   0.970   3.964  1.4674  2.4141  0.8145
 2143SOL     OW 6748   1.973   1.255   3.324 -0.3521  0.2516 -0.0863
 2143SOL    HW1 6749   1.917   1.198   3.384  0.8574 -0.2057  0.6416
 2143SOL    HW2 6750   2.069   1.228   3.332 -0.0134  1.0022 -1.3203
 2144SOL     OW 6751   2.639   2.035   4.600 -0.1293 -0.1890  0.1327
 2144SOL    HW1 6752   2.639   1.949   4.548 -0.4434 -1.7037  2.5220
 2144SOL    HW2 6753   2.687   2.105   4.547  1.0338 -2.0790 -1.4705
 2145SOL     OW 6754   2.743   1.957   1.448  0.4250 -0.3600  0.2093
 2145SOL    HW1 6755   2.664   1.901   1.470  0.0011  0.6196  1.2872
 2145SOL    HW2 6756   2.827   1.906   1.471  0.0826 -0.9495  0.1790
 2146SOL     OW 6757   2.892   1.280   2.776  0.6918  0.2848 -0.6656
 2146SOL    HW1 6758   2.911   1.218   2.852 -0.0563  2.9525  1.8767
 2146SOL    HW2 6759   2.977   1.325   2.748  0.9260 -0.5167 -1.2756
 2147SOL     OW 6760   2.680   4.669   4.006  0.8769 -0.6254  0.7995
 2147SOL    HW1 6761   2.665   4.753   3.954 -0.8948 -0.1218  2.0273
 2147SOL    HW2 6762   2.723   4.691   4.094  0.4605 -0.9830  1.0993
 2148SOL     OW 6763   3.560   5.411   1.949  0.1038  0.0371  0.1502
 2148SOL    HW1 6764   3.573   5.471   1.870 -0.3695  0.1895  0.1867
 2148SOL    HW2 6765   3.484   5.445   2.004 -1.1054 -1.3627 -0.5758
 2149SOL     OW 6766   2.112   3.357   2.945 -0.2600  0.2853 -0.4405
 2149SOL    HW1 6767   2.048   3.283   2.967 -2.1182  2.2030  0.9304
 2149SOL    HW2 6768   2.178   3.368   3.020 -0.1266  0.1944 -0.5426
 2150SOL     OW 6769   2.956   2.020   2.520  0.2411  0.0462  0.4718
 2150SOL    HW1 6770   3.053   2.021   2.498  0.3046 -3.3112 -0.0317
 2150SOL    HW2 6771   2.943   1.981   2.611 -0.6308 -2.4546 -0.6180
 2151SOL     OW 6772   2.990   1.813   2.072 -0.2866  0.1842  0.1682
 2151SOL    HW1 6773   3.067   1.876   2.078 -0.7324  0.7440  0.0441
 2151SOL    HW2 6774   3.012   1.741   2.006  0.7914 -0.6103  1.3399
 2152SOL     OW 6775   1.413   1.406   2.303 -0.0548 -1.0038  0.2815
 2152SOL    HW1 6776   1.395   1.395   2.400 -1.4412  1.2573  0.3350
 2152SOL    HW2 6777   1.502   1.365   2.280  0.4985 -1.1697  2.5535
 2153SOL     OW 6778   2.087   1.102   2.272 -0.2281 -0.3320 -0.1395
 2153SOL    HW1 6779   2.119   1.042   2.198 -1.9122 -1.5729  0.0908
 2153SOL    HW2 6780   2.119   1.195   2.254  2.6141 -1.2558 -0.4170
 2154SOL     OW 6781   3.522   5.466   4.282  0.2578  0.0412 -0.2025
 2154SOL    HW1 6782   3.516   5.544   4.345 -0.3372 -0.2952  0.1609
 2154SOL    HW2 6783   3.440   5.409   4.291  0.2909 -0.1616 -1.0837
 2155SOL     OW 6784   1.269   1.226   3.207 -0.5364  0.2047 -0.2819
 2155SOL    HW1 6785   1.244   1.274   3.291  1.2388  0.2644  0.2598
 2155SOL    HW2 6786   1.261   1.289   3.130 -0.2580  0.7647  0.1344
 2156SOL     OW 6787   3.501   1.420   2.623  0.4098  0.3166  0.5598
 2156SOL    HW1 6788   3.474   1.365   2.702 -1.4007  0.1009 -0.1610
 2156SOL    HW2 6789   3.506   1.517   2.650 -1.4947  0.4165  0.6812
 2157SOL     OW 6790   1.407   2.549   1.597 -0.5543  0.5719  0.1871
 2157SOL    HW1 6791   1.425   2.525   1.502 -0.5779  2.3361 -0.2903
 2157SOL    HW2 6792   1.490   2.536   1.651 -0.3566  0.2121 -0.1988
 2158SOL     OW 6793   3.090   0.944   3.420  0.3593 -0.0909  0.0800
 2158SOL    HW1 6794   3.066   0.931   3.516  0.3469 -0.1117  0.0742
 2158SOL    HW2 6795   3.105   1.041   3.402  0.9825 -0.1508  0.2475
 2159SOL     OW 6796   2.441   0.843   2.268  0.1289 -0.3646 -0.3080
 2159SOL    HW1 6797   2.492   0.765   2.305 -1.7112 -1.5567 -0.2044
 2159SOL    HW2 6798   2.455   0.923   2.327  0.5086 -1.1244  0.6515
 2160SOL     OW 6799   2.502   5.477   3.297 -0.2923  0.2355  0.2796
 2160SOL    HW1 6800   2.562   5.423   3.238 -1.0186  2.4199 -2.7105
 2160SOL    HW2 6801   2.556   5.548   3.343 -0.0866  0.2200  0.0691
 2161SOL     OW 6802   2.341   1.674   2.166 -0.0055 -0.2131  0.1651
 2161SOL    HW1 6803   2.337   1.595   2.103 -0.7335 -0.8286  0.9618
 2161SOL    HW2 6804   2.250   1.711   2.178  0.2500  0.3827  0.2746
 2162SOL     OW 6805   2.943   0.512   2.513  0.0283 -0.2189 -0.2703
 2162SOL    HW1 6806   2.896   0.493   2.427 -1.6452  0.8223  0.3618
 2162SOL    HW2 6807   2.934   0.433   2.574 -0.2053 -0.3355 -0.4544
 2163SOL     OW 6808   2.230   0.613   2.960  0.0293  0.4517  0.6244
 2163SOL    HW1 6809   2.210   0.532   3.014 -0.0249  0.5830  0.8031
 2163SOL    HW2 6810   2.328   0.629   2.958  0.0037  0.6646  1.0048
 2164SOL     OW 6811   1.820   0.758   4.357  0.4687 -0.6291 -0.0561
 2164SOL    HW1 6812   1.767   0.673   4.357  0.1389 -0.4250 -0.4220
 2164SOL    HW2 6813   1.759   0.836   4.371  0.6914 -0.4043 -0.3227
 2165SOL     OW 6814   3.963   5.572   3.429  0.5958  0.4709 -0.2004
 2165SOL    HW1 6815   4.028   5.512   3.474 -0.9283 -2.0939 -1.1955
 2165SOL    HW2 6816   3.898   5.607   3.496 -0.3216 -1.5331  0.0445
 2166SOL     OW 6817   2.977   1.419   3.756 -0.3137  0.2837  0.2844
 2166SOL    HW1 6818   3.028   1.338   3.783 -0.0579  0.4127  0.1944
 2166SOL    HW2 6819   2.986   1.433   3.657 -0.3654  0.4161  0.2973
 2167SOL     OW 6820   0.954   0.698   3.010  0.1663 -0.7878 -0.2661
 2167SOL    HW1 6821   0.955   0.765   2.936  1.0411 -1.3808 -0.8086
 2167SOL    HW2 6822   1.037   0.707   3.065 -0.1153 -0.8583  0.1739
 2168SOL     OW 6823   2.775   0.860   2.801  0.5238 -0.2238  0.2107
 2168SOL    HW1 6824   2.752   0.934   2.737  1.9663  0.1914  0.1423
 2168SOL    HW2 6825   2.707   0.857   2.874 -1.2620 -0.8110 -1.4015
 2169SOL     OW 6826   4.336   3.047   2.450 -0.9690  0.4143 -0.0301
 2169SOL    HW1 6827   4.436   3.045   2.444 -1.0057 -2.5998 -1.6570
 2169SOL    HW2 6828   4.300   3.104   2.376 -0.4503 -1.0609 -1.4790
 2170SOL     OW 6829   2.840   1.134   2.050  0.3968  0.1995  0.6003
 2170SOL    HW1 6830   2.875   1.048   2.015 -0.1117  0.1334  0.2531
 2170SOL    HW2 6831   2.908   1.206   2.037  1.0237 -0.2501  1.3495
 2171SOL     OW 6832   2.481   0.648   2.991  0.0419 -0.4451  0.1581
 2171SOL    HW1 6833   2.510   0.742   3.008  1.1176 -0.3000 -2.1777
 2171SOL    HW2 6834   2.553   0.585   3.018  0.4055 -0.4121 -0.7013
 2172SOL     OW 6835   2.885   1.308   3.273  0.2690 -0.1293 -0.2388
 2172SOL    HW1 6836   2.930   1.327   3.361  0.1019 -1.6492  0.2135
 2172SOL    HW2 6837   2.937   1.349   3.199  0.3277  1.3236  0.5744
 2173SOL     OW 6838   1.297   1.013   3.434 -0.5096 -0.3465  0.0969
 2173SOL    HW1 6839   1.329   0.930   3.480  2.0281  0.5284  0.0865
 2173SOL    HW2 6840   1.376   1.062   3.395 -2.2099  0.6416 -2.3659
 2174SOL     OW 6841   3.309   0.232   4.715  0.0013  0.1065 -0.6184
 2174SOL    HW1 6842   3.346   0.219   4.623 -1.2925 -1.4849 -0.9479
 2174SOL    HW2 6843   3.258   0.151   4.743 -2.2918  1.7616  0.2813
 2175SOL     OW 6844   3.186   0.790   3.732  0.5926 -0.0377  0.1430
 2175SOL    HW1 6845   3.257   0.728   3.764  1.3810 -0.1637 -1.7137
 2175SOL    HW2 6846   3.228   0.871   3.691 -0.3026 -0.2703 -1.3029
 2176SOL     OW 6847   1.063   1.534   2.351  0.2404 -0.4327 -0.1644
 2176SOL    HW1 6848   1.088   1.619   2.307 -0.9380  0.2447  0.4062
 2176SOL    HW2 6849   1.099   1.532   2.444 -0.5509 -0.1011  0.1601
 2177SOL     OW 6850   3.427   0.565   1.971 -0.3268  0.1679 -0.0416
 2177SOL    HW1 6851   3.467   0.561   1.879 -0.6618 -1.2474 -0.1478
 2177SOL    HW2 6852   3.380   0.652   1.982 -0.3937  0.3139 -1.2629
 2178SOL     OW 6853   1.560   1.270   3.094  0.1700  0.0292 -0.1722
 2178SOL    HW1 6854   1.645   1.279   3.041  0.5636 -1.1389  0.2292
 2178SOL    HW2 6855   1.483   1.302   3.038  0.8085  0.6767 -0.7110
 2179SOL     OW 6856   2.709   1.647   4.153 -0.2153  0.6255  0.0636
 2179SOL    HW1 6857   2.652   1.729   4.150 -0.5783  0.3656 -0.1383
 2179SOL    HW2 6858   2.722   1.612   4.061  0.6905  0.9623  0.0489
 2180SOL     OW 6859   1.733   0.880   3.299  0.3421  0.8192  0.0947
 2180SOL    HW1 6860   1.686   0.861   3.385 -1.0915 -0.5511 -0.9373
 2180SOL    HW2 6861   1.830   0.858   3.308 -0.2049 -1.6774  0.7080
 2181SOL     OW 6862   3.255   1.021   4.385  0.1313  0.0169  0.2307
 2181SOL    HW1 6863   3.307   1.079   4.323 -1.0834  0.7433 -0.1473
 2181SOL    HW2 6864   3.223   1.075   4.463 -0.6017 -0.2537  0.1239
 2182SOL     OW 6865   3.604   1.185   1.507 -0.3690 -0.1006  0.7786
 2182SOL    HW1 6866   3.620   1.188   1.606  0.2407  0.5724  0.6659
 2182SOL    HW2 6867   3.506   1.196   1.489 -0.7139 -1.8759  1.3675
 2183SOL     OW 6868   2.679   4.577   2.511  0.2979  0.2415  0.0187
 2183SOL    HW1 6869   2.591   4.615   2.482 -0.7464 -1.9922  0.0312
 2183SOL    HW2 6870   2.689   4.587   2.610 -0.6056 -0.7077  0.2226
 2184SOL     OW 6871   3.031   1.723   3.684 -0.1824  0.2153 -0.1451
 2184SOL    HW1 6872   2.958   1.760   3.741  0.4676  0.1582  0.7515
 2184SOL    HW2 6873   3.106   1.693   3.742  0.4482  0.0299 -1.0345
 2185SOL     OW 6874   1.514   1.522   1.525 -0.1306  0.4237  0.0528
 2185SOL    HW1 6875   1.553   1.588   1.589 -0.3541 -0.4459  1.1201
 2185SOL    HW2 6876   1.415   1.516   1.539 -0.2575  0.5753 -0.7201
 2186SOL     OW 6877   3.002   4.999   4.881  0.1088 -0.5795 -0.4181
 2186SOL    HW1 6878   2.912   5.043   4.874 -0.2104 -1.3989 -2.0777
 2186SOL    HW2 6879   3.072   5.069   4.893 -0.6232  0.1841 -0.4626
 2187SOL     OW 6880   2.518   1.804   3.989 -0.0571  0.2571  0.2254
 2187SOL    HW1 6881   2.465   1.817   4.072 -0.0884  0.7879  0.1242
 2187SOL    HW2 6882   2.545   1.893   3.952 -0.0286  0.0248 -0.3217
 2188SOL     OW 6883   1.035   0.467   2.881 -0.3121  0.2052 -0.2587
 2188SOL    HW1 6884   1.018   0.555   2.926 -0.0190  0.8539 -1.3957
 2188SOL    HW2 6885   1.079   0.482   2.792  0.3331 -1.1215 -0.1964
 2189SOL     OW 6886   3.559   5.553   3.011 -0.4506 -0.1739  0.2149
 2189SOL    HW1 6887   3.580   5.630   2.950 -0.5141  0.4997  1.0148
 2189SOL    HW2 6888   3.597   5.469   2.973 -1.2182  0.0733 -1.1783
 2190SOL     OW 6889   2.519   1.805   1.626 -0.5058  0.1678 -0.1395
 2190SOL    HW1 6890   2.449   1.815   1.697 -1.0431  1.4154 -0.8102
 2190SOL    HW2 6891   2.495   1.728   1.566 -1.5937  0.8914 -0.6587
 2191SOL     OW 6892   4.072   2.191   1.947 -0.7927 -0.3266 -0.2798
 2191SOL    HW1 6893   4.137   2.211   1.874 -0.9967 -0.4660 -0.5031
 2191SOL    HW2 6894   3.994   2.141   1.909 -2.4753  2.3584 -0.6078
 2192SOL     OW 6895   1.096   0.490   2.623 -0.0103 -0.0349 -0.2593
 2192SOL    HW1 6896   1.176   0.463   2.568  1.0172 -0.2617  1.2955
 2192SOL    HW2 6897   1.017   0.436   2.594  0.8723 -1.2719 -0.4708
 2193SOL     OW 6898   3.943   0.353   2.497  0.5948 -0.0800 -0.6959
 2193SOL    HW1 6899   3.958   0.293   2.576  1.9387 -1.3144 -1.8272
 2193SOL    HW2 6900   4.015   0.422   2.494  0.0637  0.4907 -0.3862
 2194SOL     OW 6901   3.043   2.238   2.083  0.7007  0.5938 -0.2856
 2194SOL    HW1 6902   3.100   2.170   2.129  0.1169  0.8024  0.7777
 2194SOL    HW2 6903   2.948   2.226   2.111 -0.1361 -0.8271 -3.2932
 2195SOL     OW 6904   3.505   1.075   3.032 -0.6059  0.0881  0.1615
 2195SOL    HW1 6905   3.560   1.014   2.974  1.1094  0.0443  1.7472
 2195SOL    HW2 6906   3.565   1.121   3.098 -2.1296  2.0712  0.2591
 2196SOL     OW 6907   2.280   1.644   2.484  0.3075  0.5005  0.5695
 2196SOL    HW1 6908   2.335   1.667   2.404 -0.6413 -0.1274 -0.2768
 2196SOL    HW2 6909   2.338   1.598   2.552  1.0730  0.8727  0.1752
 2197SOL     OW 6910   2.955   1.373   2.392 -0.0692 -0.2089 -0.3756
 2197SOL    HW1 6911   2.978   1.399   2.299 -1.1742  2.3122 -0.0187
 2197SOL    HW2 6912   3.036   1.335   2.437  1.1002  0.6883 -1.6468
 2198SOL     OW 6913   2.471   0.540   3.320 -0.1181  0.2006  0.0660
 2198SOL    HW1 6914   2.464   0.627   3.272  0.2640 -0.2298 -0.7848
 2198SOL    HW2 6915   2.491   0.467   3.255 -1.6684 -0.7423  0.5904
 2199SOL     OW 6916   2.401   4.618   3.949 -0.4161 -0.2128  0.0935
 2199SOL    HW1 6917   2.329   4.687   3.947 -0.2911 -0.0984 -0.7906
 2199SOL    HW2 6918   2.484   4.656   3.989 -0.3430  0.1611 -0.4057
 2200SOL     OW 6919   3.513   5.378   2.628 -0.3942  0.0494  0.6973
 2200SOL    HW1 6920   3.419   5.411   2.630 -0.3096  0.3305  0.1261
 2200SOL    HW2 6921   3.533   5.331   2.714 -1.4192 -1.0406  0.3641
 2201SOL     OW 6922   2.475   0.589   2.619 -0.1327 -0.4891 -0.0181
 2201SOL    HW1 6923   2.379   0.575   2.595  0.0425 -0.6942 -0.5945
 2201SOL    HW2 6924   2.483   0.594   2.719 -0.9504  1.1070 -0.0063
 2202SOL     OW 6925   2.776   1.549   3.882  0.6010 -0.1880 -0.0527
 2202SOL    HW1 6926   2.699   1.492   3.853  0.1062  1.5647 -2.5821
 2202SOL    HW2 6927   2.862   1.505   3.856  0.2651 -0.3636 -0.9039
 2203SOL     OW 6928   2.628   0.218   3.649 -0.4453 -0.5245 -0.4663
 2203SOL    HW1 6929   2.599   0.282   3.720  0.4387  0.3809 -0.8978
 2203SOL    HW2 6930   2.667   0.137   3.692 -0.0233 -0.0406  0.0929
 2204SOL     OW 6931   2.593   1.263   3.393  0.0992 -0.6164 -0.3334
 2204SOL    HW1 6932   2.604   1.176   3.442  0.8002 -0.2005  0.2851
 2204SOL    HW2 6933   2.679   1.284   3.346 -0.1987 -0.4506 -0.7963
 2205SOL     OW 6934   3.011   0.499   2.965  0.0092  0.4024 -1.2553
 2205SOL    HW1 6935   2.936   0.565   2.953 -0.4593 -0.0987 -1.1431
 2205SOL    HW2 6936   3.001   0.425   2.898  0.1866  0.1307 -0.9809
 2206SOL     OW 6937   1.863   0.431   2.470 -0.0034 -0.0577  0.0239
 2206SOL    HW1 6938   1.791   0.427   2.401  0.2643 -0.9869 -0.2209
 2206SOL    HW2 6939   1.951   0.450   2.426 -0.0658  0.9693  0.3093
 2207SOL     OW 6940   3.018   0.464   1.868  0.3327 -0.4918 -0.1496
 2207SOL    HW1 6941   2.978   0.508   1.948 -0.9832  1.4413 -1.7551
 2207SOL    HW2 6942   2.945   0.426   1.811  1.1867 -1.2903 -0.7355
 2208SOL     OW 6943   2.145   5.025   1.682 -0.2939 -0.1009  0.2223
 2208SOL    HW1 6944   2.105   5.065   1.599  1.3893 -0.5221 -0.8464
 2208SOL    HW2 6945   2.161   5.098   1.749  3.2621  1.3230 -1.9006
 2209SOL     OW 6946   2.582   0.915   3.018  0.0037  0.6262 -0.6494
 2209SOL    HW1 6947   2.661   0.935   3.077 -0.1659 -1.1091  0.2281
 2209SOL    HW2 6948   2.530   0.999   3.002  0.5700  1.3195  0.9318
 2210SOL     OW 6949   1.979   0.529   3.180  0.4748 -0.5194 -0.1286
 2210SOL    HW1 6950   2.056   0.469   3.157  1.6369  0.0360  1.9819
 2210SOL    HW2 6951   2.008   0.594   3.251 -1.6530  0.4400 -0.0613
 2211SOL     OW 6952   4.050   2.596   1.497  0.3633  0.0124  0.1490
 2211SOL    HW1 6953   4.075   2.606   1.593  1.3701 -1.3974  0.0438
 2211SOL    HW2 6954   4.126   2.625   1.439 -0.7834  2.4297 -0.3181
 2212SOL     OW 6955   2.393   2.214   2.074 -0.0095  0.1530 -0.2591
 2212SOL    HW1 6956   2.293   2.213   2.079 -0.1274 -2.3316 -1.7980
 2212SOL    HW2 6957   2.422   2.281   2.005 -0.5779  0.9248  0.2315
 2213SOL     OW 6958   3.478   2.258   1.703  0.3857 -0.0032  0.4115
 2213SOL    HW1 6959   3.563   2.310   1.701  0.6166 -0.3908  0.0465
 2213SOL    HW2 6960   3.492   2.169   1.659  1.0518 -1.9886  4.1940
 2214SOL     OW 6961   2.650   1.306   2.886  0.1574 -0.4253 -0.0111
 2214SOL    HW1 6962   2.644   1.369   2.963  0.3827  0.6917 -0.8877
 2214SOL    HW2 6963   2.742   1.310   2.847 -0.2819 -0.1292 -1.0376
 2215SOL     OW 6964   2.547   5.350   4.228 -0.1861 -0.2167 -0.6018
 2215SOL    HW1 6965   2.519   5.262   4.267 -0.1461 -0.2844 -0.7280
 2215SOL    HW2 6966   2.481   5.420   4.255 -1.3903 -0.6762 -2.2544
 2216SOL     OW 6967   1.547   0.854   3.584  0.3066  0.2319  0.1678
 2216SOL    HW1 6968   1.572   0.768   3.627 -1.2044  0.3725  1.4299
 2216SOL    HW2 6969   1.584   0.930   3.638 -1.4581  0.4054  1.2120
 2217SOL     OW 6970   2.345   0.211   2.756 -0.1470  0.4132 -0.5282
 2217SOL    HW1 6971   2.266   0.250   2.710 -0.5514  0.5656  0.2812
 2217SOL    HW2 6972   2.316   0.139   2.819  0.3102  0.7149  0.0409
 2218SOL     OW 6973   2.895   5.559   3.204 -0.4722 -0.1524 -0.2544
 2218SOL    HW1 6974   2.868   5.520   3.292  0.9368  2.0233  1.2531
 2218SOL    HW2 6975   2.813   5.593   3.157 -1.0549  1.1783  1.5696
 2219SOL     OW 6976   4.002   1.368   1.743  0.2282 -0.7067 -0.2669
 2219SOL    HW1 6977   4.044   1.363   1.834 -0.7853 -1.8768  0.1606
 2219SOL    HW2 6978   4.052   1.434   1.687 -0.0013  1.1638  1.6042
 2220SOL     OW 6979   3.490   0.725   3.975  0.1776  0.2345 -0.0067
 2220SOL    HW1 6980   3.431   0.717   4.055 -0.7127  1.2531 -0.5324
 2220SOL    HW2 6981   3.449   0.675   3.898 -0.0064  0.8958 -0.3550
 2221SOL     OW 6982   4.078   1.404   2.776  0.3140  0.0300 -0.5572
 2221SOL    HW1 6983   4.068   1.379   2.679 -0.3398  1.5522 -0.9284
 2221SOL    HW2 6984   3.987   1.421   2.814  0.4370 -2.0614  0.7936
 2222SOL     OW 6985   2.279   1.659   0.513  0.3297 -0.2292 -0.0241
 2222SOL    HW1 6986   2.358   1.597   0.515  0.1578 -0.4618 -0.3462
 2222SOL    HW2 6987   2.275   1.705   0.425 -0.2746 -0.7195 -0.2594
 2223SOL     OW 6988   4.488   1.138   1.209  0.0921  0.5300 -0.2143
 2223SOL    HW1 6989   4.504   1.097   1.299  1.8547 -0.4352 -0.9132
 2223SOL    HW2 6990   4.487   1.066   1.139  0.0831  1.3930 -1.1269
 2224SOL     OW 6991   3.828   0.755   1.915 -0.0556 -0.1895 -0.0144
 2224SOL    HW1 6992   3.816   0.680   1.980 -0.3184  0.8617  1.1817
 2224SOL    HW2 6993   3.906   0.811   1.942 -0.4444  0.5234 -0.3283
 2225SOL     OW 6994   1.815   0.730   2.636  0.1723  0.7350  0.0904
 2225SOL    HW1 6995   1.842   0.766   2.547 -0.8609 -0.4057 -0.7299
 2225SOL    HW2 6996   1.896   0.705   2.689  0.7825  0.0667 -1.1314
 2226SOL     OW 6997   2.756   0.579   3.626 -0.4414  0.4202  0.3220
 2226SOL    HW1 6998   2.831   0.641   3.650  0.4267 -0.2165 -0.6872
 2226SOL    HW2 6999   2.793   0.493   3.591 -1.6418 -0.2544  0.6348
 2227SOL     OW 7000   2.708   1.379   4.829 -0.1789 -0.0955  0.7326
 2227SOL    HW1 7001   2.786   1.359   4.889 -0.7354  0.9742  1.8549
 2227SOL    HW2 7002   2.722   1.468   4.785  0.6985 -1.2968 -1.5788
 2228SOL     OW 7003   3.055   0.574   4.940 -0.0808 -0.1867 -0.0316
 2228SOL    HW1 7004   3.042   0.661   4.892  0.2245  0.0677  0.3358
 2228SOL    HW2 7005   3.112   0.589   5.021 -0.5345 -0.6185  0.3756
 2229SOL     OW 7006   2.031   1.725   2.161 -0.1477  0.0960 -0.1829
 2229SOL    HW1 7007   1.990   1.637   2.185 -2.0392  0.4605 -1.7339
 2229SOL    HW2 7008   2.048   1.727   2.062  1.7255  0.7803  0.1158
 2230SOL     OW 7009   3.693   0.478   3.141 -0.0553 -0.1352 -0.3842
 2230SOL    HW1 7010   3.598   0.453   3.159  0.0078  0.6204  1.2471
 2230SOL    HW2 7011   3.747   0.396   3.124 -0.4780 -0.8609  1.5097
 2231SOL     OW 7012   2.360   0.479   3.590  0.1274 -0.1801 -0.1262
 2231SOL    HW1 7013   2.443   0.442   3.632  0.3032 -0.2310 -0.5150
 2231SOL    HW2 7014   2.384   0.526   3.505 -0.1548  0.4129  0.1181
 2232SOL     OW 7015   2.420   1.958   2.275  0.2338  0.3779 -0.1248
 2232SOL    HW1 7016   2.493   1.894   2.301  1.4105  1.2599 -1.1274
 2232SOL    HW2 7017   2.426   2.040   2.332  0.0607  0.4893 -0.2676
 2233SOL     OW 7018   4.125   1.454   2.016  0.3235  0.5895 -0.0429
 2233SOL    HW1 7019   4.110   1.534   1.959 -1.8711  0.6534  0.5290
 2233SOL    HW2 7020   4.137   1.482   2.111  0.6341  0.2968  0.0074
 2234SOL     OW 7021   2.118   1.208   3.035  0.5298  0.9788  0.6476
 2234SOL    HW1 7022   2.158   1.163   2.955 -0.3806 -0.0015  0.7171
 2234SOL    HW2 7023   2.066   1.141   3.089 -1.3675  2.1992  0.4518
 2235SOL     OW 7024   2.383   5.092   2.884  0.0186  0.7722 -0.0468
 2235SOL    HW1 7025   2.307   5.035   2.918 -0.5704  3.4318  3.7801
 2235SOL    HW2 7026   2.470   5.050   2.910 -0.2882  0.0933 -0.0887
 2236SOL     OW 7027   1.813   1.402   3.660 -0.7352  0.9342 -0.0293
 2236SOL    HW1 7028   1.831   1.500   3.654 -2.5437  1.4184  1.4303
 2236SOL    HW2 7029   1.754   1.375   3.584  1.2499  0.5413 -1.4980
 2237SOL     OW 7030   2.688   1.938   1.807 -0.1066  0.2147 -1.1899
 2237SOL    HW1 7031   2.631   1.938   1.890  0.1927  0.9153 -0.9738
 2237SOL    HW2 7032   2.647   1.879   1.738 -0.8816  0.3937 -0.8899
 2238SOL     OW 7033   3.190   0.916   2.789  0.0088  0.2757  0.4186
 2238SOL    HW1 7034   3.124   0.854   2.746  0.3963  0.5604 -0.6204
 2238SOL    HW2 7035   3.248   0.866   2.853  1.3816 -0.8057 -1.5788
 2239SOL     OW 7036   3.093   1.348   1.713  0.4683  0.2666  0.4444
 2239SOL    HW1 7037   3.037   1.318   1.791  0.7090  0.0063  0.5199
 2239SOL    HW2 7038   3.065   1.439   1.685 -0.8743 -0.3529 -0.3266
 2240SOL     OW 7039   3.196   1.070   3.133 -0.5357  0.1153 -0.0636
 2240SOL    HW1 7040   3.115   1.092   3.078 -0.7678  0.1149  0.2738
 2240SOL    HW2 7041   3.276   1.065   3.074 -0.8417 -0.2382 -0.4551
 2241SOL     OW 7042   2.314   5.341   1.452  0.0974  1.2049  0.2642
 2241SOL    HW1 7043   2.361   5.257   1.481 -1.0754  0.8606  1.2395
 2241SOL    HW2 7044   2.357   5.376   1.369 -0.2469 -1.1633 -1.0036
 2242SOL     OW 7045   1.668   1.313   2.256 -0.7157 -0.2789  0.2761
 2242SOL    HW1 7046   1.669   1.244   2.328  0.4464 -0.4461  0.1181
 2242SOL    HW2 7047   1.697   1.272   2.170 -1.0699  0.1657 -0.0615
 2243SOL     OW 7048   2.642   0.094   3.392  0.1317  0.4310  0.8414
 2243SOL    HW1 7049   2.707   0.025   3.424  2.0987  1.8792  0.1639
 2243SOL    HW2 7050   2.601   0.140   3.471 -0.1002 -0.4979  1.2780
 2244SOL     OW 7051   2.597   0.146   2.678 -0.3387  0.3561  0.1395
 2244SOL    HW1 7052   2.608   0.084   2.600  1.1106  0.6258  0.1027
 2244SOL    HW2 7053   2.500   0.168   2.690 -0.7188 -0.7202 -0.7718
 2245SOL     OW 7054   2.667   1.049   3.533  0.5726  0.3526  0.4375
 2245SOL    HW1 7055   2.636   0.967   3.582  0.7716 -0.6149 -0.9787
 2245SOL    HW2 7056   2.753   1.080   3.572 -0.7021  1.4148  2.6087
 2246SOL     OW 7057   3.086   4.635   4.181 -0.2629 -0.1191  0.3058
 2246SOL    HW1 7058   3.129   4.679   4.259  0.3702  1.7197 -1.0206
 2246SOL    HW2 7059   3.013   4.575   4.213 -1.4145  2.1508  2.2152
 2247SOL     OW 7060   1.872   1.479   2.176  0.5824 -0.3763  0.1106
 2247SOL    HW1 7061   1.793   1.424   2.201  0.9664 -0.3457  1.4771
 2247SOL    HW2 7062   1.908   1.447   2.088 -0.0313 -1.3847  0.2038
 2248SOL     OW 7063   3.525   1.682   3.136  0.5731 -0.0728  0.0861
 2248SOL    HW1 7064   3.599   1.682   3.204 -1.7278 -0.1506  2.7324
 2248SOL    HW2 7065   3.488   1.775   3.127  0.6343 -0.1277 -0.8704
 2249SOL     OW 7066   3.430   0.462   2.468 -0.0052  0.1867 -1.0240
 2249SOL    HW1 7067   3.516   0.505   2.441  0.4739 -0.9019 -1.2668
 2249SOL    HW2 7068   3.360   0.533   2.481  1.1293  1.1726  0.0020
 2250SOL     OW 7069   1.596   0.553   3.287 -0.6470  0.3799 -0.0700
 2250SOL    HW1 7070   1.658   0.583   3.360  1.3386 -1.6174 -0.8293
 2250SOL    HW2 7071   1.524   0.496   3.327  0.9482 -1.4694  0.3161
 2251SOL     OW 7072   1.153   2.175   3.501  0.5279 -0.2763  0.1866
 2251SOL    HW1 7073   1.083   2.211   3.439 -1.6256  0.1801  2.7489
 2251SOL    HW2 7074   1.168   2.078   3.480  0.6302  0.1045 -1.6842
 2252SOL     OW 7075   3.314   4.781   1.675 -0.1284 -0.1248 -1.2322
 2252SOL    HW1 7076   3.248   4.846   1.713  0.9037  0.7196 -0.8482
 2252SOL    HW2 7077   3.266   4.697   1.650 -1.4106  0.5823 -1.2798
 2253SOL     OW 7078   2.859   1.617   3.078  0.2314 -0.1637  0.0031
 2253SOL    HW1 7079   2.852   1.655   3.171 -1.8081  1.6248 -0.7813
 2253SOL    HW2 7080   2.781   1.557   3.061  0.9749 -1.0487 -0.3527
 2254SOL     OW 7081   1.944   5.080   2.745  0.0819 -0.7852 -0.1170
 2254SOL    HW1 7082   1.874   5.078   2.674 -0.7608 -0.5139  0.6840
 2254SOL    HW2 7083   2.032   5.053   2.706  0.0054  0.9578 -1.6390
 2255SOL     OW 7084   2.530   1.071   2.410 -0.1428  0.6261  0.7365
 2255SOL    HW1 7085   2.562   1.071   2.504 -1.0452 -0.1890  1.0581
 2255SOL    HW2 7086   2.602   1.108   2.350  0.9924 -0.1694  1.5560
 2256SOL     OW 7087   3.733   1.402   3.274  0.1644  0.0397 -0.2382
 2256SOL    HW1 7088   3.830   1.393   3.253  0.7272 -0.9695  2.3938
 2256SOL    HW2 7089   3.715   1.494   3.308  0.9641 -0.6290  2.2647
 2257SOL     OW 7090   1.924   1.296   4.450 -0.4165 -0.2706  0.6429
 2257SOL    HW1 7091   1.893   1.389   4.428 -0.9487 -0.2580  1.4113
 2257SOL    HW2 7092   1.901   1.235   4.374  0.4267  0.3155 -0.1090
 2258SOL     OW 7093   3.056   1.433   3.085 -0.3269  0.1709 -0.0988
 2258SOL    HW1 7094   3.150   1.435   3.119 -1.7814  0.3578  4.5260
 2258SOL    HW2 7095   3.017   1.525   3.088 -1.0782 -0.1136 -0.7200
 2259SOL     OW 7096   2.034   0.988   3.557 -0.4893 -0.1075 -0.6012
 2259SOL    HW1 7097   2.025   0.990   3.656 -0.7193 -0.0249 -0.6214
 2259SOL    HW2 7098   2.106   1.050   3.528 -0.7321  0.2165 -0.5167
 2260SOL     OW 7099   2.846   5.501   1.986  0.4896  0.4273  0.2955
 2260SOL    HW1 7100   2.825   5.597   2.005 -2.4226  0.1690 -1.1657
 2260SOL    HW2 7101   2.875   5.457   2.071  1.6860  2.4849  1.0506
 2261SOL     OW 7102   3.108   1.835   1.101 -0.4657 -0.3576 -0.2472
 2261SOL    HW1 7103   3.094   1.925   1.061  0.7590 -0.0913 -0.1043
 2261SOL    HW2 7104   3.019   1.790   1.114 -1.0426  0.5826 -0.8572
 2262SOL     OW 7105   1.771   2.047   1.993  0.2643 -0.5725  0.2713
 2262SOL    HW1 7106   1.796   2.005   2.080 -0.2850 -0.5950  0.4202
 2262SOL    HW2 7107   1.745   2.143   2.008  0.8771 -0.3642  0.0273
 2263SOL     OW 7108   2.143   0.486   3.755  0.1794 -0.6523 -0.3550
 2263SOL    HW1 7109   2.180   0.472   3.847  0.8549  0.1208 -0.4910
 2263SOL    HW2 7110   2.218   0.509   3.692 -0.0167 -2.8328 -1.4829
 2264SOL     OW 7111   2.902   5.430   2.772 -0.0059 -0.0797  0.0884
 2264SOL    HW1 7112   2.910   5.509   2.833  1.8147 -0.5348  0.4805
 2264SOL    HW2 7113   2.990   5.412   2.728 -0.5663 -1.4826 -0.5249
 2265SOL     OW 7114   3.773   0.594   3.390  0.2455 -0.3591 -0.4295
 2265SOL    HW1 7115   3.815   0.684   3.378 -0.7475 -0.0181 -1.4896
 2265SOL    HW2 7116   3.747   0.556   3.301 -2.3414 -0.2257  0.1916
 2266SOL     OW 7117   4.321   4.745   3.645 -0.3984  0.1209  0.0767
 2266SOL    HW1 7118   4.250   4.680   3.672  0.0101  0.4195  2.0009
 2266SOL    HW2 7119   4.279   4.827   3.606 -1.0569 -0.0576  0.4082
 2267SOL     OW 7120   1.765   1.440   1.727 -0.5107  0.1330  0.2983
 2267SOL    HW1 7121   1.703   1.383   1.782 -0.5322  0.8252  1.0010
 2267SOL    HW2 7122   1.718   1.523   1.699  0.4057  1.2088  1.7969
 2268SOL     OW 7123   1.965   1.991   2.217  0.3493 -0.5652 -0.3809
 2268SOL    HW1 7124   1.973   1.900   2.177  0.7934 -0.1209 -1.3379
 2268SOL    HW2 7125   2.029   1.999   2.294 -0.8313 -1.5742  0.7488
 2269SOL     OW 7126   3.169   1.996   2.209 -0.3766 -0.0036  0.1372
 2269SOL    HW1 7127   3.257   1.997   2.162 -0.8960  0.3649 -0.8750
 2269SOL    HW2 7128   3.183   1.994   2.308  0.7530 -0.5775 -0.0252
 2270SOL     OW 7129   1.473   0.199   3.001 -0.0275  0.3087 -0.0464
 2270SOL    HW1 7130   1.564   0.215   2.963  0.2391  2.7367  1.4412
 2270SOL    HW2 7131   1.404   0.236   2.939  0.2007  1.1675  0.1979
 2271SOL     OW 7132   1.838   0.576   2.968  0.4163  0.1136 -0.7209
 2271SOL    HW1 7133   1.899   0.575   3.048  1.2017 -0.4983 -1.3009
 2271SOL    HW2 7134   1.893   0.592   2.886 -0.3745  0.6541 -1.1486
 2272SOL     OW 7135   1.082   0.948   3.261 -0.2890 -0.0903  0.0561
 2272SOL    HW1 7136   1.132   0.986   3.339  3.1640  1.3578 -2.6046
 2272SOL    HW2 7137   1.042   1.022   3.208 -1.5774 -0.9735 -0.2516
 2273SOL     OW 7138   2.276   0.195   3.255 -0.7141  0.3754  0.6279
 2273SOL    HW1 7139   2.329   0.198   3.339 -1.6908 -0.9057  1.3150
 2273SOL    HW2 7140   2.204   0.126   3.262  0.1710 -0.9463 -1.8307
 2274SOL     OW 7141   1.529   1.148   3.330 -0.6328 -0.5616 -0.3565
 2274SOL    HW1 7142   1.545   1.204   3.249 -0.7188  0.2426  0.1666
 2274SOL    HW2 7143   1.613   1.100   3.355 -0.4928 -0.4836 -0.6797
 2275SOL     OW 7144   2.872   1.597   2.536  0.0439 -0.5204 -0.1297
 2275SOL    HW1 7145   2.880   1.507   2.492  0.4042 -0.3750 -0.3643
 2275SOL    HW2 7146   2.911   1.667   2.476 -1.1636 -0.0645 -0.4022
 2276SOL     OW 7147   1.867   1.761   4.252  0.6640 -0.2073  0.1203
 2276SOL    HW1 7148   1.911   1.843   4.288  2.1447 -0.6730 -0.5647
 2276SOL    HW2 7149   1.832   1.779   4.160 -0.0567 -0.0233  0.4212
 2277SOL     OW 7150   1.834   1.213   3.104 -0.6399  0.4960  0.1965
 2277SOL    HW1 7151   1.893   1.252   3.033 -0.3256  2.7732  1.6278
 2277SOL    HW2 7152   1.871   1.235   3.194 -1.4446 -1.6729  1.1181
 2278SOL     OW 7153   1.772   1.181   2.056  0.5660  0.2958  0.2335
 2278SOL    HW1 7154   1.822   1.245   1.998  1.1178  2.0110  2.4617
 2278SOL    HW2 7155   1.828   1.100   2.072  0.3002 -0.3333 -1.7390
 2279SOL     OW 7156   1.635   1.354   2.815  0.3658 -0.6102 -0.3858
 2279SOL    HW1 7157   1.675   1.343   2.724 -1.8049 -0.0965 -1.4689
 2279SOL    HW2 7158   1.650   1.448   2.846 -0.1310 -0.3697 -0.8617
 2280SOL     OW 7159   3.607   0.181   4.134 -0.0662 -0.2050  0.1163
 2280SOL    HW1 7160   3.550   0.178   4.216 -0.7794  0.8457 -0.3248
 2280SOL    HW2 7161   3.650   0.271   4.127  0.5044 -0.5076 -0.3300
 2281SOL     OW 7162   2.749   1.217   2.298 -0.2799  0.4747 -0.3980
 2281SOL    HW1 7163   2.793   1.163   2.226 -0.5179 -0.3480  0.0643
 2281SOL    HW2 7164   2.818   1.272   2.344 -0.0222  0.5245 -0.8390
 2282SOL     OW 7165   4.299   2.387   2.339  0.5055  0.0341 -0.6231
 2282SOL    HW1 7166   4.241   2.405   2.259  1.1321  0.5147 -0.9773
 2282SOL    HW2 7167   4.282   2.294   2.373 -1.0826  0.4427 -0.2057
 2283SOL     OW 7168   3.415   1.673   2.891 -0.1019  0.0755 -0.1703
 2283SOL    HW1 7169   3.457   1.641   2.976 -0.6338  1.3917  0.6168
 2283SOL    HW2 7170   3.457   1.759   2.863 -0.5041  0.0764 -0.7941
 2284SOL     OW 7171   1.192   1.671   3.487  0.3827 -0.5005 -0.4392
 2284SOL    HW1 7172   1.208   1.577   3.458  1.0944 -0.8769  1.0987
 2284SOL    HW2 7173   1.155   1.672   3.579  0.0268  0.7300 -0.5740
 2285SOL     OW 7174   3.189   0.434   2.249  0.2533 -0.3456  0.0113
 2285SOL    HW1 7175   3.151   0.437   2.341 -2.2591 -0.6495 -0.9173
 2285SOL    HW2 7176   3.250   0.512   2.235  0.4848 -0.1688  1.8187
 2286SOL     OW 7177   3.725   1.675   3.322 -0.3191 -0.1179 -0.1121
 2286SOL    HW1 7178   3.707   1.726   3.406  0.0663 -0.6690  0.3115
 2286SOL    HW2 7179   3.819   1.691   3.291  0.2967 -1.6691  0.8293
 2287SOL     OW 7180   2.187   1.710   3.384  0.2378  0.0588  0.1077
 2287SOL    HW1 7181   2.161   1.805   3.403  1.9626  0.7909 -0.9566
 2287SOL    HW2 7182   2.188   1.658   3.470 -1.9867  0.6373  0.5325
 2288SOL     OW 7183   2.817   5.462   3.456  0.6096  0.4107  0.3348
 2288SOL    HW1 7184   2.765   5.379   3.476  1.8607 -0.9948 -1.8876
 2288SOL    HW2 7185   2.882   5.480   3.530  0.5603 -0.7757  0.6813
 2289SOL     OW 7186   2.154   2.074   0.864 -0.4368 -0.3741 -0.6984
 2289SOL    HW1 7187   2.201   2.155   0.829 -0.7483 -0.5387 -1.5061
 2289SOL    HW2 7188   2.154   2.002   0.795 -2.1402 -0.2747 -0.8313
 2290SOL     OW 7189   3.762   1.006   4.164  0.2952  0.3384  0.1838
 2290SOL    HW1 7190   3.719   0.952   4.237 -1.4721 -0.8368 -1.6280
 2290SOL    HW2 7191   3.717   1.095   4.158  3.1350  2.1659  3.0973
 2291SOL     OW 7192   3.305   1.489   3.206 -0.2710 -0.6453  0.0936
 2291SOL    HW1 7193   3.374   1.545   3.161 -0.0761 -1.3441 -0.4986
 2291SOL    HW2 7194   3.280   1.530   3.294  1.2054 -0.6220  0.5150
 2292SOL     OW 7195   2.227   1.108   2.805 -0.2198  0.5634 -0.3565
 2292SOL    HW1 7196   2.317   1.129   2.844 -0.3940  1.2031 -0.2913
 2292SOL    HW2 7197   2.229   1.124   2.706 -0.7342  2.2779 -0.1261
 2293SOL     OW 7198   3.342   1.287   1.837 -0.4132  0.1672  0.3165
 2293SOL    HW1 7199   3.278   1.317   1.766  1.0242  1.5488 -0.4783
 2293SOL    HW2 7200   3.383   1.200   1.811 -1.5989 -0.4975  0.6130
 2294SOL     OW 7201   2.714   1.506   1.989  0.2011 -0.5281  0.4633
 2294SOL    HW1 7202   2.754   1.421   2.021  2.4854  0.2888 -0.0049
 2294SOL    HW2 7203   2.673   1.556   2.066 -0.7227 -1.7819  0.8115
 2295SOL     OW 7204   1.957   1.197   1.628 -0.2852  0.3560  0.6904
 2295SOL    HW1 7205   1.959   1.296   1.637 -1.0817  0.5199 -0.6037
 2295SOL    HW2 7206   2.030   1.168   1.565  1.6221 -0.1813  3.0066
 2296SOL     OW 7207   2.329   2.310   1.627 -0.1990 -0.3047  0.2093
 2296SOL    HW1 7208   2.295   2.237   1.687 -1.0961  0.4944  0.6977
 2296SOL    HW2 7209   2.331   2.277   1.533  0.4281 -1.2995  0.5528
 2297SOL     OW 7210   2.744   1.080   2.619  0.2495  0.0555 -0.0901
 2297SOL    HW1 7211   2.823   1.109   2.672  1.9985 -1.2761 -1.8161
 2297SOL    HW2 7212   2.690   1.161   2.594  1.1008  1.0116  1.0322
 2298SOL     OW 7213   4.655   0.386   3.588  0.6712 -0.4310  0.2938
 2298SOL    HW1 7214   4.558   0.412   3.590  0.6485 -0.5422  1.4900
 2298SOL    HW2 7215   4.667   0.303   3.534  0.4791  0.9399 -2.0098
 2299SOL     OW 7216   1.344   1.394   2.575  0.1907 -0.0049  0.4055
 2299SOL    HW1 7217   1.290   1.362   2.652  1.9256  0.4092  1.8483
 2299SOL    HW2 7218   1.335   1.493   2.566 -0.1085 -0.0645 -0.0434
 2300SOL     OW 7219   2.172   0.372   3.080 -0.6319 -0.6469  0.4136
 2300SOL    HW1 7220   2.201   0.301   3.144 -0.7397  0.2018  1.4351
 2300SOL    HW2 7221   2.136   0.330   2.997  2.7918 -1.7880 -0.6594
 2301SOL     OW 7222   1.012   1.152   2.610 -0.5454 -0.4523  0.0288
 2301SOL    HW1 7223   1.065   1.216   2.666 -1.1991 -0.2699  0.4548
 2301SOL    HW2 7224   0.964   1.088   2.670  1.5258 -2.5514 -0.4232
 2302SOL     OW 7225   3.236   5.355   3.738  0.3452 -0.5236 -0.0007
 2302SOL    HW1 7226   3.207   5.260   3.752  0.1658 -0.4153  0.3790
 2302SOL    HW2 7227   3.297   5.382   3.812 -1.7989  0.5395  1.4580
 2303SOL     OW 7228   2.275   1.925   2.812  0.0361  0.5988 -0.0786
 2303SOL    HW1 7229   2.323   1.895   2.729  0.0324  2.3835 -0.7677
 2303SOL    HW2 7230   2.202   1.988   2.787 -2.1948 -1.4002  1.0319
 2304SOL     OW 7231   1.762   2.038   3.553  0.3469 -0.0991  0.3260
 2304SOL    HW1 7232   1.781   2.113   3.617  2.1686 -0.5094  0.3062
 2304SOL    HW2 7233   1.700   2.071   3.482 -2.7299  0.0637  2.8398
 2305SOL     OW 7234   2.059   5.608   3.246 -0.0222 -0.2320 -0.0697
 2305SOL    HW1 7235   2.091   5.520   3.212 -1.4972 -1.5305  1.6975
 2305SOL    HW2 7236   1.988   5.643   3.185  0.5762 -0.2556 -0.7849
 2306SOL     OW 7237   1.901   5.489   2.680 -0.2717 -0.0048 -0.2897
 2306SOL    HW1 7238   1.838   5.564   2.700 -0.2400  0.2962 -1.2412
 2306SOL    HW2 7239   1.901   5.424   2.756 -0.9224  0.5368  0.1891
 2307SOL     OW 7240   3.232   5.259   4.672  0.6849  0.0538  0.1126
 2307SOL    HW1 7241   3.182   5.246   4.586 -0.1977  0.1782  0.5926
 2307SOL    HW2 7242   3.329   5.274   4.652  0.7355 -1.2982 -0.7765
 2308SOL     OW 7243   0.499   0.822   2.425 -0.2450  0.5981 -0.3781
 2308SOL    HW1 7244   0.453   0.880   2.358  0.8951  2.6350  0.5105
 2308SOL    HW2 7245   0.585   0.865   2.453 -0.2472 -0.6200  1.7281
 2309SOL     OW 7246   3.045   5.321   3.226  0.2686 -0.2552 -0.1616
 2309SOL    HW1 7247   3.105   5.323   3.306  1.3406 -0.4058 -0.9273
 2309SOL    HW2 7248   2.992   5.405   3.221  1.0239  0.2539  0.1099
 2310SOL     OW 7249   1.269   0.813   3.685  0.0544 -0.2829 -0.4524
 2310SOL    HW1 7250   1.367   0.825   3.670 -0.2555  2.2237 -0.7768
 2310SOL    HW2 7251   1.245   0.843   3.778 -0.5458  0.0392 -0.7020
 2311SOL     OW 7252   2.587   0.656   2.373 -0.7442 -0.0269 -0.2872
 2311SOL    HW1 7253   2.661   0.597   2.339 -1.6139 -0.4387 -1.5603
 2311SOL    HW2 7254   2.562   0.628   2.465 -1.5489 -2.1254 -1.0787
 2312SOL     OW 7255   1.929   0.422   4.170 -0.3499  0.7233  0.2473
 2312SOL    HW1 7256   1.975   0.373   4.244 -0.8476 -0.6107 -0.2884
 2312SOL    HW2 7257   1.848   0.468   4.205 -0.0547  0.9042  0.7007
 2313SOL     OW 7258   4.740   1.148   4.659  0.1206 -0.0784  0.2847
 2313SOL    HW1 7259   4.756   1.050   4.643 -2.2297 -0.5883  0.6827
 2313SOL    HW2 7260   4.666   1.159   4.726 -0.1869  1.9557 -0.3340
 2314SOL     OW 7261   2.038   2.463   1.840 -0.3194 -0.5006 -0.7284
 2314SOL    HW1 7262   2.087   2.454   1.753  0.9013 -1.6987  0.0540
 2314SOL    HW2 7263   2.012   2.372   1.873  0.7127 -0.2255  0.9703
 2315SOL     OW 7264   2.904   0.469   4.162 -0.0589  0.2175  0.2945
 2315SOL    HW1 7265   2.894   0.430   4.071  0.3128 -0.5710  0.5803
 2315SOL    HW2 7266   2.892   0.568   4.157 -1.8119  0.0122 -0.3189
 2316SOL     OW 7267   2.314   4.883   2.502  0.1380  0.4530 -0.1110
 2316SOL    HW1 7268   2.350   4.846   2.587  1.9800  1.0297 -0.6064
 2316SOL    HW2 7269   2.267   4.969   2.520  0.6485  0.6459  0.3106
 2317SOL     OW 7270   1.985   1.377   2.407 -0.3706 -0.2137  0.0799
 2317SOL    HW1 7271   2.070   1.348   2.364 -1.4683 -1.5414 -1.3385
 2317SOL    HW2 7272   1.916   1.394   2.336 -1.8259 -1.0530  1.2290
 2318SOL     OW 7273   2.780   5.582   4.097 -0.2340  0.1700  0.3629
 2318SOL    HW1 7274   2.850   5.605   4.030 -0.6864  0.5992  0.0266
 2318SOL    HW2 7275   2.728   5.502   4.065  1.7224 -1.7965  1.8078
 2319SOL     OW 7276   3.978   1.159   4.265 -0.2069  0.6643 -0.6741
 2319SOL    HW1 7277   4.007   1.182   4.172  0.4492  1.9874 -0.1616
 2319SOL    HW2 7278   3.884   1.123   4.262  0.5640 -1.4223 -2.0662
 2320SOL     OW 7279   3.810   1.184   2.648 -0.4152 -0.1480  0.1228
 2320SOL    HW1 7280   3.742   1.112   2.640 -1.4374  0.7062  0.9577
 2320SOL    HW2 7281   3.829   1.223   2.557 -0.1003 -1.2115 -0.2815
 2321SOL     OW 7282   3.670   2.644   2.492 -0.6804  0.1156 -0.0074
 2321SOL    HW1 7283   3.594   2.652   2.428  0.9510 -1.0191 -2.2015
 2321SOL    HW2 7284   3.692   2.548   2.507  0.0880  0.4177  0.9249
 2322SOL     OW 7285   2.161   1.469   3.026  0.1524  0.6577  0.4535
 2322SOL    HW1 7286   2.145   1.371   3.016  0.8932  0.4958  0.8463
 2322SOL    HW2 7287   2.142   1.514   2.938 -2.8667  0.5678  0.9430
 2323SOL     OW 7288   3.711   0.972   2.884 -0.0720  0.4571  0.0792
 2323SOL    HW1 7289   3.782   0.901   2.886 -2.7508 -2.4768  2.6267
 2323SOL    HW2 7290   3.686   0.991   2.789  1.5060 -1.2252 -0.7457
 2324SOL     OW 7291   3.204   0.581   1.699  0.3436 -0.2015  0.0814
 2324SOL    HW1 7292   3.203   0.535   1.610  4.3255  0.0592 -0.2778
 2324SOL    HW2 7293   3.142   0.533   1.761  0.1885 -2.6632 -1.7821
 2325SOL     OW 7294   3.199   1.641   2.754  0.2662 -0.5233  0.2165
 2325SOL    HW1 7295   3.284   1.667   2.801 -0.6780 -1.1760  2.3987
 2325SOL    HW2 7296   3.179   1.545   2.773 -1.4344 -0.1413  0.5382
 2326SOL     OW 7297   3.312   2.020   1.791  0.3571 -0.0322 -0.2001
 2326SOL    HW1 7298   3.365   2.102   1.767 -0.5596  0.2641 -1.3253
 2326SOL    HW2 7299   3.331   1.995   1.886 -0.8881  2.7090  0.8836
 2327SOL     OW 7300   2.957   0.334   4.878  1.1196  0.6029 -0.6352
 2327SOL    HW1 7301   2.994   0.271   4.946 -0.2961  2.2512  1.8141
 2327SOL    HW2 7302   2.972   0.429   4.908 -1.3381  1.3614 -1.5538
 2328SOL     OW 7303   3.447   0.414   3.586  0.2332  0.6316  0.0109
 2328SOL    HW1 7304   3.451   0.326   3.541 -0.0278  1.0696 -0.8902
 2328SOL    HW2 7305   3.537   0.438   3.622  0.5335  0.4546 -0.6265
 2329SOL     OW 7306   1.958   1.858   3.462 -0.4415  0.3983 -0.3786
 2329SOL    HW1 7307   1.887   1.922   3.490 -0.1720  0.5912 -0.1192
 2329SOL    HW2 7308   1.969   1.862   3.363 -1.8116 -0.7237 -0.5896
 2330SOL     OW 7309   3.309   1.673   3.837  0.0907 -0.3702  0.3287
 2330SOL    HW1 7310   3.287   1.591   3.889  0.6959 -1.6550 -1.3462
 2330SOL    HW2 7311   3.346   1.743   3.898  0.0569 -1.5231  1.7053
 2331SOL     OW 7312   1.934   1.313   2.673  0.1868 -0.1653 -0.6080
 2331SOL    HW1 7313   1.963   1.308   2.577 -0.1396 -1.6793 -0.6597
 2331SOL    HW2 7314   1.933   1.221   2.712  1.7891  0.5651  1.3163
 2332SOL     OW 7315   1.294   1.979   2.111  0.5529 -0.3232 -0.2124
 2332SOL    HW1 7316   1.293   1.963   2.012  1.1089  0.1602 -0.3045
 2332SOL    HW2 7317   1.240   2.060   2.132  0.9351 -0.0705 -0.1932
 2333SOL     OW 7318   2.175   0.770   3.205 -0.0875 -0.0668  0.0251
 2333SOL    HW1 7319   2.207   0.749   3.113  0.7034  0.1271  0.2466
 2333SOL    HW2 7320   2.242   0.828   3.251  0.7372 -2.0863  1.5586
 2334SOL     OW 7321   3.444   0.353   3.158 -0.9346  0.5799 -0.0458
 2334SOL    HW1 7322   3.446   0.306   3.247  1.1088 -0.7301 -0.7246
 2334SOL    HW2 7323   3.363   0.411   3.154 -2.0002 -0.6335  1.9956
 2335SOL     OW 7324   1.603   1.638   2.823 -0.1188 -0.4463  0.2865
 2335SOL    HW1 7325   1.504   1.649   2.816 -0.1227  0.2758  1.2328
 2335SOL    HW2 7326   1.648   1.717   2.780 -0.0061  0.1824  1.5219
 2336SOL     OW 7327   2.437   1.625   3.780  0.2719 -0.1523 -0.3742
 2336SOL    HW1 7328   2.447   1.529   3.806 -4.3999 -0.7703  0.0641
 2336SOL    HW2 7329   2.459   1.683   3.858  0.6223 -1.0191  0.1939
 2337SOL     OW 7330   2.634   5.534   2.485 -0.2058  0.3402 -0.3731
 2337SOL    HW1 7331   2.581   5.471   2.428  0.1961  0.6442 -1.1062
 2337SOL    HW2 7332   2.732   5.519   2.467 -0.0037 -0.4515  1.2021
 2338SOL     OW 7333   2.799   5.177   2.808 -0.0837 -0.3383  0.2629
 2338SOL    HW1 7334   2.796   5.142   2.714 -0.6447 -0.3640  0.2920
 2338SOL    HW2 7335   2.825   5.274   2.806 -3.6246  0.7440 -0.2244
 2339SOL     OW 7336   3.152   0.230   3.147 -0.2339 -0.5706 -0.5044
 2339SOL    HW1 7337   3.054   0.233   3.165  0.1377 -1.1534  1.9381
 2339SOL    HW2 7338   3.201   0.277   3.220  1.3476 -0.4998 -1.5609
 2340SOL     OW 7339   0.929   0.457   1.951  0.0905 -0.5468  0.9181
 2340SOL    HW1 7340   0.951   0.425   1.859  2.2593 -0.8152  1.4676
 2340SOL    HW2 7341   0.945   0.555   1.957  0.3413 -0.5984  1.1094
 2341SOL     OW 7342   2.079   1.610   1.633 -0.2983 -0.0287 -0.0041
 2341SOL    HW1 7343   2.082   1.701   1.591  1.6244 -1.4847 -3.3966
 2341SOL    HW2 7344   2.049   1.543   1.566 -1.9219 -1.9875  2.4674
 2342SOL     OW 7345   1.395   0.474   4.669 -0.0936 -0.1256  0.7178
 2342SOL    HW1 7346   1.322   0.485   4.736  0.2824  0.4415  1.0447
 2342SOL    HW2 7347   1.357   0.477   4.577 -0.5619 -0.4979  0.8956
 2343SOL     OW 7348   1.818   1.935   4.790 -0.0910  0.6883 -0.1166
 2343SOL    HW1 7349   1.751   1.975   4.852 -2.1366 -2.0079 -0.3894
 2343SOL    HW2 7350   1.772   1.871   4.728  2.4887  0.1847 -1.6862
 2344SOL     OW 7351   1.805   0.220   4.019 -0.3172 -0.6231  0.0068
 2344SOL    HW1 7352   1.757   0.267   3.944 -0.2651 -1.4053 -0.5325
 2344SOL    HW2 7353   1.866   0.284   4.065 -0.2149 -0.1677 -0.7405
 2345SOL     OW 7354   2.842   0.741   4.141  0.0538  0.3762 -0.2684
 2345SOL    HW1 7355   2.742   0.737   4.131 -0.0792 -0.8838  1.2362
 2345SOL    HW2 7356   2.864   0.801   4.218  0.5236  1.2135 -1.0300
 2346SOL     OW 7357   2.562   0.856   4.250 -0.0384  0.1952  0.0698
 2346SOL    HW1 7358   2.471   0.845   4.208 -0.4624 -0.6108  1.1625
 2346SOL    HW2 7359   2.560   0.933   4.314  0.3843  0.9072 -0.7530
 2347SOL     OW 7360   2.618   0.155   4.216  0.1134  0.4268  0.6202
 2347SOL    HW1 7361   2.658   0.066   4.197 -2.0476 -0.6920  0.9933
 2347SOL    HW2 7362   2.614   0.209   4.132 -2.3425 -1.4916 -0.6260
 2348SOL     OW 7363   3.770   0.465   3.625  0.3160 -0.1041  0.1099
 2348SOL    HW1 7364   3.859   0.497   3.660  1.0819 -1.9007 -0.0750
 2348SOL    HW2 7365   3.758   0.495   3.531  0.4218  0.7095  0.3515
 2349SOL     OW 7366   2.022   2.598   5.557  0.9251  0.0143  0.3459
 2349SOL    HW1 7367   2.016   2.602   5.458  2.1507  0.0390  0.2596
 2349SOL    HW2 7368   1.933   2.572   5.595  0.3521  0.3552 -0.7280
 2350SOL     OW 7369   2.397   0.837   0.925 -0.0129 -0.6099 -0.1725
 2350SOL    HW1 7370   2.320   0.852   0.987  0.0954 -1.7369  0.2478
 2350SOL    HW2 7371   2.363   0.816   0.833 -0.1933  3.0871 -1.1003
 2351SOL     OW 7372   0.960   0.257   4.466  0.3329 -0.3256 -0.3000
 2351SOL    HW1 7373   0.968   0.168   4.420  3.6153 -0.2655 -0.0812
 2351SOL    HW2 7374   1.044   0.276   4.517 -1.6123  1.4054  2.5601
 2352SOL     OW 7375   2.516   1.759   0.205  0.0631 -0.1998  0.5312
 2352SOL    HW1 7376   2.554   1.677   0.161 -0.6632 -0.5919  0.6201
 2352SOL    HW2 7377   2.566   1.777   0.290  2.2023  1.1792 -0.8947
 2353SOL     OW 7378   1.117   1.396   4.322  0.0389  0.1688  0.0389
 2353SOL    HW1 7379   1.073   1.333   4.386  0.2191  1.0499  1.0608
 2353SOL    HW2 7380   1.138   1.348   4.237 -2.1571 -0.5039 -0.1863
 2354SOL     OW 7381   1.177   0.301   4.627  0.0228 -0.2856 -0.0437
 2354SOL    HW1 7382   1.195   0.214   4.673  1.3015  0.4639  0.9284
 2354SOL    HW2 7383   1.165   0.372   4.696  2.3018  0.9372 -0.8334
 2355SOL     OW 7384   0.563   0.603   4.577 -0.1091 -0.0651 -0.1370
 2355SOL    HW1 7385   0.631   0.645   4.637  0.0363  1.8331 -1.5350
 2355SOL    HW2 7386   0.527   0.672   4.514  0.2572 -2.0513 -2.7115
 2356SOL     OW 7387   3.415   0.904   4.708 -0.4641  0.1595 -0.2377
 2356SOL    HW1 7388   3.394   0.819   4.660 -0.8216  0.7524 -1.1473
 2356SOL    HW2 7389   3.329   0.951   4.730 -0.2549  0.4001  0.0730
 2357SOL     OW 7390   1.956   1.528   4.780 -0.2630  0.3750 -0.0480
 2357SOL    HW1 7391   1.925   1.599   4.718 -1.0657  0.2843  0.2301
 2357SOL    HW2 7392   1.898   1.446   4.769  0.3512 -0.0654 -0.0384
 2358SOL     OW 7393   2.970   1.299   0.848  0.0091 -0.5236 -0.6650
 2358SOL    HW1 7394   3.047   1.266   0.903 -1.2031 -1.7997  0.3462
 2358SOL    HW2 7395   2.894   1.235   0.855 -2.3665  2.1903  1.0745
 2359SOL     OW 7396   2.387   1.295   3.234  0.0305  0.0271 -0.7191
 2359SOL    HW1 7397   2.363   1.392   3.232 -0.1186 -0.0105 -0.8388
 2359SOL    HW2 7398   2.463   1.280   3.297 -0.9927 -0.0149  0.5584
 2360SOL     OW 7399   2.410   1.577   5.516  0.1045 -0.3778 -0.0833
 2360SOL    HW1 7400   2.490   1.553   5.571  0.7548  0.4935 -0.6273
 2360SOL    HW2 7401   2.397   1.508   5.445  1.2584  0.2031 -0.8967
 2361SOL     OW 7402   1.522   1.506   4.225 -0.0985  0.2036 -0.1901
 2361SOL    HW1 7403   1.621   1.493   4.221 -0.2583 -1.2244  0.2337
 2361SOL    HW2 7404   1.502   1.595   4.266  1.0030  0.4686 -0.2054
 2362SOL     OW 7405   1.333   0.302   4.414 -0.4741  0.1293 -0.1366
 2362SOL    HW1 7406   1.278   0.269   4.491 -3.0413 -0.1858 -1.9920
 2362SOL    HW2 7407   1.273   0.337   4.342  1.8468  0.9102 -1.8308
 2363SOL     OW 7408   3.841   0.542   4.489  0.4255 -0.3360  0.3013
 2363SOL    HW1 7409   3.927   0.590   4.503  0.0551 -0.3764  3.4455
 2363SOL    HW2 7410   3.766   0.607   4.486  0.3504 -0.4409 -0.1249
 2364SOL     OW 7411   1.194   0.471   4.866  0.3300  0.1676  0.1275
 2364SOL    HW1 7412   1.104   0.509   4.886  0.5189  0.8875 -0.3092
 2364SOL    HW2 7413   1.210   0.390   4.922 -0.8995 -0.4289 -0.3569
 2365SOL     OW 7414   4.110   1.370   4.405 -0.2559  0.3625 -0.0664
 2365SOL    HW1 7415   4.063   1.290   4.366 -0.2189  0.2302  0.1590
 2365SOL    HW2 7416   4.045   1.445   4.416 -0.4234  0.1689  0.2749
 2366SOL     OW 7417   0.903   1.478   3.393 -0.8081  0.2804 -0.6652
 2366SOL    HW1 7418   0.924   1.557   3.335 -1.0589  0.1098 -0.9938
 2366SOL    HW2 7419   0.851   1.411   3.340 -1.7001  0.4529 -0.0449
 2367SOL     OW 7420   3.103   1.148   4.594 -0.3865  0.2942  0.4848
 2367SOL    HW1 7421   3.105   1.248   4.593 -1.9447  0.3626  0.1924
 2367SOL    HW2 7422   3.010   1.117   4.571  0.7692 -1.2545 -2.7094
 2368SOL     OW 7423   4.672   0.595   4.950  0.5255 -0.7066 -0.5583
 2368SOL    HW1 7424   4.724   0.555   4.874 -0.9654 -0.5345 -1.7202
 2368SOL    HW2 7425   4.625   0.677   4.918 -0.0257 -0.5533  0.6059
 2369SOL     OW 7426   0.982   5.406   4.909  0.1406  0.1896  0.5018
 2369SOL    HW1 7427   1.019   5.338   4.846 -0.5952  0.2647 -0.0360
 2369SOL    HW2 7428   1.055   5.466   4.940  0.4659  0.3667 -0.5539
 2370SOL     OW 7429   1.525   5.489   4.609 -0.1616  0.0600  0.6293
 2370SOL    HW1 7430   1.587   5.477   4.686 -2.3341 -3.6806  2.0207
 2370SOL    HW2 7431   1.531   5.410   4.548 -0.7977  1.4725 -1.3931
 2371SOL     OW 7432   2.953   1.051   5.348  0.0510  0.0423  0.2959
 2371SOL    HW1 7433   2.854   1.047   5.344  0.0079 -1.0588  1.6308
 2371SOL    HW2 7434   2.985   1.005   5.431  1.7241 -0.5087 -0.5967
 2372SOL     OW 7435   3.285   5.366   4.245  0.9922 -0.4346 -0.2507
 2372SOL    HW1 7436   3.197   5.350   4.290  1.2884 -2.3437 -0.2570
 2372SOL    HW2 7437   3.284   5.455   4.201 -0.3939  0.2167  0.9983
 2373SOL     OW 7438   2.319   0.978   5.265  0.0440  0.2838  0.4589
 2373SOL    HW1 7439   2.375   0.926   5.201  0.6480  1.2352  0.2077
 2373SOL    HW2 7440   2.290   1.063   5.223 -2.0903 -0.4311  0.3797
 2374SOL     OW 7441   4.079   0.932   4.386 -0.0531  0.3156  0.2388
 2374SOL    HW1 7442   4.051   1.010   4.329  1.3471  1.0262  0.4934
 2374SOL    HW2 7443   4.093   0.963   4.480 -1.4701 -0.6785  0.8034
 2375SOL     OW 7444   2.989   2.101   5.181 -0.0378 -0.2460  0.1731
 2375SOL    HW1 7445   2.988   2.156   5.098  1.6525 -0.3995  0.0005
 2375SOL    HW2 7446   2.981   2.160   5.261 -2.8971 -0.1944 -0.0703
 2376SOL     OW 7447   3.179   0.473   4.030 -0.5430  0.3367  0.5153
 2376SOL    HW1 7448   3.106   0.447   3.967  0.3254 -0.9907  0.0201
 2376SOL    HW2 7449   3.198   0.397   4.093  0.5695  0.5634  0.4746
 2377SOL     OW 7450   4.547   0.860   4.950  0.1518 -0.2403  0.2511
 2377SOL    HW1 7451   4.476   0.814   5.004  0.1952 -0.8204 -0.1749
 2377SOL    HW2 7452   4.594   0.927   5.007 -0.1320 -0.4957  0.7971
 2378SOL     OW 7453   4.185   2.775   5.299  0.5316 -0.1119  0.3092
 2378SOL    HW1 7454   4.089   2.796   5.282  0.2453 -1.2164  0.4453
 2378SOL    HW2 7455   4.243   2.830   5.239 -0.2173  0.0530 -0.2813
 2379SOL     OW 7456   3.292   0.516   4.759 -0.2941  0.4538 -0.4552
 2379SOL    HW1 7457   3.279   0.421   4.732  1.2097 -0.0299  0.3902
 2379SOL    HW2 7458   3.219   0.543   4.823 -2.5271  0.8977 -3.0105
 2380SOL     OW 7459   2.748   5.102   4.885 -0.4033  0.3694  0.2093
 2380SOL    HW1 7460   2.703   5.142   4.965 -1.7760 -0.4094 -0.1337
 2380SOL    HW2 7461   2.728   5.158   4.804 -3.0318 -1.2919 -0.4334
 2381SOL     OW 7462   2.551   1.411   4.236  0.2788 -0.8081 -0.6830
 2381SOL    HW1 7463   2.459   1.445   4.254  1.1239  0.6485  1.2807
 2381SOL    HW2 7464   2.606   1.484   4.194  1.6426 -0.1603  2.0080
 2382SOL     OW 7465   2.337   0.167   4.272  0.1786 -0.3738 -0.1784
 2382SOL    HW1 7466   2.331   0.112   4.355  1.4194  0.2660  0.3636
 2382SOL    HW2 7467   2.433   0.176   4.245 -0.3149 -2.2595 -2.8725
 2383SOL     OW 7468   3.927   5.580   5.333 -0.3210 -0.3786 -0.0670
 2383SOL    HW1 7469   3.929   5.510   5.405  2.0712 -0.2403  0.0605
 2383SOL    HW2 7470   3.883   5.663   5.368 -1.8321 -1.2776  0.2511
 2384SOL     OW 7471   2.338   5.391   5.471  0.4841 -0.3743  0.0432
 2384SOL    HW1 7472   2.372   5.417   5.380 -0.6213  3.1212  0.4845
 2384SOL    HW2 7473   2.388   5.441   5.541 -0.9092 -0.4529  1.1390
 2385SOL     OW 7474   2.296   1.140   0.091 -0.0013  0.0533  0.1805
 2385SOL    HW1 7475   2.357   1.209   0.129  1.4844 -0.2144 -1.5677
 2385SOL    HW2 7476   2.238   1.182   0.021  0.8573 -0.4014 -0.8372
 2386SOL     OW 7477   1.216   0.677   5.288  0.2161  0.3518  0.2042
 2386SOL    HW1 7478   1.284   0.627   5.343 -1.3003  1.2620  3.1346
 2386SOL    HW2 7479   1.237   0.774   5.290  0.7789  0.3207 -1.9398
 2387SOL     OW 7480   2.147   1.656   5.530 -0.1041 -0.5757  0.0042
 2387SOL    HW1 7481   2.109   1.567   5.555  0.8747 -1.4385 -1.3952
 2387SOL    HW2 7482   2.246   1.647   5.517  0.1313  0.9198  0.6498
 2388SOL     OW 7483   1.755   0.191   4.605  0.0585  0.1523  0.2864
 2388SOL    HW1 7484   1.661   0.201   4.639  0.1265 -1.6836  1.1592
 2388SOL    HW2 7485   1.805   0.129   4.666  1.6514  0.6054 -0.5319
 2389SOL     OW 7486   3.483   0.042   5.251  0.6824 -0.4267  0.2727
 2389SOL    HW1 7487   3.475   0.078   5.344  0.0827  1.3443 -0.4128
 2389SOL    HW2 7488   3.418  -0.032   5.238  0.8054 -0.7216  1.2687
 2390SOL     OW 7489   2.390   0.912   3.346  0.0278  0.5661  0.2856
 2390SOL    HW1 7490   2.420   0.887   3.437  0.3919 -1.6275 -0.3901
 2390SOL    HW2 7491   2.468   0.905   3.282 -1.1492 -2.6191 -1.0041
 2391SOL     OW 7492   3.448   0.638   4.265 -0.0937  0.2007 -0.0555
 2391SOL    HW1 7493   3.492   0.560   4.309  0.2101  0.5455  0.2506
 2391SOL    HW2 7494   3.355   0.648   4.301  0.5547  1.2115  1.4095
 2392SOL     OW 7495   2.858   1.597   4.380  0.2150  0.5632  0.2301
 2392SOL    HW1 7496   2.820   1.508   4.402  2.0063 -0.3182 -0.0922
 2392SOL    HW2 7497   2.819   1.630   4.294  1.1896 -0.9739 -0.8385
 2393SOL     OW 7498   2.793   2.295   0.023 -0.1672  0.4740  0.4970
 2393SOL    HW1 7499   2.740   2.268   0.104 -2.1880 -1.4747 -1.3287
 2393SOL    HW2 7500   2.772   2.390  -0.001  0.5835  1.1283  2.2899
 2394SOL     OW 7501   3.360   4.819   4.691  0.3149 -0.3232 -0.5670
 2394SOL    HW1 7502   3.412   4.904   4.699  0.8643 -0.7355  0.4593
 2394SOL    HW2 7503   3.423   4.741   4.694 -0.0874 -0.7767 -2.3223
 2395SOL     OW 7504   4.126   2.183   4.960  0.2687  0.4867  0.5205
 2395SOL    HW1 7505   4.128   2.211   5.056  1.6963  0.3967  0.5290
 2395SOL    HW2 7506   4.219   2.183   4.923 -0.1276 -0.6771 -0.5197
 2396SOL     OW 7507   1.567   5.009   3.805 -0.1282 -0.1634 -0.5132
 2396SOL    HW1 7508   1.644   4.987   3.746 -0.0013 -0.5066 -0.2248
 2396SOL    HW2 7509   1.528   5.097   3.779 -0.3054 -0.4830 -1.3501
 2397SOL     OW 7510   3.236   0.622   5.128 -0.2965 -0.1045 -0.1909
 2397SOL    HW1 7511   3.285   0.685   5.067  0.6949 -0.3753  0.3022
 2397SOL    HW2 7512   3.302   0.566   5.178 -1.0388  0.8264  1.9201
 2398SOL     OW 7513   3.606   1.838   5.201  0.1983 -0.4949  0.1514
 2398SOL    HW1 7514   3.573   1.920   5.153  2.0099  0.1344 -0.0979
 2398SOL    HW2 7515   3.528   1.785   5.233 -1.0601  0.2659 -1.4719
 2399SOL     OW 7516   2.126   0.431   4.556 -0.0401 -0.5784 -0.2998
 2399SOL    HW1 7517   2.145   0.345   4.604  1.3198 -1.1845 -1.8312
 2399SOL    HW2 7518   2.132   0.415   4.458  0.9686  1.4383 -0.6032
 2400SOL     OW 7519   2.093   5.492   4.935  0.0334 -0.2371  0.1491
 2400SOL    HW1 7520   2.121   5.561   4.869  1.0696  0.0080  0.8091
 2400SOL    HW2 7521   2.038   5.422   4.890  0.2354  0.2252 -0.8392
 2401SOL     OW 7522   3.329   2.018   3.728  0.4860 -0.0966 -0.5572
 2401SOL    HW1 7523   3.344   2.101   3.675  0.5280 -0.2202 -0.7389
 2401SOL    HW2 7524   3.233   2.014   3.757  0.5400  0.1353 -0.3403
 2402SOL     OW 7525   2.649   1.972   4.242 -0.0005  0.2939  0.2888
 2402SOL    HW1 7526   2.558   1.935   4.226 -0.3437  1.2381  0.0014
 2402SOL    HW2 7527   2.651   2.069   4.217  1.0217  0.3430  0.5015
 2403SOL     OW 7528   4.050   5.167   4.979  0.3366 -0.1897 -0.1048
 2403SOL    HW1 7529   4.131   5.224   4.994 -1.6657  2.7584  0.3030
 2403SOL    HW2 7530   3.997   5.203   4.903 -0.9960 -1.6106  0.0988
 2404SOL     OW 7531   2.170   2.359   4.489  0.3712 -0.1647 -0.1192
 2404SOL    HW1 7532   2.239   2.370   4.560  0.0631  0.5334  0.0857
 2404SOL    HW2 7533   2.207   2.305   4.414  1.1867  0.3130 -0.0743
 2405SOL     OW 7534   2.070   1.308   4.065  0.7534 -0.1373  0.3642
 2405SOL    HW1 7535   2.109   1.377   4.127 -0.1985  1.1257 -0.4014
 2405SOL    HW2 7536   2.128   1.301   3.984 -1.1038  2.6947 -1.3874
 2406SOL     OW 7537   1.775   0.796   4.806  0.1943 -0.4797  0.3292
 2406SOL    HW1 7538   1.742   0.712   4.763  0.9750 -1.1323  0.9615
 2406SOL    HW2 7539   1.698   0.858   4.823 -0.2629 -0.6367 -1.0306
 2407SOL     OW 7540   3.339   5.417   0.127 -0.4094 -0.6300  0.1997
 2407SOL    HW1 7541   3.243   5.417   0.099 -0.0579 -1.6057 -1.0874
 2407SOL    HW2 7542   3.373   5.323   0.131  1.4311 -0.2073 -2.7916
 2408SOL     OW 7543   2.900   0.321   3.927 -0.0299 -1.0211  0.0853
 2408SOL    HW1 7544   2.936   0.348   3.838 -0.8167 -0.0590  0.0524
 2408SOL    HW2 7545   2.803   0.298   3.919 -0.3082 -0.1463  0.8440
 2409SOL     OW 7546   3.289   0.076   5.020 -0.1458  0.2139 -0.4097
 2409SOL    HW1 7547   3.334   0.054   5.107 -0.3725  0.2124 -0.2921
 2409SOL    HW2 7548   3.357   0.113   4.956  0.6421 -2.4345 -1.2274
 2410SOL     OW 7549   3.171   1.312   4.859 -0.0471  0.0371  1.1820
 2410SOL    HW1 7550   3.264   1.342   4.835  0.1595  0.1258  2.0699
 2410SOL    HW2 7551   3.173   1.216   4.885 -0.5567 -0.5558 -0.7454
 2411SOL     OW 7552   3.178   5.518   4.620 -0.8937  0.1862  0.6834
 2411SOL    HW1 7553   3.150   5.431   4.660 -0.6499  1.1643  3.1281
 2411SOL    HW2 7554   3.101   5.559   4.571 -1.5613 -0.5143  1.1305
 2412SOL     OW 7555   2.771   2.266   4.453  0.4264  0.2195 -0.2927
 2412SOL    HW1 7556   2.855   2.212   4.442  0.1733  0.0435 -1.5622
 2412SOL    HW2 7557   2.720   2.265   4.367  0.1668  2.0898 -0.2084
 2413SOL     OW 7558   2.634   4.938   5.198  0.0025 -0.4397 -0.6152
 2413SOL    HW1 7559   2.647   5.035   5.180  1.4745 -0.4857  0.1036
 2413SOL    HW2 7560   2.594   4.925   5.289  0.0956 -0.5299 -0.5877
 2414SOL     OW 7561   3.459   0.393   4.995 -0.3389  0.4913 -0.1071
 2414SOL    HW1 7562   3.410   0.473   4.960 -0.9172  0.2142  0.0650
 2414SOL    HW2 7563   3.470   0.326   4.921 -2.0660 -0.3418  0.3485
 2415SOL     OW 7564   2.945   0.960   4.282  0.0430  0.3357 -0.0060
 2415SOL    HW1 7565   3.035   0.984   4.244  0.5628 -0.4882  0.6477
 2415SOL    HW2 7566   2.882   1.036   4.269 -0.4876 -0.6168 -4.4672
 2416SOL     OW 7567   0.811   5.557   4.567 -0.3025  0.7422 -0.4410
 2416SOL    HW1 7568   0.740   5.616   4.530  0.2190  1.0132 -1.0473
 2416SOL    HW2 7569   0.778   5.463   4.571 -1.4425  1.1722  1.3443
 2417SOL     OW 7570   3.143   0.132   3.481  0.0780 -0.3456  0.0237
 2417SOL    HW1 7571   3.234   0.117   3.520 -0.2635 -0.7984  0.6784
 2417SOL    HW2 7572   3.137   0.225   3.446  0.7486 -0.2650  0.1044
 2418SOL     OW 7573   1.777   0.012   5.328  0.4458 -0.1012 -0.2096
 2418SOL    HW1 7574   1.830   0.096   5.343  2.4712 -1.1568 -0.9594
 2418SOL    HW2 7575   1.828  -0.048   5.265 -0.4743 -2.3090  1.0450
 2419SOL     OW 7576   3.218   0.745   4.089 -0.3090  0.4046 -0.2026
 2419SOL    HW1 7577   3.213   0.647   4.075  0.2459  0.7053 -3.1191
 2419SOL    HW2 7578   3.180   0.768   4.179  2.3950 -2.6923  1.9418
 2420SOL     OW 7579   1.801   1.381   3.944  0.0919 -0.1819 -0.2426
 2420SOL    HW1 7580   1.886   1.360   3.992 -1.1524 -0.4311  1.9847
 2420SOL    HW2 7581   1.802   1.339   3.853  1.5673 -1.7863  0.4750
 2421SOL     OW 7582   3.045   2.024   3.813 -0.0270  0.2871  0.0241
 2421SOL    HW1 7583   3.081   2.008   3.905  1.3991  1.8586 -0.2304
 2421SOL    HW2 7584   2.969   1.961   3.797  1.5560 -2.0927  1.1781
 2422SOL     OW 7585   2.472   5.104   3.315 -0.8541 -0.2433 -0.2032
 2422SOL    HW1 7586   2.408   5.173   3.348  0.5299  1.2580 -0.5145
 2422SOL    HW2 7587   2.534   5.146   3.248 -0.4087 -1.9827 -0.9265
 2423SOL     OW 7588   3.499   0.621   5.260  0.4107 -0.1126  0.0727
 2423SOL    HW1 7589   3.517   0.524   5.276 -1.8598 -0.6009 -0.0094
 2423SOL    HW2 7590   3.504   0.671   5.347 -0.0587 -0.6142  0.3936
 2424SOL     OW 7591   2.111   0.971   0.165 -0.2998 -0.1558  0.0900
 2424SOL    HW1 7592   2.135   0.882   0.126 -0.7806  0.6092 -2.0871
 2424SOL    HW2 7593   2.191   1.031   0.159 -0.6178  0.2140 -0.5055
 2425SOL     OW 7594   1.975   4.869   5.191 -0.1091  0.8001 -0.5945
 2425SOL    HW1 7595   1.963   4.864   5.091 -1.7677  1.2759 -0.4427
 2425SOL    HW2 7596   2.073   4.866   5.212  0.3136  1.3400 -2.2722
 2426SOL     OW 7597   3.595   1.164   3.303 -0.2403 -0.0534 -0.3579
 2426SOL    HW1 7598   3.513   1.216   3.282 -0.1450  0.0880 -0.3816
 2426SOL    HW2 7599   3.668   1.226   3.331 -0.0854 -0.1631 -0.5151
 2427SOL     OW 7600   3.023   1.276   0.036  0.1667  0.1844  0.1745
 2427SOL    HW1 7601   3.072   1.364   0.036 -0.0521  0.3081  0.4990
 2427SOL    HW2 7602   3.087   1.203   0.013  0.7440  0.2223  1.5467
 2428SOL     OW 7603   2.831   5.406   4.308 -0.1867  0.0215  0.6818
 2428SOL    HW1 7604   2.852   5.489   4.256  1.9510 -1.1403 -0.4148
 2428SOL    HW2 7605   2.743   5.369   4.277  0.2463  0.2782 -0.9322
 2429SOL     OW 7606   3.965   0.031   4.141  0.3332 -0.1986  0.4925
 2429SOL    HW1 7607   4.038   0.005   4.203  1.2950  2.4923  0.6056
 2429SOL    HW2 7608   3.897   0.087   4.189  0.0458  0.2518 -0.4061
 2430SOL     OW 7609   2.408   1.186   3.654 -0.3744 -0.3662 -0.2932
 2430SOL    HW1 7610   2.368   1.222   3.570  0.1755 -0.1428 -0.4667
 2430SOL    HW2 7611   2.481   1.122   3.631  0.4044  0.4012  0.0053
 2431SOL     OW 7612   3.012   0.391   3.690 -0.5996  0.0534  0.2322
 2431SOL    HW1 7613   3.058   0.468   3.645  0.3054 -0.1327  0.7998
 2431SOL    HW2 7614   2.953   0.345   3.624  0.6847 -0.2033 -0.7973
 2432SOL     OW 7615   4.463   5.523   3.884  0.5513 -0.0581 -0.5737
 2432SOL    HW1 7616   4.550   5.497   3.924  0.1638  1.0817  1.1499
 2432SOL    HW2 7617   4.390   5.507   3.950 -0.6071 -1.2002 -2.0582
 2433SOL     OW 7618   2.500   0.068   3.864  0.0887 -0.3891 -0.4621
 2433SOL    HW1 7619   2.515  -0.009   3.802  0.0946  0.4103 -1.4849
 2433SOL    HW2 7620   2.405   0.069   3.894  0.5941 -2.1450  1.4740
 2434SOL     OW 7621   4.551   1.054   0.242  0.3397  0.5707  0.2020
 2434SOL    HW1 7622   4.484   1.104   0.188  2.7959  3.3418 -0.5937
 2434SOL    HW2 7623   4.608   0.999   0.181  0.3240  0.1911  0.5311
 2435SOL     OW 7624   3.559   1.152   5.010  0.0063  0.0739 -0.3983
 2435SOL    HW1 7625   3.503   1.148   4.927  0.4686  0.1228 -0.7107
 2435SOL    HW2 7626   3.501   1.133   5.090 -0.2005 -1.2342 -0.8329
 2436SOL     OW 7627   2.717   1.110   5.029 -0.4962 -0.4198 -0.6097
 2436SOL    HW1 7628   2.639   1.136   5.085 -0.2133  0.5983 -0.6707
 2436SOL    HW2 7629   2.789   1.179   5.037 -0.9969  0.5215 -3.2999
 2437SOL     OW 7630   2.581   1.013   0.521 -0.1226  0.0270  0.2355
 2437SOL    HW1 7631   2.644   1.086   0.548 -0.0031  0.4714 -1.1661
 2437SOL    HW2 7632   2.608   0.928   0.564 -0.1904  0.7740  1.8204
 2438SOL     OW 7633   3.543   0.740   0.224 -0.2631  0.1431 -0.2595
 2438SOL    HW1 7634   3.459   0.785   0.197 -0.7020  0.3666  1.4066
 2438SOL    HW2 7635   3.613   0.808   0.246 -0.2039 -0.0211  0.0683
 2439SOL     OW 7636   2.803   0.167   5.203  0.4620 -0.3504  0.5969
 2439SOL    HW1 7637   2.740   0.162   5.125 -0.3919  0.7547  1.1734
 2439SOL    HW2 7638   2.897   0.171   5.170  0.1109  0.1491 -0.3924
 2440SOL     OW 7639   1.036   1.267   5.454  0.2197  0.1189 -0.1388
 2440SOL    HW1 7640   1.010   1.284   5.549 -0.0340  2.5122 -0.5682
 2440SOL    HW2 7641   1.130   1.233   5.450  0.8259  1.5949  0.8949
 2441SOL     OW 7642   2.981   0.222   4.601 -0.5093 -0.3314 -0.5787
 2441SOL    HW1 7643   2.970   0.288   4.675 -1.4599 -0.9982 -0.1165
 2441SOL    HW2 7644   3.021   0.268   4.522 -1.0894  0.7876 -0.2459
 2442SOL     OW 7645   2.698   1.087   5.386 -0.1478  0.0567 -0.4364
 2442SOL    HW1 7646   2.645   1.123   5.309 -0.9168  1.6277  0.7754
 2442SOL    HW2 7647   2.637   1.042   5.450  0.2918 -0.0078 -0.0590
 2443SOL     OW 7648   4.056   5.158   4.184 -0.6545 -0.0587  0.0352
 2443SOL    HW1 7649   4.135   5.202   4.142 -0.9316 -0.0576 -0.4900
 2443SOL    HW2 7650   4.079   5.131   4.278 -0.4271  1.0520  0.3172
 2444SOL     OW 7651   1.971   1.980   4.347 -0.2690 -0.3641 -0.1269
 2444SOL    HW1 7652   2.068   1.985   4.325 -0.3651 -0.6578 -0.6282
 2444SOL    HW2 7653   1.956   2.015   4.440  0.1630  0.7858 -0.4647
 2445SOL     OW 7654   2.409   1.217   4.601 -0.3565  0.2623 -0.2641
 2445SOL    HW1 7655   2.316   1.223   4.566 -0.8515 -0.8000  0.7826
 2445SOL    HW2 7656   2.463   1.295   4.568 -1.9301  1.5230  0.0314
 2446SOL     OW 7657   3.768   4.888   4.535  0.1290 -0.0485 -0.8336
 2446SOL    HW1 7658   3.800   4.978   4.506  0.9392 -0.6048 -1.7377
 2446SOL    HW2 7659   3.838   4.845   4.591 -0.0610 -0.2949 -0.7845
 2447SOL     OW 7660   2.959   1.183   3.023 -0.4259  0.7894  0.1204
 2447SOL    HW1 7661   3.002   1.273   3.017  0.0243  0.4810 -1.6784
 2447SOL    HW2 7662   2.885   1.186   3.090 -0.6862  2.6068 -0.2064
 2448SOL     OW 7663   4.504   1.231   4.866 -0.2381  0.1902 -0.1025
 2448SOL    HW1 7664   4.413   1.252   4.902  0.6672 -0.2796  2.6950
 2448SOL    HW2 7665   4.561   1.192   4.938  1.8075 -0.8220 -2.1082
 2449SOL     OW 7666   3.028   1.816   4.601  0.3479  0.2548 -0.0360
 2449SOL    HW1 7667   2.970   1.849   4.526 -1.2708  0.5959  1.2997
 2449SOL    HW2 7668   3.124   1.829   4.577 -0.1057  0.1014 -2.1414
 2450SOL     OW 7669   1.363   0.051   5.400 -0.1722  0.4051 -0.4307
 2450SOL    HW1 7670   1.409  -0.019   5.346  0.9816  0.5441  0.3456
 2450SOL    HW2 7671   1.431   0.115   5.436 -1.1966  2.0212 -1.2215
 2451SOL     OW 7672   1.934   0.733   0.080 -0.2794  0.0830  0.4653
 2451SOL    HW1 7673   1.835   0.722   0.084 -0.1999 -0.4042  2.9150
 2451SOL    HW2 7674   1.978   0.659   0.131  1.4041  0.0400 -0.9248
 2452SOL     OW 7675   3.887   0.946   0.006 -0.4002 -1.1135 -0.4383
 2452SOL    HW1 7676   3.941   0.892   0.069  0.1090 -1.5811 -1.2620
 2452SOL    HW2 7677   3.910   1.043   0.016  0.9563 -1.3428 -1.1005
 2453SOL     OW 7678   3.617   0.748   5.074 -0.0840  0.2023  0.3682
 2453SOL    HW1 7679   3.575   0.693   5.146 -0.8753  1.4044  0.8472
 2453SOL    HW2 7680   3.665   0.826   5.115  2.4357 -0.9687 -0.1700
 2454SOL     OW 7681   3.428   0.426   5.571  0.3839  0.0817 -0.1612
 2454SOL    HW1 7682   3.511   0.480   5.556  1.5363 -1.0195  1.8605
 2454SOL    HW2 7683   3.352   0.470   5.525  1.7443  2.0853 -0.6404
 2455SOL     OW 7684   1.714   1.399   5.518 -0.3048 -0.1416 -0.0463
 2455SOL    HW1 7685   1.723   1.318   5.460 -1.7120 -1.3647  1.3187
 2455SOL    HW2 7686   1.738   1.374   5.612  0.1557  1.3006  0.2355
 2456SOL     OW 7687   2.634   0.038   4.578  0.5624 -0.5045  0.7126
 2456SOL    HW1 7688   2.703   0.061   4.509 -0.7866 -0.2971 -0.6297
 2456SOL    HW2 7689   2.624   0.115   4.642 -1.4436  1.4084 -1.6718
 2457SOL     OW 7690   3.012   0.844   5.119 -0.7543  0.0507 -0.7958
 2457SOL    HW1 7691   3.092   0.796   5.154 -0.7307  0.1726 -0.6796
 2457SOL    HW2 7692   3.036   0.940   5.101 -0.3449 -0.3657 -2.6050
 2458SOL     OW 7693   2.063   5.372   5.318 -0.1019 -0.0552 -0.0769
 2458SOL    HW1 7694   2.071   5.452   5.378  0.5073  0.1855 -0.4735
 2458SOL    HW2 7695   2.145   5.364   5.261 -1.0051  0.1905 -1.4595
 2459SOL     OW 7696   2.223   2.211   0.245  0.4387 -0.1305  0.0605
 2459SOL    HW1 7697   2.169   2.292   0.223  1.7484  0.6389 -0.4473
 2459SOL    HW2 7698   2.320   2.229   0.227  0.7593 -1.8518 -0.1915
 2460SOL     OW 7699   2.506   0.723   5.147 -0.6908  0.0622  0.4385
 2460SOL    HW1 7700   2.606   0.727   5.151 -0.6557  0.3825 -0.5605
 2460SOL    HW2 7701   2.478   0.662   5.073 -1.2230  0.6867  0.1103
 2461SOL     OW 7702   3.799   0.260   5.419 -0.2881  0.7968  0.2374
 2461SOL    HW1 7703   3.724   0.317   5.386 -0.6554 -0.2743 -0.8496
 2461SOL    HW2 7704   3.883   0.285   5.372 -0.4886  0.3417 -0.3838
 2462SOL     OW 7705   2.967   5.057   4.356  0.1023 -0.1216  0.0855
 2462SOL    HW1 7706   3.027   4.994   4.405  2.2880  0.9398 -1.0924
 2462SOL    HW2 7707   2.919   5.007   4.284 -0.9641 -1.1040  1.4147
 2463SOL     OW 7708   2.439   1.553   4.750 -0.2125  0.1973  0.0801
 2463SOL    HW1 7709   2.468   1.514   4.663  0.5282 -0.2669  0.5300
 2463SOL    HW2 7710   2.413   1.480   4.812  2.4207  0.2847  1.3842
 2464SOL     OW 7711   2.478   5.346   4.943  0.5172  0.3904  0.1701
 2464SOL    HW1 7712   2.438   5.306   4.861  0.9633  1.5114 -0.6144
 2464SOL    HW2 7713   2.406   5.369   5.008  0.1658 -0.5463  0.1263
 2465SOL     OW 7714   3.808   1.649   5.234  0.1636 -0.2027  0.2534
 2465SOL    HW1 7715   3.763   1.617   5.317 -1.0133 -1.3767 -0.7943
 2465SOL    HW2 7716   3.750   1.716   5.188  0.3357 -0.3240 -0.1461
 2466SOL     OW 7717   3.469   2.730   5.612  0.2677  0.0132  0.5496
 2466SOL    HW1 7718   3.434   2.741   5.519 -1.3732 -1.7857  0.8805
 2466SOL    HW2 7719   3.517   2.642   5.619  1.1559  0.5355  1.1916
 2467SOL     OW 7720   3.025   5.198   5.273  0.6809  0.1567  0.1802
 2467SOL    HW1 7721   2.984   5.269   5.215 -1.0383 -0.1941  0.9067
 2467SOL    HW2 7722   3.117   5.178   5.240  0.5504  1.4684 -1.1162
 2468SOL     OW 7723   2.567   0.311   4.460 -0.0076 -0.8115  0.4033
 2468SOL    HW1 7724   2.586   0.233   4.400 -0.2638 -0.3045 -0.3554
 2468SOL    HW2 7725   2.608   0.393   4.421  1.3669 -0.7683  1.8410
 2469SOL     OW 7726   3.598   1.003   2.611 -0.6300  0.6912  0.1238
 2469SOL    HW1 7727   3.589   0.904   2.601 -0.6521  0.8537 -1.7204
 2469SOL    HW2 7728   3.508   1.045   2.610 -0.6289  0.7457  1.0332
 2470SOL     OW 7729   3.295   1.829   4.510 -0.0669  1.0535  0.3463
 2470SOL    HW1 7730   3.366   1.873   4.455 -1.3716  3.9808  0.8103
 2470SOL    HW2 7731   3.328   1.818   4.604  0.0296  1.8194  0.4106
 2471SOL     OW 7732   2.260   0.311   4.947  0.0201  0.1190  0.0422
 2471SOL    HW1 7733   2.228   0.246   4.879  0.1482 -0.0709  0.1613
 2471SOL    HW2 7734   2.193   0.384   4.958 -0.5605 -0.4838  0.5734
 2472SOL     OW 7735   2.236   0.112   3.906  0.0242 -0.1745  0.2336
 2472SOL    HW1 7736   2.235   0.199   3.957  1.8356  0.1093 -0.1761
 2472SOL    HW2 7737   2.156   0.109   3.846 -0.3557  0.9720  0.6386
 2473SOL     OW 7738   3.686   0.105   1.106 -1.1182 -0.7520 -0.6999
 2473SOL    HW1 7739   3.663   0.141   1.197 -1.0464  0.6200 -1.2059
 2473SOL    HW2 7740   3.613   0.127   1.042  0.8985  2.6281 -2.0651
 2474SOL     OW 7741   3.235   0.457   0.886  0.8412  1.0848  0.0364
 2474SOL    HW1 7742   3.172   0.435   0.961  1.2160  1.5160  0.4918
 2474SOL    HW2 7743   3.185   0.506   0.815 -0.2487 -1.9968 -1.4787
 2475SOL     OW 7744   1.338   1.843   3.187 -0.3229 -0.6719  0.0926
 2475SOL    HW1 7745   1.309   1.874   3.277 -0.7586  1.1125 -0.6125
 2475SOL    HW2 7746   1.436   1.859   3.176 -0.3900 -0.2695  0.0374
 2476SOL     OW 7747   1.509   2.500   4.324 -0.0849  0.3435 -0.4123
 2476SOL    HW1 7748   1.571   2.505   4.246  1.0572  0.1765  0.4521
 2476SOL    HW2 7749   1.561   2.474   4.406 -1.3549 -0.0444  0.2882
 2477SOL     OW 7750   2.787   1.690   4.756  0.6948  0.3271 -0.0461
 2477SOL    HW1 7751   2.832   1.773   4.787 -0.7941  1.0352  0.3197
 2477SOL    HW2 7752   2.734   1.709   4.673  0.0936 -0.1695  0.2164
 2478SOL     OW 7753   2.296   1.507   4.321 -0.4178 -0.2246 -0.5139
 2478SOL    HW1 7754   2.322   1.575   4.389 -1.7386 -0.2907  0.0996
 2478SOL    HW2 7755   2.230   1.548   4.257  1.0416 -0.0669 -1.9725
 2479SOL     OW 7756   1.137   1.478   4.672 -0.2365  0.1282 -0.5801
 2479SOL    HW1 7757   1.114   1.564   4.719  0.6065 -0.4040  0.8961
 2479SOL    HW2 7758   1.198   1.497   4.595  0.0032  0.8577 -0.2208
 2480SOL     OW 7759   2.753   0.803   0.485 -0.3983 -0.3075  0.4367
 2480SOL    HW1 7760   2.816   0.869   0.526 -0.2654  0.2382 -0.5957
 2480SOL    HW2 7761   2.800   0.756   0.410 -1.7061  1.4085 -1.5680
 2481SOL     OW 7762   2.471   1.009   5.523  0.6027  0.4458  0.1981
 2481SOL    HW1 7763   2.417   0.994   5.440  0.3998  1.1606  0.1961
 2481SOL    HW2 7764   2.419   1.063   5.588  0.7148 -0.2206  0.8537
 2482SOL     OW 7765   0.800   0.231   5.006  0.1282  0.5039 -1.0047
 2482SOL    HW1 7766   0.892   0.233   5.047  0.6753  0.9787 -2.1913
 2482SOL    HW2 7767   0.777   0.136   4.982  0.2527  0.3647 -0.5916
 2483SOL     OW 7768   3.160   4.360   5.377  0.2208 -0.2807 -0.0941
 2483SOL    HW1 7769   3.072   4.315   5.398 -1.1025  2.1361 -0.0991
 2483SOL    HW2 7770   3.209   4.377   5.462 -0.1187 -0.1246  0.0738
 2484SOL     OW 7771   1.998   1.449   0.008  0.5418 -0.2545  0.0375
 2484SOL    HW1 7772   2.040   1.414   0.091  0.0133 -1.5198 -0.2021
 2484SOL    HW2 7773   1.900   1.464   0.024  0.1815 -1.7232 -0.7012
 2485SOL     OW 7774   2.178   0.354   4.032  0.4984 -0.0752 -0.3050
 2485SOL    HW1 7775   2.251   0.359   4.100 -0.8303 -1.3660  1.3102
 2485SOL    HW2 7776   2.093   0.385   4.073  0.2435  2.3583 -2.4525
 2486SOL     OW 7777   4.465   1.819   4.744  0.0238  0.2322  0.2731
 2486SOL    HW1 7778   4.383   1.877   4.740  0.6936  1.1144 -2.1040
 2486SOL    HW2 7779   4.538   1.869   4.790  0.5001  1.2125 -1.4776
 2487SOL     OW 7780   1.797   1.110   3.472  0.0614  0.3729 -0.3236
 2487SOL    HW1 7781   1.777   1.124   3.569  0.2137 -0.9289 -0.0887
 2487SOL    HW2 7782   1.865   1.038   3.461 -0.3396  0.1264 -1.4118
 2488SOL     OW 7783   1.483   1.720   4.357 -0.1905  0.0576  0.3360
 2488SOL    HW1 7784   1.399   1.774   4.367  0.6899  1.9444 -1.5476
 2488SOL    HW2 7785   1.559   1.769   4.399  0.4780 -0.1503 -0.5995
 2489SOL     OW 7786   2.915   0.804   3.710 -0.3869  0.0798 -0.2813
 2489SOL    HW1 7787   3.015   0.800   3.720 -0.2854 -1.3686 -1.3727
 2489SOL    HW2 7788   2.873   0.827   3.797  0.8817  0.1849  0.3261
 2490SOL     OW 7789   2.112   1.611   4.143  0.1257 -0.4469 -0.2890
 2490SOL    HW1 7790   2.159   1.681   4.089 -0.8565  0.4600  0.0030
 2490SOL    HW2 7791   2.037   1.653   4.194  0.8197 -1.3375  1.5398
 2491SOL     OW 7792   3.216   0.854   5.516 -0.2249 -0.5980  0.4974
 2491SOL    HW1 7793   3.225   0.949   5.545 -0.1866  0.5962 -2.9257
 2491SOL    HW2 7794   3.120   0.828   5.514 -0.3959  0.0469 -0.3068
 2492SOL     OW 7795   3.534   1.460   4.015  0.2986  0.0417  0.0381
 2492SOL    HW1 7796   3.558   1.556   4.030  0.1605  0.1340 -0.3433
 2492SOL    HW2 7797   3.571   1.429   3.928  1.2810 -0.5678  0.6370
 2493SOL     OW 7798   1.601   2.167   4.564 -0.7177  0.6771  0.6847
 2493SOL    HW1 7799   1.628   2.156   4.468 -1.7622  0.1646  0.4261
 2493SOL    HW2 7800   1.682   2.180   4.621 -0.0194  0.0853 -0.1491
 2494SOL     OW 7801   3.832   2.150   0.377 -0.0064 -0.3636  0.2003
 2494SOL    HW1 7802   3.865   2.245   0.370 -1.4665  0.1940  0.4402
 2494SOL    HW2 7803   3.889   2.100   0.441  2.2224 -0.3360 -1.6483
 2495SOL     OW 7804   2.530   4.972   4.598 -0.0439 -0.9154 -0.6356
 2495SOL    HW1 7805   2.471   5.052   4.614 -0.0874 -1.1718  0.6256
 2495SOL    HW2 7806   2.626   5.000   4.602 -0.0698 -0.7674 -1.0939
 2496SOL     OW 7807   3.906   2.023   2.571  0.2450 -0.5730  0.5307
 2496SOL    HW1 7808   3.941   2.056   2.483 -0.2572  0.0766  0.5583
 2496SOL    HW2 7809   3.905   2.099   2.636 -1.6580 -0.4182  0.3804
 2497SOL     OW 7810   3.110   2.841   0.708  0.4536 -0.3115  0.3388
 2497SOL    HW1 7811   3.017   2.829   0.741  0.0212 -0.6542 -0.9620
 2497SOL    HW2 7812   3.156   2.911   0.764 -0.0664 -1.1987  1.9489
 2498SOL     OW 7813   2.580   0.834   3.646  0.2631 -0.1029  0.4485
 2498SOL    HW1 7814   2.637   0.760   3.611  0.1253  0.2517 -0.5751
 2498SOL    HW2 7815   2.532   0.804   3.728  0.5875 -0.9798  0.3244
 2499SOL     OW 7816   2.846   1.326   4.520  0.6403  0.4072 -0.4693
 2499SOL    HW1 7817   2.931   1.366   4.555  1.4432 -1.0184 -0.7441
 2499SOL    HW2 7818   2.833   1.235   4.559 -1.7925  1.3257  1.1038
 2500SOL     OW 7819   3.235   2.156   4.220  0.0512  0.5500  0.2679
 2500SOL    HW1 7820   3.291   2.227   4.179  1.8966 -0.5514  0.7345
 2500SOL    HW2 7821   3.206   2.091   4.150 -2.9700  2.4811 -0.4476
 2501SOL     OW 7822   4.270   2.438   4.543  0.1426 -0.0904  0.4532
 2501SOL    HW1 7823   4.180   2.432   4.586 -0.6084 -0.2509 -1.0476
 2501SOL    HW2 7824   4.280   2.363   4.477  1.2047  0.1715  0.3038
 2502SOL     OW 7825   4.223   5.389   5.338 -0.7006  0.1663 -0.2158
 2502SOL    HW1 7826   4.237   5.469   5.280 -0.1871 -1.3842 -2.3829
 2502SOL    HW2 7827   4.126   5.364   5.338 -0.9273  1.0070  0.8099
 2503SOL     OW 7828   3.078   4.801   3.422 -0.1503  0.5988  0.0830
 2503SOL    HW1 7829   3.009   4.874   3.418 -0.3417  0.4259  0.2000
 2503SOL    HW2 7830   3.046   4.729   3.483 -0.9327 -0.5690 -1.6172
 2504SOL     OW 7831   2.597   1.529   3.056  0.0114 -0.2276 -0.3854
 2504SOL    HW1 7832   2.519   1.514   3.117 -0.0750  0.0323 -0.4321
 2504SOL    HW2 7833   2.573   1.598   2.987  0.1005 -0.5348 -0.7283
 2505SOL     OW 7834   1.459   1.845   5.451  0.1291  0.2885  0.2752
 2505SOL    HW1 7835   1.544   1.794   5.461 -0.8589 -1.3147  1.0034
 2505SOL    HW2 7836   1.440   1.894   5.536 -1.7805 -2.9183  1.9271
 2506SOL     OW 7837   3.627   0.440   4.143 -0.0891 -0.1839 -0.1291
 2506SOL    HW1 7838   3.709   0.495   4.130  0.6769 -1.2072  0.2203
 2506SOL    HW2 7839   3.550   0.483   4.096  0.9514  0.0865 -1.6664
 2507SOL     OW 7840   3.288   1.646   3.414 -0.3130 -0.5195 -0.0055
 2507SOL    HW1 7841   3.192   1.673   3.416 -0.2216 -0.2017  1.1263
 2507SOL    HW2 7842   3.340   1.704   3.478  0.5241 -1.0728 -0.1616
 2508SOL     OW 7843   2.781   2.027   0.400  0.2744  0.0535 -0.0693
 2508SOL    HW1 7844   2.851   2.024   0.472  0.6496 -0.9210 -0.4464
 2508SOL    HW2 7845   2.715   1.953   0.415  0.1676  0.0487 -0.5319
 2509SOL     OW 7846   2.763   0.911   3.929  0.1472 -0.5011 -0.1999
 2509SOL    HW1 7847   2.777   1.008   3.948 -1.1348 -0.4528  0.6019
 2509SOL    HW2 7848   2.807   0.856   4.001  1.7943 -0.5831 -1.2152
 2510SOL     OW 7849   3.338   1.851   4.775  0.0696 -0.3904  0.1701
 2510SOL    HW1 7850   3.419   1.893   4.815 -0.2123 -0.8687  1.2948
 2510SOL    HW2 7851   3.257   1.904   4.800  0.0578  0.3230 -1.2957
 2511SOL     OW 7852   2.803   4.851   5.623  0.0870 -0.2599 -0.9494
 2511SOL    HW1 7853   2.750   4.932   5.599  0.3892 -0.2690 -1.6748
 2511SOL    HW2 7854   2.862   4.825   5.546  1.2856 -0.1312 -0.1005
 2512SOL     OW 7855   1.500   0.224   4.691  0.2828 -0.4875  0.0611
 2512SOL    HW1 7856   1.426   0.165   4.659  0.5326 -0.1085 -1.2345
 2512SOL    HW2 7857   1.464   0.316   4.708 -0.8147 -1.5152  4.9109
 2513SOL     OW 7858   3.041   0.079   0.843 -0.6333  0.0412 -0.1539
 2513SOL    HW1 7859   3.066   0.121   0.756  0.1729  1.5356  0.7521
 2513SOL    HW2 7860   2.968   0.133   0.886 -1.6726 -1.2061 -0.2933
 2514SOL     OW 7861   1.688   5.466   4.793 -0.2920  0.0141 -0.2297
 2514SOL    HW1 7862   1.702   5.498   4.887 -0.9998 -1.2289  0.3153
 2514SOL    HW2 7863   1.771   5.485   4.739  0.4419 -0.0240  0.8505
 2515SOL     OW 7864   1.905   1.210   4.917 -0.0045  0.0306 -0.6374
 2515SOL    HW1 7865   1.936   1.271   4.990 -0.9508  0.5205 -0.6274
 2515SOL    HW2 7866   1.983   1.166   4.875  0.6315  0.5573 -0.0330
 2516SOL     OW 7867   3.005   4.745   5.394  0.4296  0.2734  0.1285
 2516SOL    HW1 7868   2.946   4.788   5.325  0.4130 -0.7101 -0.4943
 2516SOL    HW2 7869   2.959   4.663   5.430 -0.0722  1.4060  2.1827
 2517SOL     OW 7870   1.686   0.184   2.848  0.3395  0.2363 -0.0351
 2517SOL    HW1 7871   1.716   0.258   2.788  2.0104 -0.1453  0.2915
 2517SOL    HW2 7872   1.657   0.106   2.793 -2.3140  1.3750 -0.4152
 2518SOL     OW 7873   2.761   5.402   0.195  0.1861 -0.1314 -0.1994
 2518SOL    HW1 7874   2.722   5.410   0.287 -0.7155 -0.0601 -0.5741
 2518SOL    HW2 7875   2.832   5.472   0.183  1.8251 -1.4739  1.1515
 2519SOL     OW 7876   1.532   5.188   4.195  0.4323  0.6507  0.2462
 2519SOL    HW1 7877   1.434   5.170   4.180 -0.4175  3.6044  1.6058
 2519SOL    HW2 7878   1.584   5.108   4.166 -2.3447 -1.0035 -0.6562
 2520SOL     OW 7879   2.504   0.971   3.941  0.5936 -0.0908 -0.8440
 2520SOL    HW1 7880   2.595   0.928   3.944  0.1379 -1.0509  0.5320
 2520SOL    HW2 7881   2.507   1.058   3.991  0.7348 -0.1850 -0.6861
 2521SOL     OW 7882   4.306   0.701   0.683 -0.0893 -0.0247 -0.2986
 2521SOL    HW1 7883   4.258   0.786   0.706  0.6171  0.3347 -0.1184
 2521SOL    HW2 7884   4.401   0.721   0.661  0.3374 -0.8635  0.6597
 2522SOL     OW 7885   5.526   0.762   0.142  0.2914  0.6471  0.2445
 2522SOL    HW1 7886   5.513   0.664   0.155 -0.7267  0.7366  0.0187
 2522SOL    HW2 7887   5.528   0.807   0.231 -1.8262  0.7007  0.3137
 2523SOL     OW 7888   2.180   0.707   4.111  0.8835  0.1611  0.0734
 2523SOL    HW1 7889   2.126   0.679   4.032 -0.0545  1.7435  0.1189
 2523SOL    HW2 7890   2.199   0.627   4.168 -1.2524 -0.4933 -0.0603
 2524SOL     OW 7891   3.868   0.746   0.736 -0.3718  0.0941 -0.3657
 2524SOL    HW1 7892   3.807   0.669   0.717 -0.8162  0.7547 -1.7895
 2524SOL    HW2 7893   3.836   0.795   0.818  0.3085 -1.5815  0.9515
 2525SOL     OW 7894   2.196   0.527   2.575  0.4245 -0.1870  0.2524
 2525SOL    HW1 7895   2.167   0.526   2.480  0.9716  0.6956  0.0643
 2525SOL    HW2 7896   2.181   0.437   2.616 -1.3686 -0.1248 -0.1949
 2526SOL     OW 7897   2.741   0.604   4.476 -0.0143 -0.3464  0.4676
 2526SOL    HW1 7898   2.836   0.574   4.486  0.6899  1.8608  0.8765
 2526SOL    HW2 7899   2.687   0.570   4.553  0.6388 -0.9206  0.6773
 2527SOL     OW 7900   1.930   5.352   3.669 -0.2655  0.2200  0.1350
 2527SOL    HW1 7901   1.892   5.270   3.712 -0.2764  0.4939  0.6509
 2527SOL    HW2 7902   1.858   5.396   3.614  0.2563 -1.1926 -1.7938
 2528SOL     OW 7903   3.655   5.366   5.460  0.3263 -0.4383 -0.3197
 2528SOL    HW1 7904   3.602   5.444   5.429  0.0843 -0.2510  0.5423
 2528SOL    HW2 7905   3.599   5.283   5.455 -0.8484  0.0579  2.5657
 2529SOL     OW 7906   2.934   5.430   5.138 -0.6168  0.3649 -0.1731
 2529SOL    HW1 7907   2.840   5.442   5.106 -0.4448  0.6244 -0.5940
 2529SOL    HW2 7908   2.997   5.438   5.060 -0.3735 -1.9983 -0.2714
 2530SOL     OW 7909   3.161   1.618   4.397  0.4362  0.0429 -0.1506
 2530SOL    HW1 7910   3.080   1.647   4.347  0.5227 -1.5990 -1.3062
 2530SOL    HW2 7911   3.215   1.698   4.424 -0.5786  1.0418 -1.0462
 2531SOL     OW 7912   2.195   2.059   4.909 -0.7524  0.0236  0.1349
 2531SOL    HW1 7913   2.146   1.972   4.906 -0.6347 -0.0911  1.1363
 2531SOL    HW2 7914   2.286   2.048   4.868  1.1474 -1.6452  4.1458
 2532SOL     OW 7915   2.185   1.289   4.478  0.3721  1.1939 -0.4012
 2532SOL    HW1 7916   2.205   1.358   4.409  1.6430  0.5773 -0.6754
 2532SOL    HW2 7917   2.086   1.281   4.490  0.1832  2.2622 -1.1700
 2533SOL     OW 7918   2.583   1.397   4.512  0.4513 -0.4352 -0.0609
 2533SOL    HW1 7919   2.666   1.348   4.537 -0.0028 -0.9160  0.5444
 2533SOL    HW2 7920   2.579   1.409   4.413  1.1716 -0.5238 -0.0999
 2534SOL     OW 7921   3.110   2.640   4.401 -0.4821  0.5818  0.0543
 2534SOL    HW1 7922   3.013   2.654   4.378 -0.7351  0.5677  1.0519
 2534SOL    HW2 7923   3.128   2.676   4.492  0.3642  0.2046  0.0464
 2535SOL     OW 7924   1.978   0.605   0.553 -0.8403 -0.3468  0.1401
 2535SOL    HW1 7925   1.999   0.699   0.525 -2.0506 -0.4004 -1.0534
 2535SOL    HW2 7926   2.007   0.542   0.482  1.0474 -1.0287  1.4451
 2536SOL     OW 7927   2.100   1.557   5.008  0.3651  0.2626  0.1128
 2536SOL    HW1 7928   2.052   1.545   4.921  0.4869 -0.4382  0.1416
 2536SOL    HW2 7929   2.042   1.526   5.083 -0.0795  1.6400  0.3781
 2537SOL     OW 7930   2.949   0.774   5.451  0.0338 -0.8104  0.5064
 2537SOL    HW1 7931   2.887   0.702   5.483  0.9028 -0.2987  3.6900
 2537SOL    HW2 7932   2.960   0.767   5.352 -2.8509 -2.6501  0.1923
 2538SOL     OW 7933   4.001   0.270   4.620 -0.4603 -0.0961 -0.5209
 2538SOL    HW1 7934   3.906   0.289   4.647 -0.9845 -0.8895 -1.6631
 2538SOL    HW2 7935   4.011   0.287   4.522  0.4497 -0.4744 -0.5016
 2539SOL     OW 7936   0.738   4.783   4.006 -0.4594  0.5663 -0.3968
 2539SOL    HW1 7937   0.729   4.816   4.100 -1.7242  0.6015 -0.5143
 2539SOL    HW2 7938   0.715   4.857   3.943  0.0834  0.4504 -0.7369
 2540SOL     OW 7939   3.893   1.442   3.659 -0.3497 -0.2824 -0.2968
 2540SOL    HW1 7940   3.933   1.527   3.694 -1.7986  1.9012 -3.4301
 2540SOL    HW2 7941   3.956   1.400   3.593  0.2282 -1.5702  1.0125
 2541SOL     OW 7942   2.416   0.559   4.932  0.3933 -0.3939  0.2426
 2541SOL    HW1 7943   2.398   0.468   4.970 -1.6081 -0.1950 -0.1207
 2541SOL    HW2 7944   2.345   0.582   4.865  0.6449  1.5762  0.5933
 2542SOL     OW 7945   4.065   0.670   4.506 -0.0530  0.0962  0.5511
 2542SOL    HW1 7946   4.050   0.766   4.480  0.6974  0.3344  0.9966
 2542SOL    HW2 7947   4.162   0.653   4.518  0.0246 -1.2196 -1.4156
 2543SOL     OW 7948   2.995   5.534   5.389 -0.1850  0.4544  0.0738
 2543SOL    HW1 7949   3.036   5.624   5.377  0.8565 -0.0329 -0.1433
 2543SOL    HW2 7950   2.991   5.487   5.301  0.4235 -0.1807  0.3737
 2544SOL     OW 7951   2.557   5.066   4.322  0.0196  0.2765 -0.2463
 2544SOL    HW1 7952   2.616   4.990   4.350 -0.2411 -0.3671 -1.3628
 2544SOL    HW2 7953   2.469   5.058   4.368  0.4808  0.7462  0.7544
 2545SOL     OW 7954   4.362   1.421   4.306  0.0386 -0.0333 -0.0979
 2545SOL    HW1 7955   4.273   1.388   4.337  0.1984  0.9783  1.5575
 2545SOL    HW2 7956   4.353   1.456   4.212 -1.3147  0.0530  0.0380
 2546SOL     OW 7957   2.768   1.840   5.488 -0.0857  0.0040 -0.5475
 2546SOL    HW1 7958   2.819   1.823   5.572  1.4110  1.3647 -1.1319
 2546SOL    HW2 7959   2.831   1.859   5.413 -1.3828 -1.2883 -2.0456
 2547SOL     OW 7960   3.307   3.924   3.664  0.0274  0.0248  0.4330
 2547SOL    HW1 7961   3.319   3.906   3.567  1.4480 -2.6691  1.0094
 2547SOL    HW2 7962   3.379   3.985   3.696  2.0291 -2.2146  0.4652
 2548SOL     OW 7963   3.645   0.969   5.434  0.5714 -0.1579 -0.5603
 2548SOL    HW1 7964   3.693   0.957   5.521 -0.2998  0.6677  0.0554
 2548SOL    HW2 7965   3.700   0.929   5.361  0.2219 -3.1093  0.6448
 2549SOL     OW 7966   2.613   5.454   3.733  0.0623 -0.3706  0.6408
 2549SOL    HW1 7967   2.637   5.415   3.822  0.9131 -0.1693  0.5048
 2549SOL    HW2 7968   2.666   5.408   3.661  2.7728  2.3852  0.6555
 2550SOL     OW 7969   1.909   1.651   3.618 -0.4437  0.2607 -0.2465
 2550SOL    HW1 7970   1.924   1.733   3.562  0.5714 -1.1972 -2.2529
 2550SOL    HW2 7971   1.994   1.599   3.625 -0.5350  0.3487  2.7404
 2551SOL     OW 7972   2.364   1.353   5.353 -0.4025 -0.0251  0.2887
 2551SOL    HW1 7973   2.342   1.371   5.257 -0.1847 -1.1708  0.0086
 2551SOL    HW2 7974   2.290   1.300   5.395  0.5801 -1.6245  0.0652
 2552SOL     OW 7975   1.916   3.219   0.578  0.1319 -0.7396 -0.2213
 2552SOL    HW1 7976   1.862   3.151   0.628 -0.9132  0.9931  1.0775
 2552SOL    HW2 7977   1.996   3.245   0.633 -0.4427  0.3840  0.1068
 2553SOL     OW 7978   3.026   1.795   0.764  0.0231 -0.6261 -0.2899
 2553SOL    HW1 7979   2.965   1.789   0.843  0.0969  0.3344 -0.1578
 2553SOL    HW2 7980   3.054   1.702   0.737 -1.5333 -1.0920 -0.4003
 2554SOL     OW 7981   3.695   2.190   5.525 -0.4331  0.0804 -0.0290
 2554SOL    HW1 7982   3.788   2.226   5.522  0.3751 -1.7145  1.5957
 2554SOL    HW2 7983   3.697   2.091   5.542 -2.6440  0.0213  0.2628
 2555SOL     OW 7984   2.941   3.114   0.991  0.5822 -0.4493 -0.2667
 2555SOL    HW1 7985   2.867   3.049   1.005  0.7172 -0.6162 -0.3237
 2555SOL    HW2 7986   2.928   3.161   0.904  0.6160 -0.5772 -0.3418
 2556SOL     OW 7987   3.672   4.357   4.513  0.0432  0.2370  0.3298
 2556SOL    HW1 7988   3.700   4.302   4.592 -1.7695 -0.1097  0.7620
 2556SOL    HW2 7989   3.645   4.296   4.438  0.3569  0.5681 -0.0607
 2557SOL     OW 7990   2.977   2.001   0.599 -0.3969  0.4616 -0.5569
 2557SOL    HW1 7991   2.986   2.079   0.662  1.4517 -1.4092  1.6893
 2557SOL    HW2 7992   2.969   1.916   0.652 -1.9276 -0.9740 -2.9152
 2558SOL     OW 7993   4.815   1.867   5.337  0.0926 -0.0973  0.1105
 2558SOL    HW1 7994   4.726   1.912   5.338  0.0420 -0.2037  0.5434
 2558SOL    HW2 7995   4.806   1.775   5.299  0.0033 -0.1393  0.2341
 2559SOL     OW 7996   3.535   2.811   1.073  0.4485 -0.2023  1.5015
 2559SOL    HW1 7997   3.626   2.770   1.077 -0.2499 -1.7818  2.4355
 2559SOL    HW2 7998   3.542   2.909   1.054  2.1649 -0.9007 -2.4543
 2560SOL     OW 7999   2.776   2.909   0.329 -0.4457  0.1050 -0.1528
 2560SOL    HW1 8000   2.860   2.875   0.370 -1.3952  0.5002  2.3126
 2560SOL    HW2 8001   2.723   2.832   0.292  0.1635 -0.3505 -0.0839
 2561SOL     OW 8002   2.165   2.636   1.144 -0.0832  0.1834 -0.3205
 2561SOL    HW1 8003   2.245   2.578   1.130 -0.7186 -0.5134 -1.1588
 2561SOL    HW2 8004   2.098   2.620   1.071 -0.8988  0.9117  0.2382
 2562SOL     OW 8005   2.152   1.248   5.496  0.3267  0.2959  0.0497
 2562SOL    HW1 8006   2.087   1.324   5.502 -0.2995 -0.1651 -0.6442
 2562SOL    HW2 8007   2.103   1.166   5.468  1.6411  0.5998 -3.6608
 2563SOL     OW 8008   4.346   1.946   0.329 -0.7147 -0.4543  0.4688
 2563SOL    HW1 8009   4.274   1.997   0.282  0.6633 -0.2387 -1.5702
 2563SOL    HW2 8010   4.318   1.925   0.422 -3.1170  0.1803 -0.0580
 2564SOL     OW 8011   2.818   3.226   0.643 -0.0777  0.0956  0.8208
 2564SOL    HW1 8012   2.803   3.324   0.636 -0.1345 -0.0121 -1.1412
 2564SOL    HW2 8013   2.915   3.209   0.664  0.3156  0.5812 -0.4618
 2565SOL     OW 8014   1.666   3.610   1.000 -0.7199  0.4963  0.5732
 2565SOL    HW1 8015   1.688   3.670   1.077  2.2669  1.5481 -0.9728
 2565SOL    HW2 8016   1.666   3.515   1.031  0.9275  0.8628  1.8374
 2566SOL     OW 8017   0.891   3.841   0.148  0.1988  0.5018  0.1322
 2566SOL    HW1 8018   0.947   3.768   0.109  0.6367  0.9441 -0.0802
 2566SOL    HW2 8019   0.949   3.921   0.168 -0.0403  0.3422  1.5713
 2567SOL     OW 8020   1.832   3.829   2.296 -0.0815 -0.0535  0.5210
 2567SOL    HW1 8021   1.787   3.877   2.371  1.2374  1.2778  0.5053
 2567SOL    HW2 8022   1.926   3.805   2.322  0.2672  0.0729 -0.5542
 2568SOL     OW 8023   1.505   2.504   0.613 -0.1266 -0.4386  0.2316
 2568SOL    HW1 8024   1.548   2.415   0.630  0.1732  0.1598  3.1689
 2568SOL    HW2 8025   1.576   2.573   0.602 -0.3683 -0.3229 -0.6625
 2569SOL     OW 8026   3.735   2.068   1.449 -0.2721  0.1737 -0.2030
 2569SOL    HW1 8027   3.741   2.161   1.412 -0.6639  0.4113  0.3308
 2569SOL    HW2 8028   3.643   2.051   1.482 -0.2635 -0.4925 -0.5113
 2570SOL     OW 8029   0.865   2.208   0.794  0.3214 -0.1248 -0.5919
 2570SOL    HW1 8030   0.953   2.197   0.839 -0.7925 -1.2365  1.4864
 2570SOL    HW2 8031   0.825   2.296   0.820 -0.0497 -0.5003  0.1437
 2571SOL     OW 8032   3.994   3.188   5.375 -0.0397 -0.2625 -0.2599
 2571SOL    HW1 8033   4.020   3.126   5.450 -1.9022 -0.4192  0.3214
 2571SOL    HW2 8034   4.011   3.143   5.287 -1.6387 -1.8042  0.1560
 2572SOL     OW 8035   1.384   3.855   4.864  0.1407 -0.1549  0.6724
 2572SOL    HW1 8036   1.403   3.812   4.952  2.0173 -0.7667  0.0101
 2572SOL    HW2 8037   1.394   3.787   4.791 -1.6024  0.2921 -0.0272
 2573SOL     OW 8038   3.222   3.097   0.408 -0.3868 -0.2159 -0.2409
 2573SOL    HW1 8039   3.315   3.088   0.372  0.0975 -0.0413  0.9260
 2573SOL    HW2 8040   3.175   3.169   0.359  0.7865  1.0937  0.4790
 2574SOL     OW 8041   3.413   3.337   1.003  0.2931  0.3126 -0.2036
 2574SOL    HW1 8042   3.322   3.298   1.019 -0.8449  1.5557 -2.9717
 2574SOL    HW2 8043   3.423   3.421   1.056  0.0855 -0.1614  0.6027
 2575SOL     OW 8044   2.927   1.889   0.165 -0.3341 -0.1697 -0.1015
 2575SOL    HW1 8045   2.883   1.959   0.221 -1.5220  0.3328 -1.6070
 2575SOL    HW2 8046   3.014   1.925   0.130 -0.9207  0.5681 -0.8409
 2576SOL     OW 8047   2.468   4.424   0.963 -0.0984  0.0629 -0.1563
 2576SOL    HW1 8048   2.379   4.383   0.941 -0.3703  0.4321  0.2451
 2576SOL    HW2 8049   2.458   4.523   0.974  0.6145  0.3093 -1.4535
 2577SOL     OW 8050   3.007   3.324   1.363 -0.1260  0.5164  0.2655
 2577SOL    HW1 8051   2.999   3.231   1.328 -1.3728  0.3584  0.9268
 2577SOL    HW2 8052   2.930   3.379   1.331 -1.3357  0.3641  2.6886
 2578SOL     OW 8053   1.565   4.588   1.247  0.2940  0.1637  0.3952
 2578SOL    HW1 8054   1.653   4.581   1.201  0.6625  1.1038  0.9217
 2578SOL    HW2 8055   1.497   4.627   1.185  0.7470  1.2698  0.5587
 2579SOL     OW 8056   0.972   2.632   0.694 -0.0751  0.1530  0.5157
 2579SOL    HW1 8057   0.937   2.574   0.768  0.1657  0.4518  0.8655
 2579SOL    HW2 8058   1.025   2.576   0.630 -0.9540 -0.2608  0.1202
 2580SOL     OW 8059   4.396   2.170   1.283  0.0257  0.6190 -0.0725
 2580SOL    HW1 8060   4.297   2.175   1.264 -0.2035  0.5659  1.0600
 2580SOL    HW2 8061   4.423   2.074   1.291 -0.1827  0.6576  1.3122
 2581SOL     OW 8062   2.155   1.727   1.291  0.4027 -0.2531  0.3378
 2581SOL    HW1 8063   2.120   1.773   1.209 -0.9433 -1.7387  0.0299
 2581SOL    HW2 8064   2.092   1.654   1.318  0.9607  0.0140  2.5591
 2582SOL     OW 8065   2.576   3.518   0.705  0.1731  0.4631  0.3658
 2582SOL    HW1 8066   2.672   3.498   0.690 -0.3262 -0.1623 -2.5630
 2582SOL    HW2 8067   2.552   3.605   0.661 -1.1459 -0.8039 -1.5987
 2583SOL     OW 8068   2.415   4.693   0.985  0.2505 -0.0602 -0.8139
 2583SOL    HW1 8069   2.316   4.710   0.988  0.3745  0.7014  1.7195
 2583SOL    HW2 8070   2.462   4.765   1.036  2.2696  0.2162 -2.8861
 2584SOL     OW 8071   1.427   1.979   1.663  0.7559  0.1722  0.2695
 2584SOL    HW1 8072   1.390   2.064   1.699 -0.6592 -0.5091  0.5078
 2584SOL    HW2 8073   1.412   1.905   1.729 -0.3022 -0.7380 -0.9329
 2585SOL     OW 8074   3.375   2.315   1.380  0.0402 -0.0653 -0.5265
 2585SOL    HW1 8075   3.380   2.367   1.465 -2.9682  2.1613 -1.5207
 2585SOL    HW2 8076   3.322   2.232   1.395 -3.5325  1.9589 -0.6726
 2586SOL     OW 8077   3.992   4.350   0.392  0.2277 -0.4980 -0.1554
 2586SOL    HW1 8078   3.908   4.404   0.401 -0.9622 -2.2025 -0.6677
 2586SOL    HW2 8079   3.981   4.285   0.317  1.7087 -1.3256  0.3276
 2587SOL     OW 8080   3.010   2.771   1.746 -0.2191 -0.4830 -0.3373
 2587SOL    HW1 8081   2.973   2.797   1.657  0.5754 -0.6912 -0.7424
 2587SOL    HW2 8082   2.968   2.827   1.818 -0.5455 -0.0075 -0.8935
 2588SOL     OW 8083   4.220   3.609   0.890 -0.3544 -0.9859  0.3105
 2588SOL    HW1 8084   4.222   3.551   0.972  2.2883  0.3534  1.3004
 2588SOL    HW2 8085   4.165   3.690   0.908  0.9936 -0.2275  1.1622
 2589SOL     OW 8086   1.805   1.788   0.861  0.2062  0.2424 -0.3098
 2589SOL    HW1 8087   1.715   1.762   0.827 -0.8561  1.3334  1.4913
 2589SOL    HW2 8088   1.852   1.707   0.897 -0.3649 -0.2158 -0.5772
 2590SOL     OW 8089   3.388   2.404   1.924  0.3518 -0.3287 -0.0250
 2590SOL    HW1 8090   3.307   2.458   1.899  0.1458  0.0586  1.4097
 2590SOL    HW2 8091   3.402   2.332   1.856 -0.5024  0.3237 -0.9275
 2591SOL     OW 8092   2.544   1.944   0.722  0.0403  0.6979  0.3267
 2591SOL    HW1 8093   2.618   1.976   0.781  0.5465 -0.2995  0.2708
 2591SOL    HW2 8094   2.493   2.022   0.685 -0.1251  1.3406  1.8669
 2592SOL     OW 8095   2.186   2.540   1.616  0.1801 -0.0364  0.0657
 2592SOL    HW1 8096   2.230   2.623   1.583 -1.1083 -0.0327 -1.8287
 2592SOL    HW2 8097   2.244   2.461   1.596  0.3157  0.1805 -0.4203
 2593SOL     OW 8098   2.411   3.415   0.878 -0.0629 -0.0359  0.1037
 2593SOL    HW1 8099   2.393   3.325   0.839 -2.4315  0.2614  0.3658
 2593SOL    HW2 8100   2.481   3.462   0.824 -0.5063 -1.1213 -1.4647
 2594SOL     OW 8101   3.742   2.411   0.993  0.3669  0.4773  0.4059
 2594SOL    HW1 8102   3.709   2.371   1.078  1.2372  0.5152  0.7666
 2594SOL    HW2 8103   3.782   2.341   0.935  1.7114  0.7688  0.9531
 2595SOL     OW 8104   3.306   2.503   1.575  0.2240 -0.6096 -1.0390
 2595SOL    HW1 8105   3.250   2.529   1.654  0.3987  1.0931 -1.4221
 2595SOL    HW2 8106   3.380   2.570   1.564  0.2632 -0.8749 -2.5706
 2596SOL     OW 8107   3.149   2.079   0.997  0.2819 -0.2647  0.3724
 2596SOL    HW1 8108   3.234   2.070   0.945  1.0899  3.2256  0.8232
 2596SOL    HW2 8109   3.079   2.120   0.939 -0.2665 -0.6019  0.7861
 2597SOL     OW 8110   1.341   1.200   1.603 -0.1939 -0.2123 -0.0983
 2597SOL    HW1 8111   1.430   1.234   1.573 -0.3336  0.6564  0.4204
 2597SOL    HW2 8112   1.269   1.235   1.543 -0.4596  1.4209  1.1108
 2598SOL     OW 8113   2.296   3.578   1.694 -0.7342  0.2270  0.0907
 2598SOL    HW1 8114   2.283   3.658   1.751  0.7783  0.6857 -0.1695
 2598SOL    HW2 8115   2.280   3.495   1.748 -1.6229  0.6733  0.5345
 2599SOL     OW 8116   2.533   3.566   0.133  0.0379  0.0200  0.4924
 2599SOL    HW1 8117   2.556   3.657   0.167 -2.5241  0.9442 -0.0218
 2599SOL    HW2 8118   2.565   3.497   0.198 -2.3483  1.5483  3.5874
 2600SOL     OW 8119   4.762   1.748   1.916 -0.1408  0.5851  0.3150
 2600SOL    HW1 8120   4.767   1.664   1.862  0.0060 -1.1813  2.8757
 2600SOL    HW2 8121   4.666   1.771   1.933 -0.2009 -0.5066  1.6026
 2601SOL     OW 8122   2.530   3.273   1.169  0.3735 -0.0807 -0.3862
 2601SOL    HW1 8123   2.628   3.294   1.176  0.8924 -1.1837 -3.2413
 2601SOL    HW2 8124   2.489   3.331   1.099 -1.1727  0.6164  1.0203
 2602SOL     OW 8125   3.617   2.573   1.893  0.2959 -0.3126  0.0138
 2602SOL    HW1 8126   3.529   2.528   1.877  0.5368 -0.3755 -1.2570
 2602SOL    HW2 8127   3.614   2.624   1.979 -1.0377 -0.1630 -0.1083
 2603SOL     OW 8128   2.533   2.638   1.496  0.0231  0.2636 -0.0331
 2603SOL    HW1 8129   2.622   2.682   1.506 -0.9979  2.6791 -1.0155
 2603SOL    HW2 8130   2.546   2.546   1.457  2.1044  0.2197  0.6505
 2604SOL     OW 8131   3.164   3.947   4.997 -0.4100 -0.5170 -0.1551
 2604SOL    HW1 8132   3.205   3.864   5.034  1.9810  0.9078  0.5521
 2604SOL    HW2 8133   3.234   4.004   4.956 -2.1361  0.7830 -1.4506
 2605SOL     OW 8134   1.732   2.074   0.442  0.0201  0.4778 -0.1538
 2605SOL    HW1 8135   1.811   2.130   0.421  0.9791 -0.4499  0.8387
 2605SOL    HW2 8136   1.759   1.977   0.443 -0.8987  0.2104  1.1297
 2606SOL     OW 8137   3.861   3.012   0.319  0.3817  0.1168 -0.1623
 2606SOL    HW1 8138   3.900   2.939   0.262 -0.5129 -1.4819  1.1869
 2606SOL    HW2 8139   3.915   3.095   0.308  1.4923 -0.7641 -1.6978
 2607SOL     OW 8140   1.604   4.079   0.180 -0.5060 -0.0085 -0.1383
 2607SOL    HW1 8141   1.575   4.053   0.088 -0.9969  0.6612 -0.1752
 2607SOL    HW2 8142   1.527   4.118   0.230  0.0830  0.8582  0.1113
 2608SOL     OW 8143   2.784   2.680   4.412  0.3143 -0.4575  0.1309
 2608SOL    HW1 8144   2.800   2.767   4.457 -1.6182 -1.1938  2.4876
 2608SOL    HW2 8145   2.787   2.692   4.313 -0.5323  2.4250  0.3591
 2609SOL     OW 8146   1.833   4.018   0.300 -0.3911  0.1097  0.0718
 2609SOL    HW1 8147   1.914   4.051   0.251 -0.6131 -1.7911 -1.7011
 2609SOL    HW2 8148   1.751   4.053   0.256 -0.5872  0.9371  1.0537
 2610SOL     OW 8149   2.713   3.425   1.021 -0.0569  0.3390  0.4297
 2610SOL    HW1 8150   2.750   3.419   0.928 -0.9639 -0.6085  0.1180
 2610SOL    HW2 8151   2.654   3.504   1.029  0.1548  0.5160  0.2510
 2611SOL     OW 8152   1.960   2.685   1.541 -0.1542  0.4931 -0.5633
 2611SOL    HW1 8153   2.038   2.640   1.584  0.3367  1.6433 -0.1984
 2611SOL    HW2 8154   1.936   2.767   1.594 -1.5661  0.2042 -0.7166
 2612SOL     OW 8155   3.789   2.696   1.703 -0.2550 -0.3694  0.1006
 2612SOL    HW1 8156   3.719   2.672   1.770 -0.6017  0.3037 -0.0132
 2612SOL    HW2 8157   3.856   2.622   1.697 -0.7500 -0.8573  0.4796
 2613SOL     OW 8158   3.261   0.835   0.231 -0.0572  0.6647  0.2260
 2613SOL    HW1 8159   3.190   0.835   0.160  0.9940  0.9565 -0.8630
 2613SOL    HW2 8160   3.275   0.929   0.264  0.6830  0.8083 -0.4705
 2614SOL     OW 8161   2.317   1.885   1.807  0.6824  0.1073  0.6623
 2614SOL    HW1 8162   2.358   1.904   1.896 -1.6575  0.1642  1.8055
 2614SOL    HW2 8163   2.261   1.962   1.778  0.8135 -0.2146 -0.5335
 2615SOL     OW 8164   2.823   3.355   5.516 -0.3508 -0.6925  0.4220
 2615SOL    HW1 8165   2.854   3.441   5.556  0.5980 -0.4578 -0.7658
 2615SOL    HW2 8166   2.762   3.374   5.439 -0.4444 -1.0973  0.3921
 2616SOL     OW 8167   4.654   2.755   1.570  0.7432 -0.3931  0.2127
 2616SOL    HW1 8168   4.675   2.842   1.526 -0.5985 -0.5418 -0.8039
 2616SOL    HW2 8169   4.661   2.681   1.503 -2.2491 -0.5189 -0.1067
 2617SOL     OW 8170   2.443   3.995   1.577 -0.0515  0.1060 -0.0363
 2617SOL    HW1 8171   2.453   3.982   1.676 -2.8784 -3.0101  0.0616
 2617SOL    HW2 8172   2.466   4.089   1.552  2.4446  0.5338  3.2456
 2618SOL     OW 8173   3.012   2.203   0.790 -0.2232 -0.3165 -0.1659
 2618SOL    HW1 8174   3.106   2.236   0.799 -0.0805 -0.4235 -1.1066
 2618SOL    HW2 8175   2.952   2.279   0.766 -0.1348 -0.4787 -0.9301
 2619SOL     OW 8176   2.223   2.535   0.626  0.4563  0.5454  0.2511
 2619SOL    HW1 8177   2.255   2.478   0.551  1.1140 -0.4771  1.2735
 2619SOL    HW2 8178   2.258   2.628   0.616  0.0278  0.5895 -1.0095
 2620SOL     OW 8179   3.660   2.333   1.325  0.1334 -0.6268  0.4857
 2620SOL    HW1 8180   3.560   2.336   1.333  0.1717 -0.5677  0.9453
 2620SOL    HW2 8181   3.698   2.424   1.342  0.0616  0.1387 -2.7426
 2621SOL     OW 8182   1.972   1.698   5.342 -0.4989 -0.7871  0.3577
 2621SOL    HW1 8183   2.037   1.672   5.413  0.6106 -0.4807 -0.5244
 2621SOL    HW2 8184   1.998   1.786   5.302  0.2710 -1.9832 -1.9827
 2622SOL     OW 8185   3.321   1.222   1.156  0.3675 -0.5469 -0.5645
 2622SOL    HW1 8186   3.222   1.233   1.153  0.1565  0.1591  3.4284
 2622SOL    HW2 8187   3.345   1.126   1.140 -0.8195 -0.6104 -2.2220
 2623SOL     OW 8188   3.498   2.017   1.560  0.0564 -0.7891 -0.1470
 2623SOL    HW1 8189   3.515   1.918   1.560  0.5453 -0.7284  1.6390
 2623SOL    HW2 8190   3.411   2.035   1.514  0.6516 -1.8795 -1.8263
 2624SOL     OW 8191   2.866   3.077   5.513 -0.4504  0.2334  0.0764
 2624SOL    HW1 8192   2.793   3.035   5.567 -0.3612 -0.3152 -0.2250
 2624SOL    HW2 8193   2.864   3.176   5.526 -1.6405  0.2912 -0.3873
 2625SOL     OW 8194   2.170   3.863   1.561  0.2209  0.2576 -0.0509
 2625SOL    HW1 8195   2.204   3.801   1.490  0.4785  0.4114 -0.0671
 2625SOL    HW2 8196   2.244   3.925   1.588  0.1983  0.0335  0.5340
 2626SOL     OW 8197   2.688   3.489   5.314 -0.3570  0.2163 -0.4459
 2626SOL    HW1 8198   2.689   3.589   5.318 -1.2965  0.2173  2.9717
 2626SOL    HW2 8199   2.607   3.458   5.264 -1.3144  1.2044  0.4457
 2627SOL     OW 8200   3.834   2.799   0.674  0.1268  0.1219 -0.0289
 2627SOL    HW1 8201   3.861   2.708   0.704  1.1599  0.2637 -0.4895
 2627SOL    HW2 8202   3.753   2.792   0.616 -0.3332 -0.4010  0.6661
 2628SOL     OW 8203   1.344   1.926   1.400 -0.3108 -0.1808 -0.0564
 2628SOL    HW1 8204   1.420   1.929   1.335  0.8537 -1.7183  1.1581
 2628SOL    HW2 8205   1.371   1.967   1.486 -0.9445 -0.4949  0.3024
 2629SOL     OW 8206   1.944   0.832   0.399  0.9481 -0.1170 -0.1672
 2629SOL    HW1 8207   1.965   0.821   0.302 -0.0539 -0.1497 -0.3947
 2629SOL    HW2 8208   1.880   0.908   0.411 -0.1282 -1.0692  0.2902
 2630SOL     OW 8209   2.332   2.800   0.783 -0.4490  0.5918  0.1796
 2630SOL    HW1 8210   2.239   2.809   0.818 -0.5646  0.8991 -0.1978
 2630SOL    HW2 8211   2.330   2.803   0.683  0.0063  1.0348  0.1779
 2631SOL     OW 8212   1.637   2.332   1.372  0.3724  0.3347  0.1029
 2631SOL    HW1 8213   1.701   2.397   1.414  0.9456 -0.3829  0.3632
 2631SOL    HW2 8214   1.661   2.239   1.401 -0.7302  0.0466  0.1116
 2632SOL     OW 8215   3.628   3.423   5.459 -0.1023 -0.3348  0.2794
 2632SOL    HW1 8216   3.677   3.395   5.377  1.2740 -1.5725  1.4509
 2632SOL    HW2 8217   3.615   3.343   5.519  1.8898  1.0063  2.7216
 2633SOL     OW 8218   4.456   1.380   0.732 -0.1061 -0.3996 -0.7223
 2633SOL    HW1 8219   4.536   1.431   0.761 -0.5293 -0.2485  0.2208
 2633SOL    HW2 8220   4.473   1.282   0.742  0.5542 -0.4583 -2.1379
 2634SOL     OW 8221   3.481   3.422   0.294  0.1552 -0.2358 -0.8491
 2634SOL    HW1 8222   3.576   3.405   0.319  0.9131  0.5549 -2.9929
 2634SOL    HW2 8223   3.475   3.506   0.241 -2.2687  1.7054  2.1139
 2635SOL     OW 8224   2.358   3.451   5.552 -0.3619  0.0020  0.2057
 2635SOL    HW1 8225   2.427   3.474   5.620 -0.4486  1.4038 -0.1479
 2635SOL    HW2 8226   2.375   3.503   5.468 -0.7371 -1.0773 -0.5697
 2636SOL     OW 8227   3.590   4.335   0.430  0.1755 -0.6819  0.6339
 2636SOL    HW1 8228   3.611   4.383   0.345 -2.8015  0.9221  0.6571
 2636SOL    HW2 8229   3.553   4.245   0.409 -2.0516  0.3091  0.0454
 2637SOL     OW 8230   3.269   2.829   1.039 -0.2535 -0.4758  0.4477
 2637SOL    HW1 8231   3.239   2.850   1.132 -1.0837  1.6502 -0.2290
 2637SOL    HW2 8232   3.368   2.813   1.038 -0.0515  0.5880  1.5524
 2638SOL     OW 8233   3.099   1.567   0.050  0.5011  0.5377  0.3688
 2638SOL    HW1 8234   3.069   1.600  -0.039  1.8925  0.0983 -0.2942
 2638SOL    HW2 8235   3.157   1.636   0.094  3.6741 -0.9385 -1.1562
 2639SOL     OW 8236   2.953   2.697   1.465  0.1500 -0.1946 -0.3378
 2639SOL    HW1 8237   2.897   2.720   1.386  0.3176 -1.1013 -0.7365
 2639SOL    HW2 8238   3.004   2.613   1.446 -2.8931 -2.8897  2.2135
 2640SOL     OW 8239   3.621   2.617   0.327  0.6890  0.3711  0.8695
 2640SOL    HW1 8240   3.653   2.695   0.381 -0.3369  1.2798  0.2096
 2640SOL    HW2 8241   3.523   2.605   0.341  0.7684 -0.5990  0.6841
 2641SOL     OW 8242   2.557   1.780   1.037  0.0265 -0.0304  0.2649
 2641SOL    HW1 8243   2.498   1.830   1.100 -1.6686 -1.6357  0.0599
 2641SOL    HW2 8244   2.519   1.787   0.944  1.4746  0.7884 -0.3010
 2642SOL     OW 8245   2.621   1.818   0.499 -0.2312  0.2246  0.9140
 2642SOL    HW1 8246   2.600   1.865   0.585  0.8835  1.4044  0.5887
 2642SOL    HW2 8247   2.685   1.744   0.516  0.7674  1.0794  1.0111
 2643SOL     OW 8248   2.264   2.771   0.490 -0.2865  0.4893 -0.7780
 2643SOL    HW1 8249   2.223   2.849   0.443  2.0424  2.7447  0.6764
 2643SOL    HW2 8250   2.351   2.747   0.447 -0.8654 -1.2493 -1.0763
 2644SOL     OW 8251   2.349   2.211   1.387 -0.3712 -0.0740 -0.4649
 2644SOL    HW1 8252   2.406   2.138   1.349 -0.2449  0.7364 -1.9042
 2644SOL    HW2 8253   2.259   2.208   1.345 -0.3685  0.5835 -0.5304
 2645SOL     OW 8254   1.993   3.596   1.513 -0.0748 -0.2662 -0.0792
 2645SOL    HW1 8255   2.017   3.583   1.609  1.4024  0.6715 -0.2793
 2645SOL    HW2 8256   1.996   3.508   1.466  1.1562 -0.4787  0.3532
 2646SOL     OW 8257   2.807   3.157   0.370  0.0263 -0.1757 -0.1946
 2646SOL    HW1 8258   2.787   3.060   0.356 -0.3997 -0.2171  0.6401
 2646SOL    HW2 8259   2.827   3.174   0.467 -1.0057  0.7583 -0.1256
 2647SOL     OW 8260   2.576   2.431   1.126 -0.4451  0.0888 -0.4558
 2647SOL    HW1 8261   2.591   2.530   1.118 -0.7799 -0.0064 -3.1665
 2647SOL    HW2 8262   2.606   2.400   1.216  0.4931  2.4983  0.1429
 2648SOL     OW 8263   2.871   3.820   4.961 -0.2839 -0.1484  0.2887
 2648SOL    HW1 8264   2.963   3.857   4.972  0.0446  0.2899 -2.9543
 2648SOL    HW2 8265   2.867   3.727   4.998  1.0553  0.3185  1.6661
 2649SOL     OW 8266   2.713   3.564   4.998 -0.1253 -0.1213 -0.3720
 2649SOL    HW1 8267   2.630   3.513   5.021 -1.0668  1.8326  0.9228
 2649SOL    HW2 8268   2.696   3.620   4.917  0.5585 -1.0556 -1.1777
 2650SOL     OW 8269   2.781   1.301   5.574  0.0380 -0.4387  0.2316
 2650SOL    HW1 8270   2.878   1.288   5.598 -0.2875  0.6932  2.3946
 2650SOL    HW2 8271   2.756   1.236   5.503  2.0604 -1.6647  0.5499
 2651SOL     OW 8272   1.868   1.564   1.030  0.5364 -0.2716  0.2254
 2651SOL    HW1 8273   1.960   1.528   1.048  0.0659 -2.3441 -1.1830
 2651SOL    HW2 8274   1.803   1.489   1.023 -1.2203  1.1329  0.7447
 2652SOL     OW 8275   2.839   1.692   1.075  0.2675 -0.7883  0.3178
 2652SOL    HW1 8276   2.742   1.712   1.067 -0.2198 -2.7054  0.9052
 2652SOL    HW2 8277   2.871   1.647   0.991  1.5467  2.8164 -1.3488
 2653SOL     OW 8278   3.751   3.219   2.511  0.7948 -0.6765 -0.0933
 2653SOL    HW1 8279   3.792   3.152   2.572 -2.7781 -1.9135  1.1808
 2653SOL    HW2 8280   3.699   3.172   2.439 -2.0396  0.5677  0.9835
 2654SOL     OW 8281   3.054   0.880   2.203 -0.1363  0.3072  0.7579
 2654SOL    HW1 8282   3.026   0.897   2.108  0.4785 -1.0790  0.2976
 2654SOL    HW2 8283   2.988   0.921   2.265 -0.3948  1.5006 -0.2570
 2655SOL     OW 8284   2.469   1.952   2.021 -0.3597 -0.2843 -0.3135
 2655SOL    HW1 8285   2.476   2.052   2.018  2.5775 -0.4223 -2.5957
 2655SOL    HW2 8286   2.442   1.924   2.113  0.8521  2.5377  1.0542
 2656SOL     OW 8287   2.438   2.394   2.264  0.4005 -0.5132  0.2933
 2656SOL    HW1 8288   2.419   2.323   2.196 -0.2235 -1.5484  1.5164
 2656SOL    HW2 8289   2.405   2.482   2.229  0.5369 -0.9295 -0.9447
 2657SOL     OW 8290   2.722   2.469   0.290 -0.8022 -0.0359 -0.3676
 2657SOL    HW1 8291   2.817   2.485   0.262 -1.2825 -1.9176 -3.4266
 2657SOL    HW2 8292   2.721   2.421   0.378  1.1837 -1.9534 -1.3148
 2658SOL     OW 8293   2.989   2.434   0.492 -0.1222  0.4464  0.2496
 2658SOL    HW1 8294   2.897   2.409   0.521 -0.4129  0.1277 -0.9008
 2658SOL    HW2 8295   2.994   2.434   0.392  1.4104 -0.6145  0.2823
 2659SOL     OW 8296   2.546   1.208   5.196 -0.0893  0.4577 -0.2845
 2659SOL    HW1 8297   2.542   1.302   5.232  1.5114  0.6679 -0.5791
 2659SOL    HW2 8298   2.461   1.188   5.146 -0.2040  1.9885 -0.7593
 2660SOL     OW 8299   1.892   3.319   0.892 -0.4237 -0.2161 -0.0509
 2660SOL    HW1 8300   1.861   3.235   0.846  0.0210 -0.5572  0.2684
 2660SOL    HW2 8301   1.850   3.325   0.982  0.5388 -0.7708  0.4575
 2661SOL     OW 8302   1.822   2.207   0.193 -0.6716  0.6040  0.0504
 2661SOL    HW1 8303   1.818   2.297   0.237 -0.5219  0.9600 -0.6404
 2661SOL    HW2 8304   1.910   2.197   0.146 -1.4770  0.9370 -1.5929
 2662SOL     OW 8305   2.141   3.436   1.230 -0.3263  0.1970 -0.1301
 2662SOL    HW1 8306   2.211   3.367   1.247  0.2674  0.8149 -0.0836
 2662SOL    HW2 8307   2.124   3.442   1.131 -1.1141 -0.7325 -0.0694
 2663SOL     OW 8308   3.785   2.656   1.109  0.4717  0.8713 -0.3458
 2663SOL    HW1 8309   3.792   2.569   1.059  2.4714 -0.0873  1.4247
 2663SOL    HW2 8310   3.849   2.722   1.070  0.5560  0.7969 -0.3354
 2664SOL     OW 8311   3.184   1.561   0.767 -0.1701  1.0394  0.2274
 2664SOL    HW1 8312   3.157   1.522   0.855 -1.9528  2.1773  0.2175
 2664SOL    HW2 8313   3.278   1.595   0.773  0.0216  0.3424  1.4173
 2665SOL     OW 8314   3.651   3.094   1.415  0.5532  0.1190 -0.3516
 2665SOL    HW1 8315   3.689   3.027   1.479  0.8451  0.1264 -0.5130
 2665SOL    HW2 8316   3.707   3.177   1.418 -0.2824  0.6733  0.4506
 2666SOL     OW 8317   3.850   2.015   1.855  0.5863  0.1440 -0.4726
 2666SOL    HW1 8318   3.855   1.919   1.881  2.6403  0.7363  1.6596
 2666SOL    HW2 8319   3.804   2.023   1.766 -4.4735 -2.3141  1.4718
 2667SOL     OW 8320   3.009   2.874   0.435 -0.4896 -0.0398 -0.0728
 2667SOL    HW1 8321   3.083   2.938   0.417 -1.2928  0.5963 -1.1963
 2667SOL    HW2 8322   3.034   2.816   0.513  0.5796  1.0904  0.4595
 2668SOL     OW 8323   4.049   2.923   5.580 -0.0074  0.0092 -0.2940
 2668SOL    HW1 8324   4.010   2.873   5.657 -0.0676 -0.7986 -0.8323
 2668SOL    HW2 8325   3.982   2.925   5.505  0.7870 -0.9442 -1.0412
 2669SOL     OW 8326   3.365   2.537   0.378 -0.1809  0.2844  0.0175
 2669SOL    HW1 8327   3.332   2.463   0.437  1.3772 -1.5748 -1.3041
 2669SOL    HW2 8328   3.290   2.599   0.357 -1.1010  0.2211  2.7422
 2670SOL     OW 8329   1.618   1.667   1.702  0.7047  0.4006 -0.2792
 2670SOL    HW1 8330   1.658   1.753   1.735  2.7526 -1.6299  3.2397
 2670SOL    HW2 8331   1.555   1.631   1.771 -1.5623 -0.1227 -2.5036
 2671SOL     OW 8332   2.331   2.424   1.006 -0.1235  0.0843  0.1595
 2671SOL    HW1 8333   2.314   2.360   0.932  0.0566 -0.0877  0.2660
 2671SOL    HW2 8334   2.412   2.395   1.057 -0.9341 -0.4705  1.1747
 2672SOL     OW 8335   2.756   1.913   2.196 -0.0252 -0.3542  0.3243
 2672SOL    HW1 8336   2.727   2.002   2.160  0.5538  1.1473  3.1953
 2672SOL    HW2 8337   2.834   1.880   2.144 -1.7299 -0.4621 -2.3448
 2673SOL     OW 8338   4.053   1.635   1.583  0.9346 -0.4704  0.1420
 2673SOL    HW1 8339   3.992   1.712   1.564  1.5890  0.3866  1.3576
 2673SOL    HW2 8340   4.060   1.578   1.502 -0.7986 -0.1298 -0.2987
 2674SOL     OW 8341   2.401   3.981   0.344 -0.1446  0.1436  0.3486
 2674SOL    HW1 8342   2.316   4.020   0.380 -0.5626  2.1081 -2.3796
 2674SOL    HW2 8343   2.478   4.013   0.398 -0.9487  0.3311  1.4101
 2675SOL     OW 8344   2.283   4.015   2.110  0.3242 -0.6046 -0.3390
 2675SOL    HW1 8345   2.336   4.060   2.183 -0.0548  0.2535 -0.5910
 2675SOL    HW2 8346   2.218   4.079   2.071 -0.0894 -1.3198 -0.8476
 2676SOL     OW 8347   2.212   3.615   0.136  0.1269  0.6630 -0.3965
 2676SOL    HW1 8348   2.216   3.701   0.084  2.0245  1.2062  0.5701
 2676SOL    HW2 8349   2.277   3.550   0.097 -1.3497 -0.4249 -1.1645
 2677SOL     OW 8350   1.889   1.992   1.382 -0.0338 -0.1488  0.2122
 2677SOL    HW1 8351   1.951   2.071   1.379 -1.3850  0.9452 -2.4938
 2677SOL    HW2 8352   1.795   2.023   1.386 -0.7469 -1.3622 -3.2074
 2678SOL     OW 8353   1.228   1.551   1.394  0.2881  0.2405  0.1759
 2678SOL    HW1 8354   1.218   1.453   1.412  1.5179  0.4329  2.2850
 2678SOL    HW2 8355   1.148   1.600   1.428 -0.5579 -0.0518 -1.3389
 2679SOL     OW 8356   2.021   3.103   1.500  0.3761  0.4866 -0.5753
 2679SOL    HW1 8357   1.942   3.106   1.563  0.1969 -1.3022 -0.6669
 2679SOL    HW2 8358   2.095   3.158   1.538 -0.6946  1.7615 -0.2130
 2680SOL     OW 8359   2.592   3.058   0.612 -0.3413 -0.7139 -0.4218
 2680SOL    HW1 8360   2.680   3.105   0.612 -0.2427 -0.8844  0.3682
 2680SOL    HW2 8361   2.533   3.098   0.542  0.7038 -1.2624 -1.6608
 2681SOL     OW 8362   3.987   2.930   1.399  0.0467  0.7349  0.8900
 2681SOL    HW1 8363   3.972   3.011   1.455 -1.3029  0.3593  1.1029
 2681SOL    HW2 8364   3.950   2.850   1.446  1.8278 -0.1228  0.9260
 2682SOL     OW 8365   2.034   4.436   1.114 -0.0475 -0.3214 -0.2697
 2682SOL    HW1 8366   2.058   4.387   1.030 -0.9346 -1.3392  0.0453
 2682SOL    HW2 8367   1.934   4.446   1.119 -0.0165 -0.4286  0.7453
 2683SOL     OW 8368   1.740   4.028   1.410  0.5057 -0.7297 -0.1119
 2683SOL    HW1 8369   1.760   3.952   1.472  0.9618  0.5014  1.3175
 2683SOL    HW2 8370   1.825   4.060   1.369  0.7355  0.6578  1.3377
 2684SOL     OW 8371   2.158   1.923   0.657 -0.0582  0.3270 -0.0134
 2684SOL    HW1 8372   2.133   1.967   0.571  0.7469 -0.9254 -0.9128
 2684SOL    HW2 8373   2.205   1.837   0.639  0.4751  0.2188  1.6844
 2685SOL     OW 8374   3.710   1.578   1.219 -0.1017 -1.0110 -0.2844
 2685SOL    HW1 8375   3.641   1.516   1.182 -0.0308  0.3347 -2.9998
 2685SOL    HW2 8376   3.665   1.660   1.254  0.0048 -0.7165 -0.8170
 2686SOL     OW 8377   2.981   3.507   1.117  0.1496  0.0355 -0.0980
 2686SOL    HW1 8378   2.891   3.464   1.130  0.4699 -0.6267 -0.0222
 2686SOL    HW2 8379   2.971   3.587   1.058 -0.3968 -0.4349 -0.6666
 2687SOL     OW 8380   4.196   3.247   4.716 -0.0013  0.7416  0.4470
 2687SOL    HW1 8381   4.269   3.186   4.748  0.4218  1.7137  1.3819
 2687SOL    HW2 8382   4.113   3.194   4.701  0.4873 -0.1436  0.7753
 2688SOL     OW 8383   2.403   4.117   1.166 -0.7676  0.2611  0.2843
 2688SOL    HW1 8384   2.305   4.138   1.174 -1.2343 -0.7670 -1.9321
 2688SOL    HW2 8385   2.429   4.053   1.238 -1.2017  2.0037  2.1052
 2689SOL     OW 8386   2.737   3.490   1.337 -0.2979 -0.3489 -0.2424
 2689SOL    HW1 8387   2.645   3.478   1.374 -0.4499 -1.9467 -1.0362
 2689SOL    HW2 8388   2.742   3.577   1.287 -1.1183  0.1394  0.5123
 2690SOL     OW 8389   2.129   4.064   4.933 -0.0232  0.1923  0.1409
 2690SOL    HW1 8390   2.206   4.071   4.996 -0.3584 -0.4697  0.6419
 2690SOL    HW2 8391   2.044   4.054   4.985 -0.2186 -1.2426 -0.4058
 2691SOL     OW 8392   3.632   1.911   5.538 -0.1265 -0.7892  0.4237
 2691SOL    HW1 8393   3.664   1.886   5.446 -0.7162 -2.4161  0.6291
 2691SOL    HW2 8394   3.535   1.889   5.546 -0.1429 -0.4086  1.3646
 2692SOL     OW 8395   3.670   1.207   0.293 -0.1865 -0.0502 -0.1517
 2692SOL    HW1 8396   3.602   1.172   0.358  0.0996  1.3283  0.9310
 2692SOL    HW2 8397   3.630   1.284   0.242  1.1605  2.2807  2.0715
 2693SOL     OW 8398   3.192   2.372   0.055 -0.2865  0.0672  0.4634
 2693SOL    HW1 8399   3.193   2.438  -0.020 -0.2036  0.5989  0.9314
 2693SOL    HW2 8400   3.284   2.362   0.093 -0.6734  1.3737  1.8493
 2694SOL     OW 8401   2.353   3.810   0.869 -0.1365 -0.1386 -0.4002
 2694SOL    HW1 8402   2.291   3.820   0.947  1.3657  0.4587  0.7537
 2694SOL    HW2 8403   2.396   3.898   0.848  1.9083 -0.9456  0.1947
 2695SOL     OW 8404   2.173   3.705   1.348  0.4473  0.0565 -1.3383
 2695SOL    HW1 8405   2.086   3.679   1.389  1.2681  0.5727  0.8726
 2695SOL    HW2 8406   2.211   3.627   1.297 -0.1059 -0.9900 -0.1857
 2696SOL     OW 8407   2.533   2.451   5.574  0.4111  0.2153  0.3261
 2696SOL    HW1 8408   2.526   2.380   5.504  1.9354  0.3808 -0.0343
 2696SOL    HW2 8409   2.618   2.503   5.560  0.3409  0.7675  1.8246
 2697SOL     OW 8410   2.907   1.818   1.654 -0.6406 -0.8256  0.3728
 2697SOL    HW1 8411   2.967   1.884   1.609 -1.3949 -0.7345 -0.5182
 2697SOL    HW2 8412   2.854   1.866   1.725 -0.0882 -0.7880  0.7626
 2698SOL     OW 8413   3.101   2.174   0.229  0.0286 -0.4912 -0.6380
 2698SOL    HW1 8414   3.085   2.204   0.323  0.4443 -0.8781 -0.4397
 2698SOL    HW2 8415   3.115   2.254   0.170  2.2972 -0.2720  0.0921
 2699SOL     OW 8416   3.184   2.708   0.243  0.0807 -0.0271 -0.4195
 2699SOL    HW1 8417   3.247   2.695   0.166  0.9253  1.0731  0.0677
 2699SOL    HW2 8418   3.134   2.794   0.232  1.0232  0.7088  0.7903
 2700SOL     OW 8419   2.940   1.349   0.287  0.0701 -0.1386 -0.1466
 2700SOL    HW1 8420   2.989   1.303   0.361  0.6107  2.2157  1.0455
 2700SOL    HW2 8421   2.979   1.320   0.199  2.9950  0.8275  0.6968
 2701SOL     OW 8422   3.198   3.414   5.270 -0.3816  0.0873  0.2041
 2701SOL    HW1 8423   3.101   3.404   5.289 -0.2000  0.9015  1.7411
 2701SOL    HW2 8424   3.242   3.462   5.346  1.1933 -0.1118 -0.5370
 2702SOL     OW 8425   1.402   1.528   1.851 -0.5598 -0.5017 -0.1408
 2702SOL    HW1 8426   1.322   1.525   1.910 -1.3144 -0.5246 -1.1335
 2702SOL    HW2 8427   1.459   1.447   1.867 -1.4649 -1.2121 -0.4125
 2703SOL     OW 8428   3.025   3.057   1.251  0.0022 -0.7191  0.3072
 2703SOL    HW1 8429   2.980   3.057   1.163  1.0341  0.8904 -0.2626
 2703SOL    HW2 8430   3.075   2.971   1.263  0.9297 -0.4271 -1.2672
 2704SOL     OW 8431   4.527   3.319   0.650  0.5478 -0.3690 -0.3375
 2704SOL    HW1 8432   4.561   3.412   0.636 -1.4545  0.0754 -2.9358
 2704SOL    HW2 8433   4.438   3.322   0.696  1.3776 -1.1875  1.4264
 2705SOL     OW 8434   3.692   1.975   0.935 -0.2733 -0.1419  0.6189
 2705SOL    HW1 8435   3.686   1.911   0.859  1.5874  0.4556 -0.0818
 2705SOL    HW2 8436   3.704   1.925   1.020 -2.2910 -0.8144  0.5529
 2706SOL     OW 8437   1.664   3.695   0.554 -0.3149  0.0982  0.6590
 2706SOL    HW1 8438   1.724   3.716   0.477  0.7848  0.2582  1.5242
 2706SOL    HW2 8439   1.585   3.644   0.522 -0.1816  0.6707 -0.6537
 2707SOL     OW 8440   3.757   2.589   1.389  0.6620  0.4201  0.0156
 2707SOL    HW1 8441   3.734   2.614   1.295 -0.6408 -2.6792 -0.6251
 2707SOL    HW2 8442   3.851   2.554   1.392  0.5506  0.0914 -0.2449
 2708SOL     OW 8443   1.069   3.695   5.615  0.2217  0.5485  0.5745
 2708SOL    HW1 8444   1.097   3.731   5.526 -0.1664  1.1616  0.6910
 2708SOL    HW2 8445   1.121   3.612   5.636 -1.1192 -0.8128 -1.1496
 2709SOL     OW 8446   2.370   2.816   1.212 -0.5069  0.0435 -0.2044
 2709SOL    HW1 8447   2.293   2.753   1.210 -1.4758  1.1463  1.1008
 2709SOL    HW2 8448   2.346   2.897   1.265  0.6417  1.6188 -1.9623
 2710SOL     OW 8449   3.264   2.364   2.170 -0.8794  0.1724 -0.2972
 2710SOL    HW1 8450   3.167   2.347   2.150 -0.9762  2.5521 -2.3081
 2710SOL    HW2 8451   3.312   2.389   2.086  0.7243  2.2392  1.1058
 2711SOL     OW 8452   2.334   2.791   5.162 -0.5103  0.2112  0.3227
 2711SOL    HW1 8453   2.324   2.694   5.184 -0.1285  0.1226  0.1075
 2711SOL    HW2 8454   2.307   2.806   5.067  0.2019  0.1789  0.1134
 2712SOL     OW 8455   3.362   2.510   0.919  0.2939  0.0657 -0.3134
 2712SOL    HW1 8456   3.320   2.497   1.009 -0.7621  2.4764 -0.3831
 2712SOL    HW2 8457   3.437   2.576   0.926  0.7327 -0.3418 -1.0638
 2713SOL     OW 8458   2.296   2.966   0.158  0.5276  0.4297 -0.3053
 2713SOL    HW1 8459   2.247   2.882   0.180  1.0084 -0.1036 -1.1932
 2713SOL    HW2 8460   2.229   3.039   0.139  0.1034  0.1515  0.1013
 2714SOL     OW 8461   2.931   3.030   5.244 -0.2532  0.1785 -0.7081
 2714SOL    HW1 8462   2.901   3.043   5.339 -0.1278 -0.4046 -0.5854
 2714SOL    HW2 8463   2.868   3.078   5.183 -1.2129 -0.6918 -0.4243
 2715SOL     OW 8464   2.901   1.557   0.822 -0.0146  0.5848 -0.1215
 2715SOL    HW1 8465   2.936   1.464   0.825  0.7591  0.8902  0.8849
 2715SOL    HW2 8466   2.888   1.585   0.727 -0.0917 -0.4786 -0.4331
 2716SOL     OW 8467   3.117   3.681   1.353 -0.9178  0.0501 -0.0926
 2716SOL    HW1 8468   3.120   3.781   1.352  1.0204  0.0512 -1.2999
 2716SOL    HW2 8469   3.067   3.648   1.273 -3.4586  0.0011  1.4320
 2717SOL     OW 8470   4.324   1.707   0.966  0.4228  0.0814 -0.1677
 2717SOL    HW1 8471   4.381   1.778   0.925  0.1557  0.4895  0.1676
 2717SOL    HW2 8472   4.319   1.628   0.904  1.3179  0.0557 -0.2196
 2718SOL     OW 8473   2.601   3.667   0.974 -0.0028  0.3062 -0.1997
 2718SOL    HW1 8474   2.661   3.723   1.031  2.0661 -0.7214 -1.2613
 2718SOL    HW2 8475   2.517   3.717   0.955  1.8234  3.1936 -1.3175
 2719SOL     OW 8476   2.368   1.144   1.147  1.0180  0.2537  0.3866
 2719SOL    HW1 8477   2.403   1.128   1.240 -1.2668  1.4707  1.5299
 2719SOL    HW2 8478   2.316   1.064   1.117 -0.2644  0.7789  1.1634
 2720SOL     OW 8479   4.123   2.180   1.273 -0.4517  0.3410  0.2662
 2720SOL    HW1 8480   4.045   2.236   1.301 -0.2342  0.4112  0.7497
 2720SOL    HW2 8481   4.107   2.085   1.301 -2.1949 -0.5217 -3.1819
 2721SOL     OW 8482   2.680   1.548   0.100  0.0177 -0.2453 -0.2213
 2721SOL    HW1 8483   2.742   1.589   0.167 -0.5842  0.7642 -0.2580
 2721SOL    HW2 8484   2.717   1.460   0.069  0.7624 -0.2770  0.7288
 2722SOL     OW 8485   3.604   1.590   0.459  0.5382 -0.1596  0.0150
 2722SOL    HW1 8486   3.654   1.509   0.489  1.0691 -0.0408 -0.5190
 2722SOL    HW2 8487   3.662   1.671   0.469  0.0557  0.1395  0.4298
 2723SOL     OW 8488   3.396   3.559   1.164  0.0312  0.1975  0.8293
 2723SOL    HW1 8489   3.316   3.614   1.142  0.0870  0.1230  0.4262
 2723SOL    HW2 8490   3.478   3.616   1.157  0.2235 -0.2310 -0.8906
 2724SOL     OW 8491   2.639   2.322   0.793 -0.3751  0.1757 -0.0451
 2724SOL    HW1 8492   2.706   2.259   0.833  0.7295  1.3650  0.0192
 2724SOL    HW2 8493   2.610   2.388   0.863 -1.3159 -0.0680 -0.1890
 2725SOL     OW 8494   2.719   3.992   1.931  0.1163  0.6999  0.3969
 2725SOL    HW1 8495   2.709   3.971   2.028  1.5682  0.2904  0.4834
 2725SOL    HW2 8496   2.633   3.973   1.884 -0.2029 -0.4176  1.3775
 2726SOL     OW 8497   2.267   3.680   0.391  0.2490  0.1417 -0.5159
 2726SOL    HW1 8498   2.218   3.765   0.409  0.2419  0.1944 -0.7799
 2726SOL    HW2 8499   2.238   3.642   0.303 -0.1873 -0.4492 -0.1268
 2727SOL     OW 8500   2.821   1.627   5.068  0.2058 -0.4340 -0.8077
 2727SOL    HW1 8501   2.805   1.606   5.164  2.0659 -0.1544 -0.3884
 2727SOL    HW2 8502   2.880   1.557   5.028  0.1384 -0.0976 -1.5020
 2728SOL     OW 8503   3.410   2.934   1.438  0.1672  0.4816  0.3278
 2728SOL    HW1 8504   3.497   2.965   1.399  0.5777 -1.4632 -0.3993
 2728SOL    HW2 8505   3.424   2.848   1.487 -1.0253  1.0922  1.8207
 2729SOL     OW 8506   2.389   3.041   1.048 -0.0766 -0.4562  0.3156
 2729SOL    HW1 8507   2.369   2.956   1.097 -0.3123  0.3623  1.7126
 2729SOL    HW2 8508   2.407   3.113   1.115 -0.1693  0.6581 -0.8397
 2730SOL     OW 8509   2.264   3.019   1.385  0.1899  0.0180  0.1792
 2730SOL    HW1 8510   2.278   3.117   1.367  0.6297  0.4233  2.4669
 2730SOL    HW2 8511   2.167   2.998   1.378  0.1490  0.4592 -0.9078
 2731SOL     OW 8512   2.229   2.851   1.768 -0.1415 -0.2968  0.3898
 2731SOL    HW1 8513   2.158   2.916   1.742  0.7199  1.1721  1.5183
 2731SOL    HW2 8514   2.266   2.807   1.687  1.1691  2.6915 -0.7705
 2732SOL     OW 8515   3.647   1.170   0.861  0.0834 -0.5784  0.1179
 2732SOL    HW1 8516   3.731   1.215   0.832 -1.5631  2.9075  0.2716
 2732SOL    HW2 8517   3.657   1.138   0.955  0.8209  1.0512  0.6166
 2733SOL     OW 8518   1.192   1.655   0.675 -0.6576 -0.1114 -0.3914
 2733SOL    HW1 8519   1.136   1.584   0.632 -0.9633 -0.5582  0.7306
 2733SOL    HW2 8520   1.218   1.627   0.767  0.9417  0.3416 -0.6720
 2734SOL     OW 8521   4.308   2.950   5.085  0.1344 -0.2581 -0.2603
 2734SOL    HW1 8522   4.310   3.025   5.019  0.2295  0.4375  0.5150
 2734SOL    HW2 8523   4.306   2.863   5.036 -1.7346  0.2614 -1.2151
 2735SOL     OW 8524   2.410   1.470   0.914 -0.3411 -0.4813 -0.2335
 2735SOL    HW1 8525   2.407   1.557   0.864 -2.3691 -0.6451 -0.5106
 2735SOL    HW2 8526   2.486   1.470   0.978  0.5086  0.9488 -1.2040
 2736SOL     OW 8527   2.995   3.003   4.266 -0.4387 -0.1556 -0.1094
 2736SOL    HW1 8528   2.952   3.093   4.254 -1.6555 -0.5660  1.0125
 2736SOL    HW2 8529   3.034   2.997   4.358  0.6992 -0.3615 -0.5884
 2737SOL     OW 8530   2.279   2.097   1.101  0.4869 -0.5263 -0.3700
 2737SOL    HW1 8531   2.245   2.086   1.008 -0.2180  0.2817 -0.2257
 2737SOL    HW2 8532   2.215   2.154   1.153 -0.3506 -2.8209  1.2856
 2738SOL     OW 8533   3.566   2.490   5.114 -0.0906  0.0408 -0.1933
 2738SOL    HW1 8534   3.596   2.477   5.019  0.6364  0.8058 -0.0784
 2738SOL    HW2 8535   3.503   2.568   5.119  0.1875  0.2580  0.0035
 2739SOL     OW 8536   2.093   2.233   1.240  0.3876  0.2725  0.2033
 2739SOL    HW1 8537   2.012   2.251   1.184  0.9236  0.4198 -0.5375
 2739SOL    HW2 8538   2.080   2.272   1.331  0.3512  1.8946 -0.4698
 2740SOL     OW 8539   2.410   4.306   1.520  0.1275 -0.7155 -0.1795
 2740SOL    HW1 8540   2.410   4.374   1.593  0.2736 -0.5074 -0.3723
 2740SOL    HW2 8541   2.418   4.352   1.431 -0.9922 -0.8954 -0.3974
 2741SOL     OW 8542   4.395   1.583   4.917  0.2745 -0.1289 -0.3895
 2741SOL    HW1 8543   4.465   1.538   4.973 -0.3130  0.2060  0.6423
 2741SOL    HW2 8544   4.439   1.653   4.861  0.8021 -0.0228  0.1365
 2742SOL     OW 8545   3.453   2.658   1.283 -0.1653  0.7109  0.0291
 2742SOL    HW1 8546   3.480   2.704   1.198  0.1635 -0.2665 -0.4206
 2742SOL    HW2 8547   3.388   2.585   1.261  0.0451  0.3462  0.5931
 2743SOL     OW 8548   3.239   2.360   0.536 -0.2105 -0.0252 -0.6547
 2743SOL    HW1 8549   3.145   2.395   0.537  0.1603  0.9792 -0.0351
 2743SOL    HW2 8550   3.267   2.338   0.629 -0.5872 -2.4701 -1.0583
 2744SOL     OW 8551   1.865   4.129   0.560  0.0021 -0.0167 -0.2980
 2744SOL    HW1 8552   1.846   4.101   0.466 -1.6327 -1.1996  0.3333
 2744SOL    HW2 8553   1.904   4.053   0.610  0.1584  0.3766  0.1855
 2745SOL     OW 8554   3.119   1.813   5.068 -0.0372  0.1947 -0.0805
 2745SOL    HW1 8555   3.057   1.842   4.995  0.1594  0.2629 -0.2199
 2745SOL    HW2 8556   3.166   1.729   5.040 -2.5973 -1.8869  1.3669
 2746SOL     OW 8557   2.602   2.385   1.403  0.8930  0.2794  0.7413
 2746SOL    HW1 8558   2.662   2.330   1.460 -0.2128 -0.2318  1.4560
 2746SOL    HW2 8559   2.509   2.348   1.406  0.3948  1.3998  0.1657
 2747SOL     OW 8560   2.446   1.920   2.590 -0.0023  0.3367 -0.7014
 2747SOL    HW1 8561   2.463   2.016   2.611 -0.6208  0.4382 -0.6648
 2747SOL    HW2 8562   2.524   1.883   2.539  0.2009  0.8750 -0.7888
 2748SOL     OW 8563   1.567   3.082   2.987 -0.2206  0.4636  0.5608
 2748SOL    HW1 8564   1.553   3.176   2.956 -2.5348  0.5227  1.5883
 2748SOL    HW2 8565   1.622   3.082   3.070 -1.0706  1.0379  1.1469
 2749SOL     OW 8566   4.069   3.957   2.816  0.4803 -0.7726  0.0052
 2749SOL    HW1 8567   4.094   4.053   2.808 -0.0036 -0.7114 -0.8139
 2749SOL    HW2 8568   4.098   3.923   2.906 -1.3523  0.7258  1.2479
 2750SOL     OW 8569   4.742   3.458   1.338  0.4055 -0.4661  0.1868
 2750SOL    HW1 8570   4.659   3.514   1.345 -0.7499 -1.8366 -1.4994
 2750SOL    HW2 8571   4.798   3.490   1.262  0.1971 -1.0133 -0.2030
 2751SOL     OW 8572   1.925   3.171   2.570  0.4855 -0.4627  0.0951
 2751SOL    HW1 8573   1.882   3.261   2.575  0.7724 -0.4094  2.4950
 2751SOL    HW2 8574   1.928   3.130   2.661  0.9868 -2.6298 -0.8330
 2752SOL     OW 8575   3.505   4.107   3.728  0.2520 -0.2066  0.4939
 2752SOL    HW1 8576   3.454   4.190   3.749  0.0603 -0.6051  1.6574
 2752SOL    HW2 8577   3.601   4.119   3.754  0.5922  0.2264 -0.8771
 2753SOL     OW 8578   3.674   1.557   1.747 -0.3066  0.1828  0.3564
 2753SOL    HW1 8579   3.717   1.470   1.724 -0.6805 -0.1691  0.9504
 2753SOL    HW2 8580   3.591   1.540   1.801  0.0087  0.9346  1.0961
 2754SOL     OW 8581   1.933   3.202   3.071  0.3170  0.4212 -0.0801
 2754SOL    HW1 8582   1.896   3.137   3.005  1.7276 -0.4248 -0.0897
 2754SOL    HW2 8583   1.876   3.284   3.074 -1.1680 -0.5680 -0.5037
 2755SOL     OW 8584   2.820   3.969   3.285 -0.1470  0.0354 -0.1714
 2755SOL    HW1 8585   2.780   3.882   3.313  0.0705 -0.3217 -0.9575
 2755SOL    HW2 8586   2.919   3.959   3.274  0.3900  1.1411  2.7018
 2756SOL     OW 8587   2.380   3.814   1.983 -0.3272 -0.7758  0.2895
 2756SOL    HW1 8588   2.303   3.753   1.966 -1.2249 -0.0360  1.5473
 2756SOL    HW2 8589   2.351   3.889   2.043  1.9219 -1.6910  2.6835
 2757SOL     OW 8590   1.776   2.378   2.583 -0.8756 -0.1448  0.4098
 2757SOL    HW1 8591   1.784   2.292   2.533  0.8509 -1.0881  2.1788
 2757SOL    HW2 8592   1.868   2.418   2.594 -1.1659 -0.0799  2.9637
 2758SOL     OW 8593   2.408   3.872   3.774  0.6546  0.2275  0.5768
 2758SOL    HW1 8594   2.497   3.835   3.747  2.1012  2.7190  1.5655
 2758SOL    HW2 8595   2.410   3.972   3.767 -1.6273  0.4376  1.9387
 2759SOL     OW 8596   2.064   3.043   2.189  0.0450  0.5397  0.2005
 2759SOL    HW1 8597   2.128   3.037   2.266  1.8081 -0.7520 -1.2541
 2759SOL    HW2 8598   1.971   3.026   2.221  0.9181 -1.7079  1.8406
 2760SOL     OW 8599   3.236   1.683   2.503 -0.0828  0.4255  0.6764
 2760SOL    HW1 8600   3.168   1.747   2.466  1.0428  1.1179 -0.2338
 2760SOL    HW2 8601   3.204   1.651   2.592 -1.8477  0.3352  0.0675
 2761SOL     OW 8602   0.826   3.261   1.814  0.3379 -0.1205  0.2179
 2761SOL    HW1 8603   0.748   3.254   1.877  0.5772  1.4390  0.7395
 2761SOL    HW2 8604   0.899   3.313   1.857  0.9543  0.0064 -0.9432
 2762SOL     OW 8605   3.210   3.707   0.774  0.2218  0.6726  0.5852
 2762SOL    HW1 8606   3.218   3.800   0.737  0.1714  0.3624 -0.2323
 2762SOL    HW2 8607   3.225   3.641   0.700 -1.5714  0.0385  0.7334
 2763SOL     OW 8608   2.448   2.399   1.857  0.3738 -0.0577 -0.0261
 2763SOL    HW1 8609   2.447   2.498   1.871  0.8894 -0.2426  1.4203
 2763SOL    HW2 8610   2.404   2.378   1.769  0.7803  1.4809 -0.6337
 2764SOL     OW 8611   2.703   2.312   1.808  0.4851  0.8461 -0.3264
 2764SOL    HW1 8612   2.610   2.336   1.835  0.6713  1.7830 -0.4604
 2764SOL    HW2 8613   2.701   2.261   1.722 -0.0193 -0.9207  0.6911
 2765SOL     OW 8614   3.546   1.327   2.390  0.2805  0.2997 -0.3197
 2765SOL    HW1 8615   3.538   1.359   2.485 -0.1956 -1.8389  0.4002
 2765SOL    HW2 8616   3.632   1.278   2.379 -0.5506 -1.1659 -0.4415
 2766SOL     OW 8617   1.424   2.445   2.780 -0.2667 -0.3168  0.0172
 2766SOL    HW1 8618   1.427   2.445   2.680 -0.7121  0.5456 -0.0135
 2766SOL    HW2 8619   1.379   2.362   2.812 -2.0536  0.3595 -0.6042
 2767SOL     OW 8620   2.468   3.243   3.536  0.3673 -0.3434  0.3815
 2767SOL    HW1 8621   2.385   3.293   3.509  0.6144  0.4276  1.0121
 2767SOL    HW2 8622   2.548   3.300   3.516  0.7760 -1.2148 -0.5313
 2768SOL     OW 8623   2.899   3.702   2.864 -0.5090 -0.0087 -0.9336
 2768SOL    HW1 8624   2.831   3.667   2.928 -0.6289  1.6776 -0.0877
 2768SOL    HW2 8625   2.853   3.743   2.785 -0.4029 -0.6436 -1.3325
 2769SOL     OW 8626   4.622   3.933   1.372  0.7623 -0.4899  0.1908
 2769SOL    HW1 8627   4.642   3.956   1.276 -1.2607  0.1771 -0.1250
 2769SOL    HW2 8628   4.573   4.010   1.414  1.2831 -0.9391  1.6686
 2770SOL     OW 8629   3.365   1.627   1.496  0.3109 -0.1957 -0.0549
 2770SOL    HW1 8630   3.464   1.639   1.497  0.3623 -0.5387 -0.4918
 2770SOL    HW2 8631   3.344   1.530   1.493  0.0017 -0.1116 -1.8044
 2771SOL     OW 8632   3.885   1.532   2.427  0.6105 -0.1238  0.4182
 2771SOL    HW1 8633   3.805   1.535   2.367 -0.0265 -3.1072  0.9382
 2771SOL    HW2 8634   3.869   1.588   2.508 -1.3220 -1.1943  0.8428
 2772SOL     OW 8635   3.331   2.589   3.420 -0.2786  0.5070 -0.2519
 2772SOL    HW1 8636   3.330   2.546   3.510  0.9432  0.4362 -0.2514
 2772SOL    HW2 8637   3.245   2.637   3.405 -0.5742  0.3578  0.8700
 2773SOL     OW 8638   1.150   2.764   1.465 -0.0587  0.7246  0.1175
 2773SOL    HW1 8639   1.152   2.860   1.437 -2.2617  0.1657 -2.3140
 2773SOL    HW2 8640   1.218   2.713   1.413  0.0288  0.6985  0.2577
 2774SOL     OW 8641   2.167   4.603   3.017  0.6327 -0.5548 -0.2357
 2774SOL    HW1 8642   2.240   4.583   2.952  1.2311  1.0811 -0.1052
 2774SOL    HW2 8643   2.193   4.680   3.075 -1.3468  0.3367 -0.4497
 2775SOL     OW 8644   3.645   1.745   1.548 -0.5912  0.6378 -0.1182
 2775SOL    HW1 8645   3.674   1.683   1.622 -0.9361  0.7932  0.1473
 2775SOL    HW2 8646   3.723   1.800   1.519 -0.5455  0.8426  0.3884
 2776SOL     OW 8647   3.772   1.846   4.186  0.1779  0.2566  0.0090
 2776SOL    HW1 8648   3.721   1.883   4.265  1.7587 -1.7463  2.0940
 2776SOL    HW2 8649   3.845   1.909   4.162  3.0990 -1.2688  3.7813
 2777SOL     OW 8650   3.169   1.341   2.736 -0.0403  0.1355  0.2240
 2777SOL    HW1 8651   3.238   1.319   2.805  1.9928  0.8656 -1.4491
 2777SOL    HW2 8652   3.195   1.299   2.649 -1.0999  1.3733 -0.7216
 2778SOL     OW 8653   3.019   3.509   3.125  0.0294  0.3923 -0.1587
 2778SOL    HW1 8654   3.051   3.472   3.038 -2.3556 -1.8530 -0.2004
 2778SOL    HW2 8655   2.922   3.530   3.119 -0.5898 -1.2628  2.3172
 2779SOL     OW 8656   3.770   2.883   2.381 -0.1201 -0.1745  0.1284
 2779SOL    HW1 8657   3.869   2.891   2.394  0.4278 -0.5738 -2.9975
 2779SOL    HW2 8658   3.740   2.792   2.411  0.9473 -0.9366 -0.9754
 2780SOL     OW 8659   3.535   2.709   4.288 -0.3178  0.0720  0.0970
 2780SOL    HW1 8660   3.572   2.727   4.380  0.7319 -0.3627 -0.2242
 2780SOL    HW2 8661   3.501   2.794   4.248  0.4317  0.5105  0.3728
 2781SOL     OW 8662   1.872   2.721   2.335  0.6094  0.0085 -0.3896
 2781SOL    HW1 8663   1.905   2.639   2.288 -0.5252 -0.2805 -0.7118
 2781SOL    HW2 8664   1.793   2.697   2.391  0.1728  0.9237 -0.6033
 2782SOL     OW 8665   3.498   1.731   2.582  0.3854  0.6819 -0.2638
 2782SOL    HW1 8666   3.507   1.830   2.589  1.1427  0.7441 -1.6831
 2782SOL    HW2 8667   3.403   1.707   2.565  0.1091  1.1151  0.6155
 2783SOL     OW 8668   1.209   2.807   2.864  0.5210 -0.3735  0.4216
 2783SOL    HW1 8669   1.126   2.767   2.824 -0.7999  2.8477 -0.3199
 2783SOL    HW2 8670   1.215   2.781   2.960 -1.9801  0.2147  0.7840
 2784SOL     OW 8671   2.804   3.590   2.067  0.1762  0.0339 -0.5524
 2784SOL    HW1 8672   2.812   3.521   1.995  0.1491 -0.4861 -0.0641
 2784SOL    HW2 8673   2.869   3.665   2.050  0.2529 -0.1473 -1.0470
 2785SOL     OW 8674   2.527   1.369   3.841 -0.3576  0.8026 -0.1087
 2785SOL    HW1 8675   2.491   1.328   3.925  2.9822 -0.8209  0.6774
 2785SOL    HW2 8676   2.517   1.305   3.765  0.6885  0.4157  0.0757
 2786SOL     OW 8677   2.295   3.876   2.769 -0.4979 -0.1340  0.3729
 2786SOL    HW1 8678   2.271   3.805   2.835 -0.4354  0.5352  1.1362
 2786SOL    HW2 8679   2.224   3.947   2.769 -0.4650 -0.0969 -0.2343
 2787SOL     OW 8680   3.445   2.680   2.293  0.1199 -0.4697 -0.3082
 2787SOL    HW1 8681   3.376   2.726   2.237  1.2926  1.2908 -0.3795
 2787SOL    HW2 8682   3.535   2.693   2.251  0.9413  0.2978  1.5984
 2788SOL     OW 8683   2.147   2.899   2.811 -0.8626 -0.1495 -0.5998
 2788SOL    HW1 8684   2.138   2.884   2.713  0.5601 -0.6710 -0.6676
 2788SOL    HW2 8685   2.215   2.836   2.849  1.4142  2.4742  0.0270
 2789SOL     OW 8686   1.743   3.375   1.576  0.4403 -0.2744 -0.0336
 2789SOL    HW1 8687   1.799   3.386   1.494 -0.5340  0.9309 -0.5842
 2789SOL    HW2 8688   1.748   3.458   1.631  0.1733 -0.6317  0.5393
 2790SOL     OW 8689   3.616   1.718   4.017  0.4819  0.0043  0.3160
 2790SOL    HW1 8690   3.531   1.770   4.006  0.2712 -0.0115  1.6269
 2790SOL    HW2 8691   3.683   1.774   4.067  1.4260  0.1913 -1.1064
 2791SOL     OW 8692   1.594   1.653   0.484  0.2263  0.5155  0.1814
 2791SOL    HW1 8693   1.502   1.664   0.447 -0.4347 -0.7781  1.3538
 2791SOL    HW2 8694   1.659   1.701   0.425 -1.3888  3.1195  0.3795
 2792SOL     OW 8695   1.983   4.635   2.042  0.3065  0.3466 -0.5259
 2792SOL    HW1 8696   2.012   4.729   2.028  0.9107 -0.1340 -3.1216
 2792SOL    HW2 8697   2.044   4.590   2.107  0.1561  1.6392  0.5540
 2793SOL     OW 8698   2.734   2.186   1.563 -0.3695 -0.1089  0.1930
 2793SOL    HW1 8699   2.724   2.090   1.536 -0.4824 -0.1237  0.2859
 2793SOL    HW2 8700   2.831   2.206   1.581 -0.5030 -0.5635  1.4832
 2794SOL     OW 8701   1.552   0.515   2.100  0.1232  0.3013  0.8345
 2794SOL    HW1 8702   1.461   0.492   2.134  0.4843 -0.5594  1.2506
 2794SOL    HW2 8703   1.616   0.441   2.123  0.5012 -0.1032 -1.2738
 2795SOL     OW 8704   3.001   2.290   1.591  0.3764  0.3683 -0.3223
 2795SOL    HW1 8705   3.029   2.363   1.529  0.7148 -0.5016 -1.2164
 2795SOL    HW2 8706   3.010   2.322   1.686  0.4929  1.4837 -0.6895
 2796SOL     OW 8707   2.558   3.904   2.859  0.1738 -0.5685 -0.5655
 2796SOL    HW1 8708   2.465   3.899   2.823 -0.8297  1.3347  1.5867
 2796SOL    HW2 8709   2.603   3.986   2.825  0.0323  0.0215  0.6388
 2797SOL     OW 8710   3.000   3.796   2.018 -0.6725 -0.4279 -0.1789
 2797SOL    HW1 8711   3.040   3.863   1.955 -0.8621 -0.4056 -0.2765
 2797SOL    HW2 8712   2.974   3.842   2.103 -0.0844 -0.5259  0.0573
 2798SOL     OW 8713   4.556   1.832   1.266 -0.1510 -0.2774 -0.4609
 2798SOL    HW1 8714   4.485   1.763   1.252 -0.4688  0.1396 -0.9525
 2798SOL    HW2 8715   4.637   1.807   1.211  0.3341 -1.0882  0.5915
 2799SOL     OW 8716   3.405   1.790   3.621 -0.1064  0.8266 -0.1532
 2799SOL    HW1 8717   3.374   1.715   3.679  0.9344 -0.3837 -1.1052
 2799SOL    HW2 8718   3.366   1.876   3.654 -1.2296 -0.0999  1.0362
 2800SOL     OW 8719   3.463   2.603   3.163 -0.5330 -0.1401 -0.0559
 2800SOL    HW1 8720   3.540   2.662   3.186  1.3995 -2.1561 -0.9759
 2800SOL    HW2 8721   3.411   2.582   3.245  1.1883 -0.4416  1.0011
 2801SOL     OW 8722   4.336   1.308   1.920  0.5225  0.5979  0.3591
 2801SOL    HW1 8723   4.429   1.319   1.954  0.5047  0.2254  0.5342
 2801SOL    HW2 8724   4.274   1.361   1.978  0.6619  1.0929  0.0553
 2802SOL     OW 8725   4.188   4.292   3.672 -0.2725  0.3149  0.5438
 2802SOL    HW1 8726   4.174   4.257   3.765  1.5244  0.4326  0.9069
 2802SOL    HW2 8727   4.177   4.217   3.606 -1.8485  0.2910  0.7929
 2803SOL     OW 8728   3.530   2.703   1.531  0.1080  0.0102  0.1740
 2803SOL    HW1 8729   3.623   2.682   1.560 -0.8746 -3.1179  1.4931
 2803SOL    HW2 8730   3.517   2.675   1.436 -0.4370 -3.4657  1.1342
 2804SOL     OW 8731   2.006   2.441   2.940 -0.2008 -0.7582  0.6663
 2804SOL    HW1 8732   2.052   2.362   2.981  1.3513 -0.1435  0.1720
 2804SOL    HW2 8733   2.070   2.491   2.882 -1.2689  0.6330  0.6259
 2805SOL     OW 8734   3.337   2.218   3.532 -0.3014  0.5437  0.4516
 2805SOL    HW1 8735   3.380   2.176   3.452  0.4707 -0.3100  1.2854
 2805SOL    HW2 8736   3.242   2.242   3.510  0.0169  0.7270 -0.8375
 2806SOL     OW 8737   2.778   3.213   4.172 -0.3716  0.7895  0.2390
 2806SOL    HW1 8738   2.814   3.280   4.107  0.2469  1.4525  1.2268
 2806SOL    HW2 8739   2.690   3.179   4.140  0.2288  0.5745 -1.2818
 2807SOL     OW 8740   4.021   3.123   4.118 -0.1070 -0.0704 -0.0377
 2807SOL    HW1 8741   3.922   3.136   4.107 -0.0910  0.4319  0.3894
 2807SOL    HW2 8742   4.067   3.212   4.112  0.0290  0.1414  2.7955
 2808SOL     OW 8743   4.838   2.251   4.047  0.1382  0.5757  0.8923
 2808SOL    HW1 8744   4.801   2.200   3.969  1.1873 -1.4163  1.6532
 2808SOL    HW2 8745   4.774   2.246   4.123  1.3091 -1.8714  1.8139
 2809SOL     OW 8746   2.226   2.664   3.103 -0.0312 -0.7973 -0.0241
 2809SOL    HW1 8747   2.239   2.715   3.188 -1.0074 -0.7449  0.1152
 2809SOL    HW2 8748   2.128   2.661   3.082  0.1530 -1.3246 -0.8303
 2810SOL     OW 8749   2.884   3.842   4.292 -0.8546 -0.0916 -0.1936
 2810SOL    HW1 8750   2.961   3.904   4.278 -1.6379  0.7029 -1.0586
 2810SOL    HW2 8751   2.918   3.748   4.295  0.1951  0.2766 -0.1028
 2811SOL     OW 8752   1.782   2.750   3.410  0.2447 -0.0245 -0.1495
 2811SOL    HW1 8753   1.871   2.753   3.364  0.2874 -0.8602 -0.1272
 2811SOL    HW2 8754   1.720   2.689   3.361 -0.7407  1.4790 -0.8722
 2812SOL     OW 8755   3.210   4.419   2.896 -0.2834 -0.2471  0.4115
 2812SOL    HW1 8756   3.305   4.388   2.889  0.1950  1.3341 -0.6245
 2812SOL    HW2 8757   3.204   4.490   2.967 -0.1557  1.4086 -1.1731
 2813SOL     OW 8758   3.264   2.296   2.428  0.0097 -0.2803  0.2182
 2813SOL    HW1 8759   3.278   2.375   2.487 -2.6066  1.1790 -0.9550
 2813SOL    HW2 8760   3.278   2.323   2.332 -1.9032 -0.9377 -0.2812
 2814SOL     OW 8761   2.377   3.433   2.758 -0.3645  1.0851  0.4265
 2814SOL    HW1 8762   2.406   3.361   2.695  0.3888  0.5345  1.3619
 2814SOL    HW2 8763   2.288   3.468   2.731 -0.0488  0.8925 -0.9499
 2815SOL     OW 8764   3.852   3.630   3.851  0.1794  0.0908  0.0897
 2815SOL    HW1 8765   3.921   3.621   3.922  0.3510  1.0454  0.0540
 2815SOL    HW2 8766   3.843   3.726   3.825 -1.2327  0.0003  0.1684
 2816SOL     OW 8767   3.047   2.165   3.591  0.3011 -0.4174 -0.3016
 2816SOL    HW1 8768   3.057   2.125   3.682 -0.6435  0.6603  0.3028
 2816SOL    HW2 8769   2.953   2.199   3.579  0.6790  0.3341 -1.3082
 2817SOL     OW 8770   3.249   2.781   2.154  0.3979  0.0873 -1.0605
 2817SOL    HW1 8771   3.228   2.877   2.135  0.2019  0.3215  0.2527
 2817SOL    HW2 8772   3.170   2.725   2.132 -0.4564  0.5604  0.6311
 2818SOL     OW 8773   2.758   2.177   2.060  0.6786  0.5053 -0.5495
 2818SOL    HW1 8774   2.738   2.209   1.967 -1.2902 -0.2348 -0.4365
 2818SOL    HW2 8775   2.711   2.236   2.126 -0.4210 -0.7287 -0.1969
 2819SOL     OW 8776   1.767   2.978   3.584  0.3646  0.3661  1.2332
 2819SOL    HW1 8777   1.701   2.960   3.657 -1.1496 -0.1709 -0.2031
 2819SOL    HW2 8778   1.767   2.902   3.520  1.8172  0.7384  0.7462
 2820SOL     OW 8779   4.532   3.217   3.648  0.0318 -0.0846  0.2714
 2820SOL    HW1 8780   4.452   3.165   3.679  0.3870 -0.8913 -0.1280
 2820SOL    HW2 8781   4.559   3.185   3.557  1.3858 -0.4933  0.7889
 2821SOL     OW 8782   2.121   1.689   1.895 -0.1396  0.2324 -0.0492
 2821SOL    HW1 8783   2.071   1.649   1.819  1.9311 -0.6635 -1.0188
 2821SOL    HW2 8784   2.199   1.741   1.861  0.0676  0.9555  1.4250
 2822SOL     OW 8785   4.187   3.457   1.865  0.5958  0.5321 -0.0072
 2822SOL    HW1 8786   4.236   3.460   1.778  0.5313 -0.7668 -0.1091
 2822SOL    HW2 8787   4.168   3.550   1.895  0.1573  1.0055 -1.6384
 2823SOL     OW 8788   3.253   3.336   3.724  0.0833  0.3512  0.1161
 2823SOL    HW1 8789   3.223   3.271   3.654  1.5252  0.6290 -0.7945
 2823SOL    HW2 8790   3.320   3.292   3.784 -0.5741  0.3518  0.8715
 2824SOL     OW 8791   4.431   3.484   3.619 -0.5899  0.3288 -0.3461
 2824SOL    HW1 8792   4.471   3.404   3.665  2.3514  0.5593 -2.2272
 2824SOL    HW2 8793   4.453   3.566   3.671 -0.4517  0.2491 -0.2769
 2825SOL     OW 8794   1.989   3.389   3.803  0.1692  0.1169 -0.2162
 2825SOL    HW1 8795   2.058   3.455   3.833 -0.8385  0.2339  2.1397
 2825SOL    HW2 8796   2.017   3.297   3.830  0.2967 -0.0767 -1.0042
 2826SOL     OW 8797   3.691   2.650   2.142 -0.0312  0.3803  0.1361
 2826SOL    HW1 8798   3.779   2.691   2.121  0.3418  0.3378  1.4929
 2826SOL    HW2 8799   3.702   2.551   2.152 -0.4871  0.2116 -0.9118
 2827SOL     OW 8800   3.172   2.848   1.308 -0.3349 -0.2801  0.0970
 2827SOL    HW1 8801   3.266   2.864   1.340 -0.3848  0.2374 -0.0074
 2827SOL    HW2 8802   3.129   2.777   1.364 -0.1761  0.1008  0.7099
 2828SOL     OW 8803   2.329   4.056   3.465 -0.3967  0.3034 -0.2187
 2828SOL    HW1 8804   2.259   3.985   3.471 -0.6174  0.3814 -1.5719
 2828SOL    HW2 8805   2.295   4.140   3.509 -1.3724  0.4910 -1.2769
 2829SOL     OW 8806   2.162   2.588   2.720  0.5834 -0.0949 -0.6195
 2829SOL    HW1 8807   2.097   2.658   2.689 -0.0262  0.4682  1.7294
 2829SOL    HW2 8808   2.242   2.633   2.760 -0.2045 -0.6545  1.7274
 2830SOL     OW 8809   2.161   3.676   0.699 -0.7093  0.1599  0.1577
 2830SOL    HW1 8810   2.240   3.724   0.737 -0.9508  1.2613 -0.6728
 2830SOL    HW2 8811   2.127   3.726   0.619 -0.8892 -1.4875 -0.8400
 2831SOL     OW 8812   1.169   3.951   1.850 -0.3448 -0.1770  0.5440
 2831SOL    HW1 8813   1.185   3.870   1.906  0.8017 -0.9369 -0.8121
 2831SOL    HW2 8814   1.102   3.930   1.779 -0.2071  0.1291  0.3206
 2832SOL     OW 8815   1.588   3.981   1.946 -0.1448 -0.3255  0.1715
 2832SOL    HW1 8816   1.527   4.003   2.022 -0.1346  0.3182 -0.0013
 2832SOL    HW2 8817   1.534   3.961   1.864 -0.1356 -0.1701  0.1271
 2833SOL     OW 8818   1.287   2.747   3.108 -0.0953 -1.1475 -0.3080
 2833SOL    HW1 8819   1.359   2.678   3.106 -0.2698 -1.3240 -0.5057
 2833SOL    HW2 8820   1.318   2.826   3.162  0.0703 -1.4131 -0.0093
 2834SOL     OW 8821   3.806   3.179   3.304  0.4114  0.2619  0.3064
 2834SOL    HW1 8822   3.814   3.244   3.229  0.9460 -1.7923 -1.5469
 2834SOL    HW2 8823   3.741   3.213   3.371 -2.0774  1.1542 -2.3347
 2835SOL     OW 8824   1.565   3.200   1.462 -0.2837 -0.0219 -0.3207
 2835SOL    HW1 8825   1.493   3.171   1.525 -0.0667 -0.9768 -0.4898
 2835SOL    HW2 8826   1.633   3.254   1.511 -0.4962 -0.1377  0.1063
 2836SOL     OW 8827   3.741   1.697   2.167  0.3586 -0.0145 -0.7879
 2836SOL    HW1 8828   3.756   1.751   2.250  0.8088 -1.2219 -0.0658
 2836SOL    HW2 8829   3.644   1.702   2.141  0.2541  0.5358 -0.3187
 2837SOL     OW 8830   2.036   3.108   3.322 -0.2201  0.5521  0.3296
 2837SOL    HW1 8831   2.033   3.009   3.334 -0.1593  0.6190  0.9043
 2837SOL    HW2 8832   2.015   3.130   3.226  0.3654 -0.0463  0.0539
 2838SOL     OW 8833   3.056   4.205   2.903  0.0828  0.2506 -0.2877
 2838SOL    HW1 8834   3.048   4.160   2.814  2.2814 -1.5433  0.2989
 2838SOL    HW2 8835   3.119   4.283   2.895  0.0243  0.2879 -0.3817
 2839SOL     OW 8836   1.620   3.601   1.679 -0.0630  0.0959  0.1623
 2839SOL    HW1 8837   1.546   3.541   1.647 -1.9089  1.1002  2.2632
 2839SOL    HW2 8838   1.635   3.586   1.777 -0.1800  2.5948  0.6271
 2840SOL     OW 8839   2.202   3.715   3.605  0.7076  0.6779 -0.4268
 2840SOL    HW1 8840   2.280   3.665   3.568  1.8612  1.7548  0.4261
 2840SOL    HW2 8841   2.118   3.666   3.585  1.5634 -0.3465 -1.6876
 2841SOL     OW 8842   3.884   4.352   2.654 -0.1359  0.2108 -0.5061
 2841SOL    HW1 8843   3.875   4.426   2.588  1.2909 -0.4573 -1.4858
 2841SOL    HW2 8844   3.839   4.271   2.620  1.5414 -0.4635 -1.2242
 2842SOL     OW 8845   4.344   3.444   3.357 -0.3014  0.2429  0.0094
 2842SOL    HW1 8846   4.289   3.523   3.331  0.3068  0.5443 -0.3578
 2842SOL    HW2 8847   4.398   3.466   3.438 -3.0017 -1.0212  2.3642
 2843SOL     OW 8848   1.802   3.406   2.650  0.0058 -0.2680  0.0787
 2843SOL    HW1 8849   1.729   3.421   2.718  0.8846 -0.2975  1.0643
 2843SOL    HW2 8850   1.838   3.494   2.619 -1.7193 -0.1857 -1.8849
 2844SOL     OW 8851   2.372   2.458   4.646  0.0860 -0.3354 -0.6193
 2844SOL    HW1 8852   2.442   2.528   4.629  0.6627 -0.2658  1.7111
 2844SOL    HW2 8853   2.417   2.369   4.659 -0.2858 -0.4015  0.2815
 2845SOL     OW 8854   3.310   1.710   1.739  0.0447  0.1593 -0.5319
 2845SOL    HW1 8855   3.315   1.810   1.748 -0.6004  0.2390 -0.9883
 2845SOL    HW2 8856   3.316   1.685   1.643  0.1489 -0.2445 -0.4222
 2846SOL     OW 8857   1.821   3.255   3.558  0.2624  0.7268 -0.1417
 2846SOL    HW1 8858   1.791   3.159   3.557 -0.0337  0.8151  0.0900
 2846SOL    HW2 8859   1.854   3.278   3.649 -1.2022  1.3084  0.2646
 2847SOL     OW 8860   1.682   2.810   4.429 -0.2534 -0.0166  0.0927
 2847SOL    HW1 8861   1.669   2.752   4.510 -0.1305 -0.2188 -0.0316
 2847SOL    HW2 8862   1.756   2.773   4.373 -0.1303  0.2997  0.0458
 2848SOL     OW 8863   3.082   4.368   3.499 -0.1769  0.2108  0.3138
 2848SOL    HW1 8864   2.987   4.393   3.519 -0.9099 -1.1153 -1.2589
 2848SOL    HW2 8865   3.102   4.279   3.540 -0.6128 -0.9129 -1.7646
 2849SOL     OW 8866   3.092   1.414   4.588 -0.1468 -0.2919 -0.3619
 2849SOL    HW1 8867   3.133   1.484   4.530 -0.6141  0.4477  0.1711
 2849SOL    HW2 8868   3.091   1.447   4.683 -0.9045 -0.7752 -0.1962
 2850SOL     OW 8869   1.882   2.277   1.089  0.1426 -0.0111 -0.1272
 2850SOL    HW1 8870   1.787   2.299   1.066  0.6719  1.9133 -0.6922
 2850SOL    HW2 8871   1.915   2.204   1.029 -0.5072  0.4020 -1.0104
 2851SOL     OW 8872   2.060   3.533   3.324 -0.1521 -0.1094 -0.5390
 2851SOL    HW1 8873   2.039   3.573   3.413 -0.2859  0.6805 -0.9218
 2851SOL    HW2 8874   1.980   3.483   3.290  0.0399 -0.7859 -0.0299
 2852SOL     OW 8875   4.853   2.505   3.871  0.0340 -0.2522 -0.0473
 2852SOL    HW1 8876   4.947   2.540   3.869  0.5582 -1.5930 -0.1691
 2852SOL    HW2 8877   4.854   2.410   3.904 -1.2659 -0.3179 -0.1658
 2853SOL     OW 8878   2.619   1.180   1.923 -0.1442  0.4461  0.4932
 2853SOL    HW1 8879   2.540   1.173   1.983 -0.3611  1.9827  0.4284
 2853SOL    HW2 8880   2.703   1.165   1.977 -0.4256 -0.3065  0.7335
 2854SOL     OW 8881   3.337   1.038   3.689 -0.3636  0.7195 -0.3723
 2854SOL    HW1 8882   3.430   1.029   3.654  0.8213  2.3519  2.0526
 2854SOL    HW2 8883   3.316   1.135   3.701 -0.8973  0.3155  2.6322
 2855SOL     OW 8884   2.003   3.236   0.318 -0.3068 -0.4036 -0.6603
 2855SOL    HW1 8885   1.953   3.207   0.399  1.5203 -1.6846  0.0721
 2855SOL    HW2 8886   2.024   3.333   0.324 -0.0611 -0.5208  0.4813
 2856SOL     OW 8887   1.910   3.018   2.863  0.0338 -0.3555  0.6867
 2856SOL    HW1 8888   1.865   2.945   2.812  0.9692 -0.3791 -0.1283
 2856SOL    HW2 8889   2.005   2.994   2.881  1.3111  1.8496 -2.2704
 2857SOL     OW 8890   1.021   2.558   1.988 -0.3327 -0.1253 -0.4212
 2857SOL    HW1 8891   1.106   2.597   1.951  1.1475 -1.6833  1.1839
 2857SOL    HW2 8892   0.992   2.612   2.067 -0.2040 -0.2378 -0.2958
 2858SOL     OW 8893   3.515   2.686   3.842 -0.1038 -0.3543 -0.4346
 2858SOL    HW1 8894   3.598   2.742   3.833  0.8625 -1.4605  1.0014
 2858SOL    HW2 8895   3.445   2.737   3.891  0.7194 -0.2956  0.7399
 2859SOL     OW 8896   0.563   2.286   1.187  0.3448  0.8217  0.3106
 2859SOL    HW1 8897   0.616   2.242   1.259  0.1660 -0.2921 -0.2238
 2859SOL    HW2 8898   0.556   2.384   1.207 -0.5405  0.4042  2.3424
 2860SOL     OW 8899   3.984   3.488   3.306 -0.6949  0.2015 -0.1467
 2860SOL    HW1 8900   4.069   3.541   3.303  1.0141 -2.2623  1.0584
 2860SOL    HW2 8901   3.942   3.498   3.396  0.8413 -2.0610  0.9175
 2861SOL     OW 8902   3.789   2.559   4.241 -0.0512 -0.4688 -0.1112
 2861SOL    HW1 8903   3.690   2.565   4.255 -0.3522 -1.8367 -1.4044
 2861SOL    HW2 8904   3.821   2.641   4.193 -1.0482 -1.1818 -2.1052
 2862SOL     OW 8905   1.393   4.013   2.163 -0.0989 -0.3652 -0.0868
 2862SOL    HW1 8906   1.403   3.917   2.188 -0.5331 -0.3643  0.0786
 2862SOL    HW2 8907   1.381   4.068   2.245 -1.6075 -0.3753 -0.2820
 2863SOL     OW 8908   3.267   1.426   3.956  0.0138 -0.0529 -0.7675
 2863SOL    HW1 8909   3.209   1.365   4.010 -1.9499  3.4678  1.5239
 2863SOL    HW2 8910   3.360   1.424   3.993  0.3786 -2.5354 -1.6493
 2864SOL     OW 8911   3.802   1.206   2.354  0.0824 -0.1172  0.2320
 2864SOL    HW1 8912   3.761   1.119   2.324 -2.5500  1.0643  0.1243
 2864SOL    HW2 8913   3.833   1.257   2.274 -1.6847  0.5596 -0.0546
 2865SOL     OW 8914   3.537   2.278   3.721 -0.2679  0.0158  0.1186
 2865SOL    HW1 8915   3.491   2.253   3.636 -1.2756  0.1283  0.6260
 2865SOL    HW2 8916   3.589   2.199   3.755  2.2833  0.6790 -1.9201
 2866SOL     OW 8917   3.211   3.151   3.519  0.1714 -0.1536 -0.0007
 2866SOL    HW1 8918   3.273   3.105   3.456  0.7633  3.2428 -2.1825
 2866SOL    HW2 8919   3.155   3.217   3.468 -0.4068  1.7305  2.8342
 2867SOL     OW 8920   2.578   4.326   2.162  0.0995 -0.0550 -0.1510
 2867SOL    HW1 8921   2.622   4.415   2.172 -0.2588  0.4195 -2.3223
 2867SOL    HW2 8922   2.534   4.300   2.248  1.4789  1.1463  0.9598
 2868SOL     OW 8923   4.074   3.236   3.489  0.5796 -0.3583 -0.1609
 2868SOL    HW1 8924   3.996   3.264   3.433 -1.4188  0.5456  2.8010
 2868SOL    HW2 8925   4.157   3.280   3.455 -0.6700  0.8341 -1.8460
 2869SOL     OW 8926   3.498   3.465   4.094 -0.1331  0.2712 -0.3646
 2869SOL    HW1 8927   3.410   3.513   4.092  0.1134  0.7276 -0.4868
 2869SOL    HW2 8928   3.553   3.495   4.015  0.5437  0.7823  0.2909
 2870SOL     OW 8929   2.435   3.835   3.115 -0.2197 -0.0893  0.4522
 2870SOL    HW1 8930   2.365   3.773   3.080 -0.2670 -1.6761  3.0500
 2870SOL    HW2 8931   2.497   3.861   3.041 -3.5781  1.6340 -2.0592
 2871SOL     OW 8932   1.646   3.342   2.936  0.1251 -0.0522  0.0622
 2871SOL    HW1 8933   1.728   3.399   2.950  0.0645 -0.1972  1.0416
 2871SOL    HW2 8934   1.575   3.397   2.891  0.5919  0.2110 -0.3636
 2872SOL     OW 8935   3.067   1.894   3.482 -0.4496 -0.5510  0.5601
 2872SOL    HW1 8936   3.069   1.987   3.520 -1.4643 -0.5315  0.5987
 2872SOL    HW2 8937   3.079   1.828   3.556 -2.0937 -0.5039  0.8991
 2873SOL     OW 8938   1.594   2.308   1.099  0.6820 -0.2312 -1.0675
 2873SOL    HW1 8939   1.578   2.406   1.088 -1.6252 -0.5924 -1.3885
 2873SOL    HW2 8940   1.592   2.285   1.196 -0.8872 -0.2291 -1.0712
 2874SOL     OW 8941   3.731   3.824   3.579 -0.0596  0.1518 -0.3628
 2874SOL    HW1 8942   3.643   3.777   3.584 -0.3185  0.6365 -0.2927
 2874SOL    HW2 8943   3.737   3.875   3.494 -0.2995  1.0025  0.1245
 2875SOL     OW 8944   1.555   1.573   3.403 -0.3228  0.7993  0.0659
 2875SOL    HW1 8945   1.555   1.652   3.464 -0.2230  2.0738 -1.5062
 2875SOL    HW2 8946   1.646   1.560   3.365 -0.4250  0.1335  0.0339
 2876SOL     OW 8947   4.081   1.529   3.206 -0.6426  0.1283 -0.2305
 2876SOL    HW1 8948   4.038   1.487   3.125  1.9993 -0.4481 -1.4274
 2876SOL    HW2 8949   4.163   1.478   3.230  0.5319  2.3476  0.6940
 2877SOL     OW 8950   2.221   0.962   3.961 -0.5049  0.0030  0.4614
 2877SOL    HW1 8951   2.321   0.955   3.955 -0.6547 -1.3532 -1.7452
 2877SOL    HW2 8952   2.185   0.879   4.004 -0.7482 -0.0655  0.1258
 2878SOL     OW 8953   1.697   3.481   3.438  0.2639  0.0542 -0.1707
 2878SOL    HW1 8954   1.751   3.401   3.462 -0.1104 -0.3149 -0.5603
 2878SOL    HW2 8955   1.616   3.454   3.386 -0.0320  0.6512 -0.0403
 2879SOL     OW 8956   3.962   2.265   2.695 -0.1836 -0.3480  0.0516
 2879SOL    HW1 8957   3.974   2.214   2.780 -0.9771  2.6578  2.0983
 2879SOL    HW2 8958   4.041   2.324   2.680 -0.3692 -0.3276 -0.9432
 2880SOL     OW 8959   4.706   1.572   2.607 -0.1258 -0.1287  0.1655
 2880SOL    HW1 8960   4.669   1.659   2.577 -0.0730 -0.2831 -0.3531
 2880SOL    HW2 8961   4.672   1.498   2.549  0.1195 -0.4087  0.3681
 2881SOL     OW 8962   2.336   3.275   1.351 -0.0075  0.1937 -0.4739
 2881SOL    HW1 8963   2.372   3.309   1.438  1.0549  1.1929 -1.2703
 2881SOL    HW2 8964   2.408   3.277   1.282 -0.7419 -0.9148 -1.3106
 2882SOL     OW 8965   2.362   3.624   2.314  0.0156 -0.3023 -0.2592
 2882SOL    HW1 8966   2.401   3.652   2.402 -0.8987  0.4086 -0.0627
 2882SOL    HW2 8967   2.421   3.656   2.240  0.3132 -0.0883  0.0658
 2883SOL     OW 8968   1.382   2.368   3.830  0.5832  0.1733  0.4214
 2883SOL    HW1 8969   1.365   2.448   3.773  0.4937  0.2220  0.5179
 2883SOL    HW2 8970   1.453   2.311   3.787  1.5300  0.9163  0.9574
 2884SOL     OW 8971   1.801   3.197   5.461 -0.8099  0.6025 -0.8412
 2884SOL    HW1 8972   1.900   3.211   5.467 -0.8644  1.3276 -1.4631
 2884SOL    HW2 8973   1.760   3.207   5.552 -0.1990 -0.7101 -0.4069
 2885SOL     OW 8974   0.863   2.541   0.231 -0.1991 -0.1185 -0.3738
 2885SOL    HW1 8975   0.946   2.490   0.208  2.1930  2.7905  1.0706
 2885SOL    HW2 8976   0.846   2.534   0.329 -0.7998  0.5007 -0.4270
 2886SOL     OW 8977   2.561   3.138   4.852 -0.4513 -0.7272 -0.3438
 2886SOL    HW1 8978   2.598   3.128   4.760  0.1452 -0.4737 -0.1351
 2886SOL    HW2 8979   2.490   3.208   4.853  2.4457  2.4388  0.1692
 2887SOL     OW 8980   3.354   2.498   3.683 -0.7040  0.2122 -0.0044
 2887SOL    HW1 8981   3.399   2.409   3.684 -2.1040 -0.5145  0.6214
 2887SOL    HW2 8982   3.404   2.561   3.743  0.3445 -0.0983 -0.5181
 2888SOL     OW 8983   3.992   3.088   3.696  0.0464 -0.6639 -0.1285
 2888SOL    HW1 8984   4.015   3.131   3.608 -2.0255 -0.4524 -0.6279
 2888SOL    HW2 8985   3.937   3.152   3.750  2.0148 -0.4583  1.7534
 2889SOL     OW 8986   4.138   0.988   4.658  0.3990 -0.0457 -0.0751
 2889SOL    HW1 8987   4.201   1.066   4.663 -0.3153  0.5234  0.2723
 2889SOL    HW2 8988   4.159   0.923   4.730 -1.1124  1.4628  1.8286
 2890SOL     OW 8989   3.838   3.252   4.318 -0.5356  0.4957  0.4388
 2890SOL    HW1 8990   3.838   3.153   4.332 -0.8618  0.3137 -0.7327
 2890SOL    HW2 8991   3.744   3.285   4.316 -0.4296  0.8293  0.7514
 2891SOL     OW 8992   3.895   1.979   0.179 -0.1273 -0.1712 -0.6113
 2891SOL    HW1 8993   3.818   1.946   0.123 -0.9958  1.3792 -0.3902
 2891SOL    HW2 8994   3.863   2.051   0.240  1.8618  1.8812 -1.8331
 2892SOL     OW 8995   3.032   2.224   4.376  0.5280 -0.5011  0.2579
 2892SOL    HW1 8996   3.097   2.197   4.305  1.2573  0.9550  0.3388
 2892SOL    HW2 8997   3.082   2.268   4.451 -0.6316  1.9227 -0.2952
 2893SOL     OW 8998   3.370   0.837   4.978 -0.1052 -0.9091 -0.5270
 2893SOL    HW1 8999   3.375   0.854   4.880 -0.4319  0.3378 -0.3470
 2893SOL    HW2 9000   3.460   0.811   5.013  0.6080  1.0581 -0.7633
 2894SOL     OW 9001   3.526   3.168  -0.025 -0.2743  0.0723 -0.1090
 2894SOL    HW1 9002   3.601   3.156   0.039 -0.9577 -0.9054  0.5320
 2894SOL    HW2 9003   3.446   3.206   0.023 -0.4515  0.3587 -0.6138
 2895SOL     OW 9004   3.553   4.610   4.594 -0.7805 -0.4691 -0.1759
 2895SOL    HW1 9005   3.578   4.665   4.674 -0.8970 -0.6132 -0.0387
 2895SOL    HW2 9006   3.616   4.533   4.585 -2.1962 -1.8613  1.2198
 2896SOL     OW 9007   2.580   0.545   0.185 -0.1708  0.0189 -0.5173
 2896SOL    HW1 9008   2.546   0.492   0.107 -2.2285  0.9153 -0.2898
 2896SOL    HW2 9009   2.545   0.638   0.179  2.3695  1.0553 -0.2417
 2897SOL     OW 9010   3.192   2.945   5.577 -0.0219  0.2720  0.3020
 2897SOL    HW1 9011   3.126   3.012   5.544  2.3114  0.8592 -3.7945
 2897SOL    HW2 9012   3.271   2.992   5.617  0.4669 -0.0859 -0.2099
 2898SOL     OW 9013   1.601   3.977   4.109 -0.4892  0.0275  0.1253
 2898SOL    HW1 9014   1.601   3.905   4.040  0.8647 -0.6239  0.7479
 2898SOL    HW2 9015   1.558   3.943   4.193  0.2878 -0.1330  0.4702
 2899SOL     OW 9016   1.578   2.219   0.615  0.1392  0.4128  0.2448
 2899SOL    HW1 9017   1.621   2.180   0.533 -0.9397  2.7619 -1.5575
 2899SOL    HW2 9018   1.543   2.146   0.672  1.3403 -1.3420 -1.1415
 2900SOL     OW 9019   2.244   3.266   3.907 -0.2558 -0.3706 -0.3129
 2900SOL    HW1 9020   2.322   3.317   3.870 -0.1734  0.8992  1.4229
 2900SOL    HW2 9021   2.200   3.321   3.978 -1.6036 -1.8383  0.0480
 2901SOL     OW 9022   1.887   3.483   5.547 -0.2781  0.6074 -0.0749
 2901SOL    HW1 9023   1.887   3.576   5.584 -0.4394  0.2923  0.7372
 2901SOL    HW2 9024   1.843   3.421   5.612  1.7005 -0.4102  0.3855
 2902SOL     OW 9025   3.383   3.743   0.408 -0.9573 -0.2815  0.4803
 2902SOL    HW1 9026   3.369   3.663   0.466 -0.5771  0.7927  2.1306
 2902SOL    HW2 9027   3.370   3.826   0.463  1.9757  0.7934 -0.2588
 2903SOL     OW 9028   2.040   1.822   4.913 -0.0710  0.3685 -0.2460
 2903SOL    HW1 9029   1.945   1.822   4.883 -0.4693 -0.6932  0.9097
 2903SOL    HW2 9030   2.070   1.728   4.929  0.8765  0.7497  0.3038
 2904SOL     OW 9031   1.463   3.169   4.258 -0.3844 -0.6391 -0.0210
 2904SOL    HW1 9032   1.472   3.158   4.159  0.7265 -0.7231  0.0744
 2904SOL    HW2 9033   1.400   3.244   4.278  0.3970  0.2506 -0.8239
 2905SOL     OW 9034   3.457   2.083   3.289  0.6316  0.3033 -0.2117
 2905SOL    HW1 9035   3.401   2.013   3.245 -0.2914  0.5651  0.5167
 2905SOL    HW2 9036   3.440   2.172   3.246 -0.2126  0.5454  0.5789
 2906SOL     OW 9037   3.245   4.728   3.651  0.4031 -0.0619 -0.1262
 2906SOL    HW1 9038   3.169   4.779   3.611  0.8412 -0.2024 -1.1626
 2906SOL    HW2 9039   3.286   4.669   3.582  0.8367 -0.7261  0.6797
 2907SOL     OW 9040   4.369   2.719   3.946 -0.2673  0.4294 -0.5975
 2907SOL    HW1 9041   4.369   2.619   3.947  0.9115  0.4150 -0.5138
 2907SOL    HW2 9042   4.297   2.752   4.008 -0.0577 -0.3675  0.1005
 2908SOL     OW 9043   2.918   2.589   4.837 -0.0716 -0.1962 -0.7287
 2908SOL    HW1 9044   2.910   2.532   4.919 -0.6643  1.4085  0.3786
 2908SOL    HW2 9045   2.893   2.536   4.756 -0.9005 -1.4050  0.2909
 2909SOL     OW 9046   1.558   1.261   5.210  0.4029 -0.2210 -0.5981
 2909SOL    HW1 9047   1.460   1.283   5.211  0.1432 -1.3451 -0.5775
 2909SOL    HW2 9048   1.607   1.335   5.165 -0.5099  0.1610 -1.0015
 2910SOL     OW 9049   3.169   1.954   4.038  0.2693 -0.0014  0.9421
 2910SOL    HW1 9050   3.262   1.917   4.034 -0.6190 -2.3733 -3.5276
 2910SOL    HW2 9051   3.111   1.892   4.090  0.3528 -0.8713  0.0221
 2911SOL     OW 9052   3.264   3.048   0.858  0.2833 -0.6442 -0.1538
 2911SOL    HW1 9053   3.361   3.056   0.834  0.3129  0.0350  0.1700
 2911SOL    HW2 9054   3.253   2.978   0.929  0.3631 -1.6825 -1.1335
 2912SOL     OW 9055   2.095   2.625   4.509 -0.2318  0.0087  0.0762
 2912SOL    HW1 9056   2.023   2.649   4.574  0.3225 -0.2769  0.8029
 2912SOL    HW2 9057   2.112   2.527   4.512  0.2029  0.0761 -0.0772
 2913SOL     OW 9058   2.111   3.317   5.505  0.4091  0.3473 -0.5135
 2913SOL    HW1 9059   2.047   3.391   5.526  0.4881  0.1078  0.6440
 2913SOL    HW2 9060   2.205   3.351   5.513  0.4721 -0.1061  1.0790
 2914SOL     OW 9061   3.987   2.405   4.590  0.1275  0.4309 -0.4171
 2914SOL    HW1 9062   3.993   2.453   4.503 -1.4651  1.0334 -0.2157
 2914SOL    HW2 9063   3.969   2.470   4.664  0.5036 -0.1879  0.2384
 2915SOL     OW 9064   2.829   2.280   1.255 -0.2776  0.0056 -0.1791
 2915SOL    HW1 9065   2.761   2.318   1.318  2.8916  2.7085  1.9882
 2915SOL    HW2 9066   2.863   2.352   1.195  0.2663 -1.4000 -1.6283
 2916SOL     OW 9067   3.706   2.187   5.015  0.2997 -0.6018 -0.1388
 2916SOL    HW1 9068   3.676   2.253   4.947 -0.6019 -0.2937  0.5331
 2916SOL    HW2 9069   3.631   2.125   5.037  0.2833 -0.1511  1.1951
 2917SOL     OW 9070   3.755   4.635   5.447  0.5398  0.5443  0.5310
 2917SOL    HW1 9071   3.662   4.602   5.434  0.3256  1.2175  0.3615
 2917SOL    HW2 9072   3.812   4.560   5.482  0.2128 -0.2025 -0.4737
 2918SOL     OW 9073   4.525   4.802   4.794 -0.3093  0.3388 -0.0499
 2918SOL    HW1 9074   4.480   4.884   4.758  0.9004  1.0776  0.0597
 2918SOL    HW2 9075   4.456   4.740   4.832 -1.2242  1.4353  0.1277
 2919SOL     OW 9076   4.472   2.635   5.342 -0.4567  0.3398  0.6586
 2919SOL    HW1 9077   4.413   2.573   5.394 -0.7564  0.2047  0.1568
 2919SOL    HW2 9078   4.568   2.616   5.364 -0.4855 -1.1054 -0.3867
 2920SOL     OW 9079   5.060   3.475   5.139  0.6357 -0.0095  0.4470
 2920SOL    HW1 9080   5.118   3.409   5.186  1.1843 -0.1577 -0.4184
 2920SOL    HW2 9081   5.065   3.460   5.041 -1.7041 -0.7009  0.3714
 2921SOL     OW 9082   2.634   2.718   0.207 -0.1901 -0.2690 -0.4736
 2921SOL    HW1 9083   2.650   2.706   0.109  1.3081  0.5623 -0.3590
 2921SOL    HW2 9084   2.650   2.632   0.254  0.5096 -0.3249 -0.8031
 2922SOL     OW 9085   2.739   3.181   5.136 -0.2719  0.3117 -0.3265
 2922SOL    HW1 9086   2.650   3.192   5.179 -0.0757  1.8931 -0.2619
 2922SOL    HW2 9087   2.739   3.226   5.047  0.3380 -0.0682 -0.5277
 2923SOL     OW 9088   2.474   1.924   4.807 -0.2500  0.4037 -0.3948
 2923SOL    HW1 9089   2.526   1.975   4.738  1.5884 -1.1479 -0.2227
 2923SOL    HW2 9090   2.532   1.906   4.886 -1.5932  0.0489  0.5487
 2924SOL     OW 9091   1.645   2.481   4.565  0.4940 -0.5229  0.1161
 2924SOL    HW1 9092   1.616   2.571   4.597  2.0742  0.8151 -1.9191
 2924SOL    HW2 9093   1.679   2.427   4.642 -1.2539  0.2630  1.5024
 2925SOL     OW 9094   2.150   2.901   4.435  0.5303 -0.2429 -0.6114
 2925SOL    HW1 9095   2.243   2.933   4.449  0.6892 -0.7399 -0.5174
 2925SOL    HW2 9096   2.141   2.807   4.468 -0.3166  0.1970  0.5147
 2926SOL     OW 9097   2.372   3.880   0.080  0.0031  0.3426 -0.2578
 2926SOL    HW1 9098   2.463   3.893   0.041  0.2801 -0.5275  0.0865
 2926SOL    HW2 9099   2.372   3.913   0.175 -0.5761  2.1352 -0.8413
 2927SOL     OW 9100   4.491   2.916   5.280 -0.6266  0.4186  0.5968
 2927SOL    HW1 9101   4.426   2.931   5.206  0.1522 -0.6148 -0.3270
 2927SOL    HW2 9102   4.484   2.821   5.311 -0.5031  0.6761  1.4243
 2928SOL     OW 9103   2.824   1.013   0.279 -0.4315  0.1864 -0.0643
 2928SOL    HW1 9104   2.734   1.015   0.324 -0.2881  2.8395  0.2348
 2928SOL    HW2 9105   2.896   1.024   0.348  0.0225  0.1084 -0.5214
 2929SOL     OW 9106   2.828   1.803   3.807 -0.4264  0.2199 -0.1848
 2929SOL    HW1 9107   2.792   1.709   3.809 -0.5550  0.2237 -1.3941
 2929SOL    HW2 9108   2.765   1.864   3.855 -0.1272 -0.3662  0.9948
 2930SOL     OW 9109   4.219   2.628   5.517 -0.3526  0.3531 -0.2104
 2930SOL    HW1 9110   4.177   2.659   5.603 -1.4069 -2.0338  0.2378
 2930SOL    HW2 9111   4.205   2.697   5.446  1.5871  2.9337  1.7418
 2931SOL     OW 9112   2.532   2.880   4.948 -0.5209 -0.5918 -0.8989
 2931SOL    HW1 9113   2.499   2.854   5.038 -1.1515 -1.6648 -1.4197
 2931SOL    HW2 9114   2.539   2.979   4.942 -1.4945 -0.4567 -0.0235
 2932SOL     OW 9115   4.184   3.351   4.456  0.0066 -0.0052  0.3496
 2932SOL    HW1 9116   4.203   3.419   4.526 -2.4242  0.4824  0.6067
 2932SOL    HW2 9117   4.167   3.262   4.499 -0.1863 -0.0039  0.2761
 2933SOL     OW 9118   2.915   2.452   0.781 -0.0551 -0.3984 -0.3838
 2933SOL    HW1 9119   3.005   2.495   0.773  0.7561 -1.4365  1.9963
 2933SOL    HW2 9120   2.846   2.511   0.741  1.1940  2.4112  1.3348
 2934SOL     OW 9121   2.128   3.003   4.170  0.2540 -0.1704  0.1143
 2934SOL    HW1 9122   2.113   2.988   4.268 -0.3694  0.9875  0.2169
 2934SOL    HW2 9123   2.209   3.059   4.157  0.7320 -0.8881 -0.0885
 2935SOL     OW 9124   2.796   2.847   4.820 -0.2383 -0.1054 -0.3434
 2935SOL    HW1 9125   2.839   2.767   4.863 -1.0585  0.3363  1.4180
 2935SOL    HW2 9126   2.701   2.854   4.851  0.2808  2.4827  0.9402
 2936SOL     OW 9127   1.743   2.898   5.451 -0.5398  0.7994  0.2048
 2936SOL    HW1 9128   1.762   2.994   5.431  2.4377  0.3170  0.3853
 2936SOL    HW2 9129   1.703   2.855   5.370  0.2379  1.6573 -0.6582
 2937SOL     OW 9130   1.041   4.444   3.604 -0.0790 -0.0071 -0.0077
 2937SOL    HW1 9131   0.981   4.456   3.524 -0.9859  3.9053  1.0396
 2937SOL    HW2 9132   1.135   4.466   3.578  0.1508 -1.5926 -0.6012
 2938SOL     OW 9133   2.437   3.191   0.419 -0.7598  0.6385 -0.3562
 2938SOL    HW1 9134   2.459   3.202   0.322  0.4414  2.4755  0.0663
 2938SOL    HW2 9135   2.403   3.278   0.455 -1.2538 -0.0392  0.8819
 2939SOL     OW 9136   4.014   2.620   3.942  0.3673 -0.1626  0.4396
 2939SOL    HW1 9137   3.956   2.691   3.982 -0.4858 -0.9485  0.6221
 2939SOL    HW2 9138   3.958   2.542   3.916  0.9104  0.2136 -2.0889
 2940SOL     OW 9139   3.162   2.373   4.560  0.5292  0.2161  0.0616
 2940SOL    HW1 9140   3.084   2.435   4.562 -0.2284 -0.6723 -0.7753
 2940SOL    HW2 9141   3.188   2.348   4.653  0.6710  1.5529  0.3990
 2941SOL     OW 9142   3.271   2.775   4.604 -0.0153  0.1414  0.7235
 2941SOL    HW1 9143   3.363   2.813   4.612  0.2039 -0.1095 -0.3605
 2941SOL    HW2 9144   3.253   2.715   4.681  0.6355  0.3912  1.0804
 2942SOL     OW 9145   1.671   3.610   4.324 -0.0064 -0.1091 -0.5385
 2942SOL    HW1 9146   1.762   3.608   4.365 -0.1535 -1.3801 -0.2175
 2942SOL    HW2 9147   1.671   3.673   4.246  0.7630  0.9534  0.2922
 2943SOL     OW 9148   4.420   2.993   4.113 -0.0426  0.0524 -0.2688
 2943SOL    HW1 9149   4.408   2.908   4.061  1.2143  0.3054 -0.9935
 2943SOL    HW2 9150   4.344   3.002   4.178  0.4615 -2.2737  0.7423
 2944SOL     OW 9151   3.379   1.900   3.095  0.0188  0.0624 -0.0223
 2944SOL    HW1 9152   3.284   1.871   3.082  0.2833 -0.9156  0.0981
 2944SOL    HW2 9153   3.415   1.933   3.008 -0.1711 -0.4031 -0.2878
 2945SOL     OW 9154   3.674   2.856   0.460  0.0480  0.2276  0.2232
 2945SOL    HW1 9155   3.589   2.903   0.436 -0.7742 -1.5529 -0.4662
 2945SOL    HW2 9156   3.748   2.889   0.401 -0.4469  0.8110 -0.0837
 2946SOL     OW 9157   2.610   2.620   4.820  0.1687 -0.6529  0.1233
 2946SOL    HW1 9158   2.554   2.693   4.858 -1.5812 -0.9270 -1.7790
 2946SOL    HW2 9159   2.613   2.628   4.720  0.7228 -2.6260 -0.0606
 2947SOL     OW 9160   3.506   2.397   4.639 -0.0414  0.1038  0.6248
 2947SOL    HW1 9161   3.484   2.417   4.543  1.4059  0.1856  0.2944
 2947SOL    HW2 9162   3.430   2.426   4.697 -0.6821  0.6142 -0.4367
 2948SOL     OW 9163   1.927   3.413   4.818 -0.3043 -0.3565 -0.3783
 2948SOL    HW1 9164   1.862   3.488   4.834 -0.4773 -0.4200 -0.7814
 2948SOL    HW2 9165   1.923   3.350   4.895 -2.5702 -1.7069 -1.4879
 2949SOL     OW 9166   3.868   2.144   4.588 -0.4801 -0.4904 -0.3811
 2949SOL    HW1 9167   3.881   2.112   4.682  3.5369 -2.5801 -1.3994
 2949SOL    HW2 9168   3.883   2.243   4.584 -0.9119 -0.3348  1.1626
 2950SOL     OW 9169   4.017   2.561   4.390  0.5602  0.0236  0.7084
 2950SOL    HW1 9170   3.935   2.568   4.332  0.6180  0.9046  0.7231
 2950SOL    HW2 9171   4.097   2.591   4.338  1.0567 -1.7987  0.3569
 2951SOL     OW 9172   2.769   1.552   5.371  0.4810 -0.0790  0.8804
 2951SOL    HW1 9173   2.765   1.476   5.435 -0.9990 -1.3909 -0.6879
 2951SOL    HW2 9174   2.729   1.634   5.414 -0.8979 -1.0419  1.5061
 2952SOL     OW 9175   4.274   4.134   4.331  0.0219  0.1004 -0.0750
 2952SOL    HW1 9176   4.189   4.182   4.313  0.4628  0.2611 -1.8560
 2952SOL    HW2 9177   4.254   4.038   4.353 -0.6178  0.1616 -0.3685
 2953SOL     OW 9178   2.367   3.171   4.236  0.0499  0.1398  0.7411
 2953SOL    HW1 9179   2.434   3.139   4.169  0.3403  4.4458 -1.3577
 2953SOL    HW2 9180   2.415   3.217   4.311 -0.4473 -1.8618  2.3807
 2954SOL     OW 9181   2.158   3.359   4.280  0.2471 -0.0244 -0.2041
 2954SOL    HW1 9182   2.154   3.420   4.200  0.3849  0.7084  0.3377
 2954SOL    HW2 9183   2.224   3.286   4.263 -1.4706 -1.3059 -1.7255
 2955SOL     OW 9184   1.413   2.855   4.988 -0.5492  0.5022  0.3507
 2955SOL    HW1 9185   1.394   2.912   4.908  0.9272  1.0274  0.3520
 2955SOL    HW2 9186   1.506   2.871   5.019 -0.7470 -0.5027  1.5340
 2956SOL     OW 9187   1.397   3.350   3.586  0.3404  0.0177  0.1299
 2956SOL    HW1 9188   1.419   3.408   3.507 -0.6453 -0.8278 -0.7988
 2956SOL    HW2 9189   1.402   3.404   3.670  1.5849  0.8919 -0.4845
 2957SOL     OW 9190   3.355   2.171   4.555  0.3437 -1.0244 -0.3888
 2957SOL    HW1 9191   3.319   2.255   4.515  0.5011 -0.4589  0.6082
 2957SOL    HW2 9192   3.384   2.109   4.483 -1.2820 -0.9109 -1.1914
 2958SOL     OW 9193   3.165   2.778   4.158 -0.4847  0.3334  0.2293
 2958SOL    HW1 9194   3.099   2.852   4.171  0.1978  0.7899  1.2069
 2958SOL    HW2 9195   3.164   2.718   4.238 -0.7945 -0.5396 -0.4128
 2959SOL     OW 9196   4.502   4.978   4.403  0.5278  0.2723  0.0706
 2959SOL    HW1 9197   4.597   4.949   4.415  0.9792  2.0327  1.1238
 2959SOL    HW2 9198   4.475   4.963   4.308  1.0833 -2.2973  0.2369
 2960SOL     OW 9199   3.392   2.709   5.137 -0.5360  0.0832  0.0923
 2960SOL    HW1 9200   3.338   2.738   5.058 -0.3501  1.3996  0.4223
 2960SOL    HW2 9201   3.357   2.753   5.219  0.2877  0.0115  0.4941
 2961SOL     OW 9202   3.821   2.648   3.672 -0.4791  0.1463  0.6737
 2961SOL    HW1 9203   3.777   2.614   3.589 -1.0501 -0.8332  1.3578
 2961SOL    HW2 9204   3.855   2.571   3.725  0.1396  0.7833  1.2117
 2962SOL     OW 9205   1.443   3.490   3.349  0.8561 -0.1779 -0.0924
 2962SOL    HW1 9206   1.450   3.589   3.336  2.2027 -0.2985 -0.4369
 2962SOL    HW2 9207   1.422   3.447   3.261 -2.7763 -0.0117  0.5435
 2963SOL     OW 9208   3.089   2.716   3.434  0.5593  0.2314  0.4406
 2963SOL    HW1 9209   3.093   2.640   3.499  0.9868 -1.0130 -0.9843
 2963SOL    HW2 9210   2.997   2.721   3.394  0.7721 -0.1023 -0.1005
 2964SOL     OW 9211   3.814   1.046   4.947  0.0693  0.5118 -0.0556
 2964SOL    HW1 9212   3.722   1.081   4.966  0.3081  1.6443 -0.8815
 2964SOL    HW2 9213   3.857   1.103   4.877  2.0648  1.0823  1.5293
 2965SOL     OW 9214   3.295   2.441   1.168 -0.2771 -0.6984 -0.2191
 2965SOL    HW1 9215   3.199   2.441   1.195  0.3192  0.1062  2.1883
 2965SOL    HW2 9216   3.346   2.378   1.226  1.1422  1.3056  0.8503
 2966SOL     OW 9217   1.758   3.668   4.784  0.4495  0.5498  0.2415
 2966SOL    HW1 9218   1.735   3.604   4.711  1.6274 -0.8301  1.0158
 2966SOL    HW2 9219   1.763   3.761   4.747 -1.9967  0.3383 -0.7608
 2967SOL     OW 9220   2.891   2.486   5.250 -0.1412 -0.4279  0.2934
 2967SOL    HW1 9221   2.862   2.579   5.271 -0.6128 -0.1133 -1.5800
 2967SOL    HW2 9222   2.972   2.463   5.304  0.9261  1.6401 -0.3362
 2968SOL     OW 9223   5.106   2.444   0.162  0.6407 -0.1585 -0.0443
 2968SOL    HW1 9224   5.066   2.388   0.235  3.1198  0.4822  1.9790
 2968SOL    HW2 9225   5.070   2.537   0.168  0.8488 -0.1024  0.4333
 2969SOL     OW 9226   3.330   2.444   4.859  0.0711 -0.3622 -0.0115
 2969SOL    HW1 9227   3.250   2.384   4.848 -1.0500  0.8413  1.2450
 2969SOL    HW2 9228   3.300   2.539   4.859  1.1756  0.0684  2.7982
 2970SOL     OW 9229   3.492   1.954   4.356 -0.0151 -0.5653 -0.1957
 2970SOL    HW1 9230   3.508   2.011   4.275 -0.6699  0.8951  0.6702
 2970SOL    HW2 9231   3.575   1.953   4.412  0.3504 -1.3628 -0.7268
 2971SOL     OW 9232   2.184   2.239   5.098  0.1250  0.2473 -0.2687
 2971SOL    HW1 9233   2.144   2.191   5.177  0.5310  0.8530  0.3171
 2971SOL    HW2 9234   2.189   2.176   5.021  1.2157 -0.8749  0.6554
 2972SOL     OW 9235   2.797   2.768   5.340  0.2035  0.2198 -0.2175
 2972SOL    HW1 9236   2.700   2.783   5.325 -0.2482  0.0200  2.1769
 2972SOL    HW2 9237   2.844   2.855   5.353  0.1030  0.2447 -0.0288
 2973SOL     OW 9238   3.039   3.252   0.260 -0.2081 -0.0337 -0.0964
 2973SOL    HW1 9239   3.014   3.325   0.196  0.2327 -1.1482 -1.5917
 2973SOL    HW2 9240   2.957   3.211   0.298 -0.4700  0.8405  0.3195
 2974SOL     OW 9241   2.023   3.828   4.105 -0.0783  0.0507  0.0237
 2974SOL    HW1 9242   1.974   3.915   4.111  0.0462  0.0567  1.3437
 2974SOL    HW2 9243   2.048   3.810   4.010 -1.0959  0.8970 -0.4222
 2975SOL     OW 9244   2.884   1.880   4.958  0.0779  0.4396  0.2105
 2975SOL    HW1 9245   2.865   1.783   4.976  0.8820  0.5893  2.0057
 2975SOL    HW2 9246   2.821   1.936   5.011  0.0592  0.9179 -0.3126
 2976SOL     OW 9247   3.931   3.349   3.806  0.1843  0.1139  0.2936
 2976SOL    HW1 9248   3.918   3.448   3.811 -0.8352  0.0253 -0.2053
 2976SOL    HW2 9249   3.842   3.304   3.818  0.2849 -0.6544 -1.5761
 2977SOL     OW 9250   4.208   3.118   0.088 -0.1207 -0.4364 -0.7901
 2977SOL    HW1 9251   4.144   3.046   0.059 -0.3678  0.3178 -2.2533
 2977SOL    HW2 9252   4.165   3.174   0.158  0.0690 -1.6793  0.3565
 2978SOL     OW 9253   4.190   1.773   0.005  0.0259  0.6628  0.6302
 2978SOL    HW1 9254   4.279   1.816   0.024 -0.4347  2.1593 -0.3717
 2978SOL    HW2 9255   4.130   1.783   0.084  0.5258  0.2314  1.0716
 2979SOL     OW 9256   2.871   2.822   0.810 -0.5008  0.2806  0.1020
 2979SOL    HW1 9257   2.801   2.892   0.826 -0.8448 -0.3752  1.6789
 2979SOL    HW2 9258   2.829   2.739   0.775 -0.5164 -0.0647  0.9112
 2980SOL     OW 9259   3.564   2.108   4.130 -0.6407  0.2390 -0.1303
 2980SOL    HW1 9260   3.663   2.103   4.141 -0.8985 -0.6565  2.6339
 2980SOL    HW2 9261   3.532   2.200   4.150 -0.3615  0.6533 -1.5002
 2981SOL     OW 9262   3.164   2.570   0.731  0.6405  0.0673 -0.5561
 2981SOL    HW1 9263   3.180   2.668   0.718  0.4923  0.3109  0.8910
 2981SOL    HW2 9264   3.248   2.527   0.765  0.2291  0.0396  0.4649
 2982SOL     OW 9265   2.984   1.858   5.330  0.0549 -0.0648  0.3258
 2982SOL    HW1 9266   2.963   1.905   5.244 -0.6015 -0.8789  0.0270
 2982SOL    HW2 9267   3.040   1.778   5.311 -3.6369 -2.8108  0.0111
 2983SOL     OW 9268   1.665   2.170   5.314 -0.1675  0.0057 -0.3991
 2983SOL    HW1 9269   1.708   2.087   5.279 -1.2326 -0.3653 -0.8719
 2983SOL    HW2 9270   1.600   2.205   5.246  0.0367  1.0514 -0.0717
 2984SOL     OW 9271   2.551   2.628   4.536  0.8834  0.5085 -0.1693
 2984SOL    HW1 9272   2.629   2.636   4.475  0.9940 -0.5251 -0.1840
 2984SOL    HW2 9273   2.470   2.667   4.493  0.8596 -0.6102 -1.1720
 2985SOL     OW 9274   3.738   1.932   4.494  1.0781  0.0553 -0.1272
 2985SOL    HW1 9275   3.798   2.002   4.532  1.9287 -1.1130  0.7547
 2985SOL    HW2 9276   3.741   1.850   4.552  2.5022 -1.8748 -2.6913
 2986SOL     OW 9277   2.662   3.640   4.668  0.0190  0.4130 -0.8921
 2986SOL    HW1 9278   2.591   3.698   4.707 -0.4243 -0.0258 -1.0323
 2986SOL    HW2 9279   2.750   3.686   4.674 -0.3564  1.1962 -1.2147
 2987SOL     OW 9280   1.637   2.474   5.371 -0.0239  0.5061  0.5602
 2987SOL    HW1 9281   1.546   2.495   5.405  0.1378 -0.0877  1.3987
 2987SOL    HW2 9282   1.648   2.375   5.362  0.3898  0.5912  0.0398
 2988SOL     OW 9283   4.983   2.370   0.725 -0.3077 -0.4212  0.1938
 2988SOL    HW1 9284   4.883   2.366   0.714 -0.3706  2.4161 -1.2282
 2988SOL    HW2 9285   5.006   2.367   0.822 -1.6163 -2.4815  0.5086
 2989SOL     OW 9286   4.546   3.468   4.545  0.1303  0.1024  0.0823
 2989SOL    HW1 9287   4.610   3.428   4.479  0.4411 -0.0723  0.4919
 2989SOL    HW2 9288   4.524   3.400   4.615  2.2906  1.2570  2.0075
 2990SOL     OW 9289   2.316   0.029   4.501 -0.0032 -0.0569 -0.6237
 2990SOL    HW1 9290   2.404   0.024   4.547  0.2166  0.0108 -1.0369
 2990SOL    HW2 9291   2.249   0.071   4.563 -0.0584 -1.2073  0.1357
 2991SOL     OW 9292   2.360   3.428   0.525  0.3335  0.1503  0.0722
 2991SOL    HW1 9293   2.339   3.505   0.464  0.0629  0.2596  0.3022
 2991SOL    HW2 9294   2.422   3.458   0.597 -0.1809  0.2842  0.4640
 2992SOL     OW 9295   4.706   3.611   0.231  0.6304 -0.5419  0.2447
 2992SOL    HW1 9296   4.688   3.689   0.171  3.7568 -0.6070 -0.9313
 2992SOL    HW2 9297   4.744   3.645   0.318  3.8108 -0.6751 -0.9723
 2993SOL     OW 9298   2.160   2.514   5.046  0.2743  0.3448 -0.0403
 2993SOL    HW1 9299   2.188   2.421   5.066 -0.5100  0.4446  1.6784
 2993SOL    HW2 9300   2.091   2.514   4.974 -0.2570 -0.4775  0.4577
 2994SOL     OW 9301   3.800   3.376   2.211 -0.0158  0.4256 -0.0316
 2994SOL    HW1 9302   3.779   3.439   2.286  0.2030  0.5406 -0.0665
 2994SOL    HW2 9303   3.752   3.289   2.227 -0.1686  0.5351  0.1126
 2995SOL     OW 9304   3.477   2.863   4.762 -0.6826  0.2211  0.0604
 2995SOL    HW1 9305   3.556   2.835   4.816  2.1024  1.1099 -3.2096
 2995SOL    HW2 9306   3.455   2.959   4.781  0.7791  0.7619 -0.8479
 2996SOL     OW 9307   3.162   2.500   5.376 -0.3799 -0.2911 -0.0300
 2996SOL    HW1 9308   3.213   2.428   5.328 -0.4508  0.1049 -0.7271
 2996SOL    HW2 9309   3.195   2.589   5.345 -0.1533 -0.0187  0.9731
 2997SOL     OW 9310   1.982   3.261   5.039 -0.0429  0.1756 -0.1769
 2997SOL    HW1 9311   2.069   3.217   5.058 -0.7142 -1.1515 -0.0296
 2997SOL    HW2 9312   1.963   3.330   5.109 -0.1917 -1.1929  1.1851
 2998SOL     OW 9313   2.007   1.068   0.833 -0.7286  0.2202  0.2246
 2998SOL    HW1 9314   1.940   1.002   0.799 -1.1044  0.7347 -0.0346
 2998SOL    HW2 9315   2.075   1.086   0.762 -1.3978  1.1387 -0.2056
 2999SOL     OW 9316   3.456   2.334   4.142 -0.3468 -0.1915  0.3153
 2999SOL    HW1 9317   3.522   2.385   4.088 -3.7292  2.5525 -1.6098
 2999SOL    HW2 9318   3.441   2.380   4.229 -0.0728 -0.5535  0.5568
 3000SOL     OW 9319   4.484   0.828   4.482 -0.2513 -0.0513 -0.1645
 3000SOL    HW1 9320   4.404   0.885   4.461 -0.1406  0.4942  0.8194
 3000SOL    HW2 9321   4.524   0.795   4.397 -0.3022  1.3758 -0.7805
 3001SOL     OW 9322   2.416   3.469   3.833  0.5457  0.6297  0.4532
 3001SOL    HW1 9323   2.394   3.549   3.889  1.1640  1.2126 -0.1285
 3001SOL    HW2 9324   2.436   3.498   3.740 -0.0249 -0.2946  0.0301
 3002SOL     OW 9325   1.960   2.345   4.653  0.9019  0.6142  1.0006
 3002SOL    HW1 9326   2.029   2.378   4.588 -0.4880 -0.0140 -0.8929
 3002SOL    HW2 9327   1.957   2.245   4.650 -0.8170  0.6429  0.1509
 3003SOL     OW 9328   1.684   4.447   3.487  0.1237 -0.2311  0.2852
 3003SOL    HW1 9329   1.627   4.458   3.406  1.0459 -1.2900 -0.5267
 3003SOL    HW2 9330   1.743   4.367   3.477  1.3111  0.4594  1.3695
 3004SOL     OW 9331   2.632   2.154   0.210  0.0407  0.0329 -0.4242
 3004SOL    HW1 9332   2.692   2.105   0.272 -1.1465  0.2245  0.9199
 3004SOL    HW2 9333   2.614   2.096   0.130  1.2692 -0.3747 -0.4283
 3005SOL     OW 9334   1.944   2.487   4.116 -0.4599  0.1443  0.8441
 3005SOL    HW1 9335   1.955   2.431   4.198  0.8378  0.9347  1.2448
 3005SOL    HW2 9336   1.932   2.582   4.142  1.3024  0.6056  0.1320
 3006SOL     OW 9337   2.088   1.038   4.783 -0.0221 -0.2014  0.0432
 3006SOL    HW1 9338   2.179   1.039   4.741 -0.9338 -1.0966 -2.1079
 3006SOL    HW2 9339   2.076   0.951   4.833 -0.5386 -1.2452 -1.8036
 3007SOL     OW 9340   3.026   4.054   4.555  0.1367 -0.1874 -0.2270
 3007SOL    HW1 9341   2.982   4.113   4.623 -0.5738 -1.4585  0.4606
 3007SOL    HW2 9342   3.020   4.096   4.465  0.1913  1.0584  0.3282
 3008SOL     OW 9343   3.792   2.201   0.822  0.6219  0.4555  0.6204
 3008SOL    HW1 9344   3.728   2.137   0.865  0.2368  1.7194  2.0105
 3008SOL    HW2 9345   3.751   2.238   0.738 -0.1774  0.7151  1.1160
 3009SOL     OW 9346   2.656   2.366   4.890  0.1104 -0.7057 -0.0626
 3009SOL    HW1 9347   2.610   2.322   4.813  4.4975 -2.0172 -2.2772
 3009SOL    HW2 9348   2.653   2.465   4.880 -1.5974 -0.7794 -0.4344
 3010SOL     OW 9349   1.625   0.615   4.675  0.1008  0.5734 -0.2888
 3010SOL    HW1 9350   1.693   0.561   4.625  0.3146  0.2615  0.3371
 3010SOL    HW2 9351   1.547   0.557   4.699  0.9755  0.1345  1.6738
 3011SOL     OW 9352   1.953   2.530   4.852  0.8560 -0.5924  0.4427
 3011SOL    HW1 9353   1.935   2.611   4.796  1.1651 -0.7857  0.0481
 3011SOL    HW2 9354   1.933   2.448   4.798  1.9622 -0.7972  0.3071
 3012SOL     OW 9355   2.805   3.173   4.459 -0.0089  0.0689  0.1350
 3012SOL    HW1 9356   2.774   3.198   4.367 -0.1623 -1.2605 -0.1936
 3012SOL    HW2 9357   2.894   3.216   4.477 -1.0274  2.2139  0.2886
 3013SOL     OW 9358   2.543   1.663   4.980  0.8710 -0.2755 -0.3391
 3013SOL    HW1 9359   2.526   1.653   4.882  1.8232 -1.0060 -0.4480
 3013SOL    HW2 9360   2.641   1.672   4.996  0.6666  0.6190  0.4988
 3014SOL     OW 9361   3.535   2.191   2.718  0.5878  0.6726 -0.0127
 3014SOL    HW1 9362   3.595   2.201   2.798 -0.7175  2.1108  0.8209
 3014SOL    HW2 9363   3.499   2.280   2.692 -0.6207 -0.0682 -0.9568
 3015SOL     OW 9364   4.352   2.716   4.926  0.3613 -0.1793 -0.2114
 3015SOL    HW1 9365   4.437   2.674   4.957  0.3557 -0.6809 -0.8396
 3015SOL    HW2 9366   4.281   2.646   4.917 -0.1652  0.2538  0.4372
 3016SOL     OW 9367   2.563   2.776   0.478 -0.4401 -0.0163  0.0914
 3016SOL    HW1 9368   2.606   2.854   0.523  2.4358 -1.6602  0.4340
 3016SOL    HW2 9369   2.583   2.779   0.380 -0.9334  0.0164 -0.0122
 3017SOL     OW 9370   2.395   2.861   4.597 -0.2344  0.1648  0.0880
 3017SOL    HW1 9371   2.380   2.805   4.678 -1.4726 -0.9714 -0.8869
 3017SOL    HW2 9372   2.488   2.898   4.598  0.6022 -1.8340  0.8091
 3018SOL     OW 9373   3.019   3.296   4.541 -0.0539  0.4309 -0.2594
 3018SOL    HW1 9374   3.011   3.395   4.534 -0.9801  0.4219  0.4064
 3018SOL    HW2 9375   3.037   3.271   4.636  2.0590  0.0391 -0.7031
 3019SOL     OW 9376   3.685   2.400   5.392  0.1588 -0.2193 -0.1261
 3019SOL    HW1 9377   3.650   2.408   5.299 -0.2661  0.0595  0.0548
 3019SOL    HW2 9378   3.668   2.307   5.427 -1.1357  0.1312  0.2434
 3020SOL     OW 9379   3.907   0.834   3.415 -0.2693 -0.2363 -0.1803
 3020SOL    HW1 9380   3.889   0.920   3.367 -0.2344  0.2097  0.5901
 3020SOL    HW2 9381   3.985   0.787   3.372  1.1477  1.1856  0.7271
 3021SOL     OW 9382   2.415   4.064   0.799 -0.2460 -0.3746 -0.0270
 3021SOL    HW1 9383   2.406   4.143   0.738 -2.4385  0.7965  1.7142
 3021SOL    HW2 9384   2.477   4.087   0.874  2.7006 -1.9194 -1.7468
 3022SOL     OW 9385   3.470   2.028   5.051 -0.3792 -0.7224 -0.1549
 3022SOL    HW1 9386   3.389   2.046   5.107  0.1958  1.1054  0.1346
 3022SOL    HW2 9387   3.465   2.081   4.967 -0.3099 -1.9698 -0.9632
 3023SOL     OW 9388   3.647   2.924   5.491  0.3037  0.0221 -0.2569
 3023SOL    HW1 9389   3.597   2.859   5.549  0.5391 -0.0585 -0.1446
 3023SOL    HW2 9390   3.589   3.003   5.473  0.2739  0.1050  0.1971
 3024SOL     OW 9391   1.407   2.640   3.776 -0.3052 -0.8106 -0.6575
 3024SOL    HW1 9392   1.477   2.677   3.838  0.9454 -2.1899 -1.1794
 3024SOL    HW2 9393   1.414   2.686   3.688 -1.0110  0.0191 -0.2997
 3025SOL     OW 9394   4.005   3.661   4.682  0.1504  0.2190 -0.2437
 3025SOL    HW1 9395   4.085   3.601   4.684  0.3270  0.2763 -2.6665
 3025SOL    HW2 9396   3.942   3.631   4.610 -2.1533  0.0812  1.6861
 3026SOL     OW 9397   3.163   1.397   4.236  0.5369 -0.1121  0.2113
 3026SOL    HW1 9398   3.172   1.465   4.308  0.5480  0.1687 -0.0513
 3026SOL    HW2 9399   3.237   1.331   4.243  1.2208  0.5779 -0.2334
 3027SOL     OW 9400   3.431   2.170   4.829 -0.2786  0.2717  0.2056
 3027SOL    HW1 9401   3.386   2.158   4.740  2.1316 -0.3899 -0.9949
 3027SOL    HW2 9402   3.426   2.266   4.856  0.1280  0.7442 -1.3168
 3028SOL     OW 9403   4.020   2.834   3.625  0.5363  0.0060  0.0052
 3028SOL    HW1 9404   4.002   2.921   3.670  1.5284  0.7228 -0.9326
 3028SOL    HW2 9405   3.940   2.775   3.633 -0.3019  1.1553  0.3145
 3029SOL     OW 9406   2.287   1.968   5.214 -0.0666 -0.6192  0.0782
 3029SOL    HW1 9407   2.282   2.015   5.125  0.5299 -0.9403 -0.1286
 3029SOL    HW2 9408   2.357   1.898   5.210  1.4070  0.7040  1.4247
 3030SOL     OW 9409   3.731   2.575   3.417  0.1635  0.0258  1.0715
 3030SOL    HW1 9410   3.739   2.478   3.397 -3.0802 -0.2945  0.7722
 3030SOL    HW2 9411   3.709   2.625   3.333  2.1968  1.1422  1.1450
 3031SOL     OW 9412   4.686   3.948   4.170 -0.7615  0.0668 -0.0338
 3031SOL    HW1 9413   4.693   4.048   4.173 -2.9557  0.3888 -2.3589
 3031SOL    HW2 9414   4.728   3.914   4.086 -0.8147 -0.8812  0.3128
 3032SOL     OW 9415   2.371   3.671   4.002 -0.1502 -0.3072  0.7252
 3032SOL    HW1 9416   2.427   3.686   4.083 -0.1662 -1.1347  0.9046
 3032SOL    HW2 9417   2.361   3.756   3.951  3.5828 -0.6085 -0.8209
 3033SOL     OW 9418   3.937   2.971   5.153  0.6085  0.1187  0.3214
 3033SOL    HW1 9419   3.931   2.934   5.246  0.9981 -2.0354 -0.4476
 3033SOL    HW2 9420   3.851   2.951   5.104  0.5356  0.9290  0.1127
 3034SOL     OW 9421   2.593   4.709   3.497 -0.0237 -0.4276 -0.2853
 3034SOL    HW1 9422   2.574   4.630   3.556 -0.2060 -0.6092 -0.5831
 3034SOL    HW2 9423   2.680   4.695   3.449 -0.7720 -1.1448 -1.4773
 3035SOL     OW 9424   3.239   1.598   4.981 -0.9850 -0.0684 -0.2950
 3035SOL    HW1 9425   3.309   1.556   4.923 -0.7562  1.0011 -0.8118
 3035SOL    HW2 9426   3.160   1.623   4.926 -0.9582  0.5312 -0.0723
 3036SOL     OW 9427   1.866   4.216   3.361  0.1698 -0.0862  0.0137
 3036SOL    HW1 9428   1.923   4.156   3.306  0.9129  1.3475 -0.8103
 3036SOL    HW2 9429   1.774   4.177   3.367  0.1417 -0.4403 -2.0027
 3037SOL     OW 9430   3.416   2.940   4.169  0.5776 -0.1646 -0.1169
 3037SOL    HW1 9431   3.332   2.886   4.162  0.5074 -0.0862  0.1331
 3037SOL    HW2 9432   3.426   2.995   4.086  0.0426  0.3116  0.1271
 3038SOL     OW 9433   1.626   3.501   4.590  0.0678 -0.5240 -0.0872
 3038SOL    HW1 9434   1.531   3.475   4.608  0.3703 -0.4637  1.7223
 3038SOL    HW2 9435   1.636   3.525   4.493 -1.4686 -1.7300 -0.5782
 3039SOL     OW 9436   0.894   2.203   5.010 -0.1625  0.6108  0.1030
 3039SOL    HW1 9437   0.945   2.124   4.977  1.7539  1.6881  0.3627
 3039SOL    HW2 9438   0.803   2.174   5.040  0.3511 -1.4077 -0.1715
 3040SOL     OW 9439   2.646   1.323   0.357  0.5768  0.7261 -0.3824
 3040SOL    HW1 9440   2.671   1.283   0.445 -0.8216 -1.2808 -0.8215
 3040SOL    HW2 9441   2.729   1.331   0.300  1.1036 -0.4539  0.1803
 3041SOL     OW 9442   2.075   2.678   3.798  0.8776 -0.3590  0.3307
 3041SOL    HW1 9443   2.068   2.581   3.823 -2.6119 -0.3412 -0.0433
 3041SOL    HW2 9444   2.154   2.691   3.739  2.1439 -2.7205  1.3591
 3042SOL     OW 9445   4.320   2.658   4.421 -0.1654 -0.1020  0.4715
 3042SOL    HW1 9446   4.305   2.571   4.468  0.7282 -0.3327  0.3453
 3042SOL    HW2 9447   4.267   2.659   4.336 -1.4912  0.1681  1.2662
 3043SOL     OW 9448   3.315   3.138   3.922 -0.0123  0.2759  0.0090
 3043SOL    HW1 9449   3.260   3.208   3.967 -0.3206 -0.0186  0.0960
 3043SOL    HW2 9450   3.255   3.064   3.890  0.5280 -1.0347  1.8882
 3044SOL     OW 9451   2.364   2.080   5.445 -0.3402 -0.1706 -0.6138
 3044SOL    HW1 9452   2.349   2.047   5.352  2.3097  0.9376 -1.5443
 3044SOL    HW2 9453   2.432   2.023   5.490  0.1017  0.6490 -0.2150
 3045SOL     OW 9454   3.516   3.775   5.507 -0.1612  0.0632 -0.4238
 3045SOL    HW1 9455   3.522   3.874   5.497 -0.0442 -0.0615 -1.9256
 3045SOL    HW2 9456   3.608   3.736   5.509 -0.1903 -0.1777 -2.2215
 3046SOL     OW 9457   2.248   1.817   4.695 -0.3685 -0.1658 -0.4535
 3046SOL    HW1 9458   2.333   1.844   4.740  0.0687  0.9399 -1.8579
 3046SOL    HW2 9459   2.190   1.769   4.760  1.2415 -0.7928  0.6009
 3047SOL     OW 9460   3.694   3.788   4.924  0.4537 -0.5559  0.1626
 3047SOL    HW1 9461   3.770   3.724   4.909  0.0875 -0.6120 -1.6928
 3047SOL    HW2 9462   3.608   3.741   4.905 -0.3080 -1.1106  4.2208
 3048SOL     OW 9463   1.094   3.892   0.670  0.4438 -0.1292 -0.1865
 3048SOL    HW1 9464   1.174   3.865   0.723  0.5020  0.8951  0.2696
 3048SOL    HW2 9465   1.051   3.811   0.631  2.1825 -0.6319 -1.1549
 3049SOL     OW 9466   3.274   2.302   5.213  0.0610 -0.1191  0.0517
 3049SOL    HW1 9467   3.265   2.203   5.202  1.0490 -0.2199  0.1212
 3049SOL    HW2 9468   3.309   2.342   5.129  2.5009 -0.2229  0.9387
 3050SOL     OW 9469   3.618   1.964   4.791  0.0095  0.3784  0.2772
 3050SOL    HW1 9470   3.571   2.052   4.781  1.2920  1.3934  2.4179
 3050SOL    HW2 9471   3.713   1.980   4.817  0.9979 -1.6603 -1.7269
 3051SOL     OW 9472   4.678   3.960   1.104 -0.5687  0.4355 -0.1501
 3051SOL    HW1 9473   4.713   4.024   1.037 -0.3272  0.9739  0.4733
 3051SOL    HW2 9474   4.605   3.904   1.063 -0.8925  1.2151 -0.6598
 3052SOL     OW 9475   3.938   2.514   0.091 -0.1380 -0.3378  0.4670
 3052SOL    HW1 9476   3.989   2.428   0.088 -3.0191 -2.1412 -1.0497
 3052SOL    HW2 9477   3.921   2.546  -0.002  0.1605  1.4417  0.9980
 3053SOL     OW 9478   2.630   3.796   3.642  0.4231 -0.6449  0.0952
 3053SOL    HW1 9479   2.695   3.842   3.703  1.3741 -1.3429 -0.3688
 3053SOL    HW2 9480   2.645   3.826   3.548  1.0733 -1.8985 -0.2197
 3054SOL     OW 9481   3.808   2.260   4.310  0.0348  0.1656 -0.5900
 3054SOL    HW1 9482   3.806   2.360   4.317  0.3380  0.1486 -0.2643
 3054SOL    HW2 9483   3.824   2.220   4.400 -0.7804 -0.2054 -0.6028
 3055SOL     OW 9484   3.752   1.721   4.635 -0.0519 -0.2813 -0.0230
 3055SOL    HW1 9485   3.658   1.690   4.650 -0.3619  1.4706  2.0541
 3055SOL    HW2 9486   3.794   1.742   4.722  0.9322  2.7342 -1.1134
 3056SOL     OW 9487   3.671   3.174   0.192  0.2628  0.3204 -0.1096
 3056SOL    HW1 9488   3.732   3.096   0.207 -0.3102 -0.0392  0.3797
 3056SOL    HW2 9489   3.722   3.259   0.209  0.5768  0.0184  0.4988
 3057SOL     OW 9490   2.712   3.939   0.254  0.3168 -0.1010  0.7448
 3057SOL    HW1 9491   2.652   3.961   0.178 -0.8124 -0.0524  1.6218
 3057SOL    HW2 9492   2.710   3.840   0.270  1.8708 -0.3289 -0.3422
 3058SOL     OW 9493   2.153   2.840   4.826 -0.8901  0.2243  0.3124
 3058SOL    HW1 9494   2.218   2.764   4.832 -1.1917 -0.1206 -0.6862
 3058SOL    HW2 9495   2.096   2.842   4.908 -1.3241 -1.0413  0.0646
 3059SOL     OW 9496   2.814   4.167   0.726 -0.5232  0.1047  0.9749
 3059SOL    HW1 9497   2.899   4.203   0.687 -0.0648  0.1438  1.9752
 3059SOL    HW2 9498   2.777   4.233   0.791 -0.5013 -0.5690  1.6817
 3060SOL     OW 9499   4.334   2.956   4.754 -0.1358 -0.4116 -0.5372
 3060SOL    HW1 9500   4.401   2.887   4.781  0.0765 -0.8323 -2.0024
 3060SOL    HW2 9501   4.261   2.912   4.702 -0.0025  0.4438 -1.4852
 3061SOL     OW 9502   3.528   4.016   5.267 -0.7183  0.0823 -0.1701
 3061SOL    HW1 9503   3.557   4.086   5.202  2.6797  0.4979  1.5313
 3061SOL    HW2 9504   3.564   3.927   5.238  1.2823  0.3544  1.2192
 3062SOL     OW 9505   0.770   2.580   4.737 -0.3546  0.1904  0.5753
 3062SOL    HW1 9506   0.761   2.626   4.648  0.4901 -0.3459  0.2091
 3062SOL    HW2 9507   0.833   2.504   4.729 -0.5978 -0.1236  1.5485
 3063SOL     OW 9508   3.709   3.197   3.795 -0.1931 -0.1541 -0.0415
 3063SOL    HW1 9509   3.687   3.210   3.892 -1.5037  1.4552 -0.5085
 3063SOL    HW2 9510   3.670   3.110   3.764 -0.0976 -0.4985  0.7715
 3064SOL     OW 9511   4.494   2.022   4.314 -0.5161 -0.8031 -0.5226
 3064SOL    HW1 9512   4.586   1.989   4.336 -0.4522  0.4550  1.3765
 3064SOL    HW2 9513   4.426   1.956   4.347 -0.3331 -0.3877  0.7311
 3065SOL     OW 9514   3.668   1.183   4.436  1.1350  0.5573 -0.3882
 3065SOL    HW1 9515   3.676   1.100   4.492  1.5502 -0.0783 -1.3482
 3065SOL    HW2 9516   3.603   1.246   4.478  1.9906  0.4388  1.1820
 3066SOL     OW 9517   2.910   2.480   4.571 -0.2356 -0.1789  0.2774
 3066SOL    HW1 9518   2.861   2.550   4.519 -0.5672 -1.0944 -0.6880
 3066SOL    HW2 9519   2.875   2.390   4.546  0.2130 -0.7029  1.4628
 3067SOL     OW 9520   1.699   3.654   5.034  0.2573 -0.1723  0.8382
 3067SOL    HW1 9521   1.723   3.656   4.937  0.9255 -1.6721  0.9503
 3067SOL    HW2 9522   1.652   3.739   5.058  2.3803  1.3574 -0.1867
 3068SOL     OW 9523   3.861   2.405   3.856 -1.0785  0.8457 -0.2420
 3068SOL    HW1 9524   3.784   2.393   3.919 -1.2949 -0.7816 -0.7837
 3068SOL    HW2 9525   3.849   2.347   3.776  0.3686  1.0927 -0.6767
 3069SOL     OW 9526   2.912   2.338   5.014  0.4195  0.0497 -0.0898
 3069SOL    HW1 9527   2.910   2.396   5.095 -0.1624 -0.0261 -0.0448
 3069SOL    HW2 9528   2.819   2.319   4.984  0.6221  1.3660 -1.7085
 3070SOL     OW 9529   3.079   1.979   5.552  0.2938  0.1823  0.3196
 3070SOL    HW1 9530   3.035   1.929   5.477  0.0596  2.2825 -1.0414
 3070SOL    HW2 9531   3.050   2.075   5.549  1.2789  0.5932  2.3547
 3071SOL     OW 9532   2.209   2.990   3.796  0.1417 -0.3127 -0.0803
 3071SOL    HW1 9533   2.219   3.068   3.858  1.8871 -0.2977 -0.3117
 3071SOL    HW2 9534   2.129   3.003   3.738  1.3008  2.1713 -1.2786
 3072SOL     OW 9535   1.944   4.173   3.870 -0.1068 -0.2122 -0.5309
 3072SOL    HW1 9536   1.881   4.106   3.908  1.0247 -0.4033  1.1051
 3072SOL    HW2 9537   1.947   4.162   3.770 -0.7919 -1.8563 -0.4094
 3073SOL     OW 9538   2.861   3.939   5.407 -0.6888 -0.3635 -0.0375
 3073SOL    HW1 9539   2.844   4.031   5.373 -0.4931  1.1079  3.4682
 3073SOL    HW2 9540   2.959   3.927   5.422 -0.7356 -1.0975 -0.2686
 3074SOL     OW 9541   0.370   3.166   5.322  0.0663  0.8969  0.5365
 3074SOL    HW1 9542   0.467   3.165   5.346 -0.0332  0.5250  0.9292
 3074SOL    HW2 9543   0.357   3.215   5.235  1.0438 -2.0542 -1.4436
 3075SOL     OW 9544   3.596   4.178   5.066 -0.4629 -0.2635  0.5640
 3075SOL    HW1 9545   3.626   4.274   5.070 -0.7704 -0.1752  0.7721
 3075SOL    HW2 9546   3.665   4.124   5.018 -0.6005  0.1904 -0.1563
 3076SOL     OW 9547   2.033   0.040   1.197  0.4860 -0.0737 -1.0351
 3076SOL    HW1 9548   2.054  -0.044   1.147  0.9226 -0.1604 -0.7100
 3076SOL    HW2 9549   1.934   0.047   1.211  0.5813 -1.8821  1.2439
 3077SOL     OW 9550   3.719   5.498   0.571  1.1106 -0.2456 -0.1700
 3077SOL    HW1 9551   3.724   5.433   0.495 -3.5745 -0.3741 -0.6555
 3077SOL    HW2 9552   3.710   5.591   0.535 -0.3486 -0.2267  0.1853
 3078SOL     OW 9553   2.494   4.745   0.739  0.3334  0.1285 -0.1032
 3078SOL    HW1 9554   2.453   4.719   0.827  0.1820 -0.8606 -0.4501
 3078SOL    HW2 9555   2.513   4.843   0.739 -3.0105  0.9143 -0.2690
 3079SOL     OW 9556   3.317   4.809   5.128  0.3964 -0.4379 -0.5903
 3079SOL    HW1 9557   3.243   4.794   5.063 -2.1660  2.7818  1.2988
 3079SOL    HW2 9558   3.304   4.750   5.207 -0.1183  0.0392 -0.3136
 3080SOL     OW 9559   3.484   4.729   0.153 -0.2110 -0.5909 -0.6943
 3080SOL    HW1 9560   3.421   4.756   0.079  0.9805 -0.4430 -1.6904
 3080SOL    HW2 9561   3.451   4.767   0.239 -2.4212 -1.9427 -0.8471
 3081SOL     OW 9562   1.926   5.476   1.946 -0.0295 -0.1677 -0.1605
 3081SOL    HW1 9563   1.967   5.535   1.876  1.4871 -0.9880 -0.0041
 3081SOL    HW2 9564   1.957   5.506   2.036 -2.2798  1.1314  0.2569
 3082SOL     OW 9565   2.958   5.152   0.096  0.4560  0.3162  0.0500
 3082SOL    HW1 9566   2.986   5.057   0.079  0.5184  0.2883  0.3027
 3082SOL    HW2 9567   2.862   5.154   0.123  0.8990  0.1448  1.7260
 3083SOL     OW 9568   1.179   4.376   1.244  0.1796  0.1543 -0.3245
 3083SOL    HW1 9569   1.181   4.424   1.332 -0.2623 -1.8552  0.8652
 3083SOL    HW2 9570   1.108   4.415   1.186  0.6157  1.6525  0.1127
 3084SOL     OW 9571   2.111   0.612   0.792 -0.4347 -0.0803  0.1623
 3084SOL    HW1 9572   2.178   0.675   0.752  1.3133 -0.1691  2.7104
 3084SOL    HW2 9573   2.040   0.592   0.725  1.0309  1.5594 -2.0191
 3085SOL     OW 9574   2.772   5.239   2.351 -0.5999  0.1902  0.2213
 3085SOL    HW1 9575   2.757   5.166   2.283  0.3986  1.0296 -0.9486
 3085SOL    HW2 9576   2.845   5.299   2.319  0.0552  0.4881  2.1887
 3086SOL     OW 9577   3.166   5.045   3.753  0.3730  0.0066  0.5109
 3086SOL    HW1 9578   3.240   4.978   3.754  1.2368  0.8967 -0.5772
 3086SOL    HW2 9579   3.120   5.045   3.842 -0.3871 -2.7586  0.1986
 3087SOL     OW 9580   3.421   4.238   1.344 -0.2232 -0.0617 -0.5510
 3087SOL    HW1 9581   3.370   4.227   1.430  0.4277  1.7699  0.1024
 3087SOL    HW2 9582   3.371   4.300   1.284  0.8136  1.0993 -0.2352
 3088SOL     OW 9583   2.117   4.074   0.213 -0.6291  0.4336  0.9394
 3088SOL    HW1 9584   2.172   4.017   0.152 -1.3147 -1.5536  2.0995
 3088SOL    HW2 9585   2.178   4.125   0.274  0.0166  1.5000 -0.5514
 3089SOL     OW 9586   1.078   5.143   2.080 -0.7178  0.0324 -0.5656
 3089SOL    HW1 9587   1.144   5.141   2.005 -2.1453  0.4186 -1.8760
 3089SOL    HW2 9588   0.995   5.096   2.052 -0.6328 -1.4743  1.4631
 3090SOL     OW 9589   2.200   5.174   0.879 -0.0616 -0.0854  0.3154
 3090SOL    HW1 9590   2.111   5.151   0.918  0.3583  0.3459  1.5730
 3090SOL    HW2 9591   2.201   5.152   0.782 -1.4057 -0.4598  0.3769
 3091SOL     OW 9592   1.835   4.714   1.205 -0.6126 -0.2136 -0.1235
 3091SOL    HW1 9593   1.929   4.689   1.227 -0.4447  0.1272 -0.4402
 3091SOL    HW2 9594   1.784   4.730   1.290 -0.0987  0.6376  0.0385
 3092SOL     OW 9595   2.260   0.027   2.318 -0.1469  0.4385  0.5904
 3092SOL    HW1 9596   2.238   0.018   2.415 -0.5415 -0.6078  0.4127
 3092SOL    HW2 9597   2.190  -0.018   2.263 -0.3816  1.7543 -0.2373
 3093SOL     OW 9598   1.831   4.908   4.815 -0.1339 -0.0350  0.3593
 3093SOL    HW1 9599   1.766   4.982   4.829 -0.8349 -0.9071  1.8464
 3093SOL    HW2 9600   1.924   4.945   4.815 -0.5591  1.3346 -2.5267
 3094SOL     OW 9601   3.403   4.165   0.151  0.1512 -0.6659 -0.2946
 3094SOL    HW1 9602   3.464   4.127   0.081  0.9149  0.1833 -0.0973
 3094SOL    HW2 9603   3.427   4.127   0.241  1.2006  0.5646 -0.0282
 3095SOL     OW 9604   3.386   5.130   0.961 -0.3999  0.1525 -0.3328
 3095SOL    HW1 9605   3.294   5.169   0.950 -0.5035  1.0673  2.7991
 3095SOL    HW2 9606   3.453   5.204   0.968  0.1387 -0.4002  0.4995
 3096SOL     OW 9607   3.084   3.850   0.371  0.6068 -0.3068  0.4074
 3096SOL    HW1 9608   3.083   3.847   0.271 -1.4316  1.8706  0.2734
 3096SOL    HW2 9609   3.177   3.862   0.403  1.2917 -1.0109 -1.2099
 3097SOL     OW 9610   2.882   5.067   0.792  0.0174 -0.5230  0.6049
 3097SOL    HW1 9611   2.946   5.112   0.854 -1.8773  0.4641  1.9291
 3097SOL    HW2 9612   2.928   5.048   0.705  2.6687 -1.6667  2.1374
 3098SOL     OW 9613   3.324   5.583   0.869 -0.4989  0.1750 -0.4357
 3098SOL    HW1 9614   3.249   5.639   0.834 -0.7097 -0.0930 -0.4244
 3098SOL    HW2 9615   3.361   5.526   0.795 -0.2119  0.4124 -0.4731
 3099SOL     OW 9616   2.099   4.911   1.213 -0.1448 -0.5695  0.0163
 3099SOL    HW1 9617   2.101   4.937   1.117 -0.8871  0.2429  0.2069
 3099SOL    HW2 9618   2.085   4.812   1.221 -0.9093 -0.5268 -0.7065
 3100SOL     OW 9619   2.885   3.509   0.190  0.5333  0.6167 -0.1875
 3100SOL    HW1 9620   2.898   3.581   0.258 -1.0959  1.4494 -0.6954
 3100SOL    HW2 9621   2.790   3.479   0.192  0.9191 -0.6893 -0.8076
 3101SOL     OW 9622   3.308   3.887   2.380 -0.2419  0.6427 -0.5067
 3101SOL    HW1 9623   3.222   3.919   2.340 -2.2765 -0.8486  2.3029
 3101SOL    HW2 9624   3.295   3.872   2.478  3.4193  0.7868  0.1189
 3102SOL     OW 9625   2.391   4.810   0.183 -0.0698  0.8399 -0.4226
 3102SOL    HW1 9626   2.473   4.757   0.161  0.2475  1.5620 -1.0095
 3102SOL    HW2 9627   2.363   4.789   0.276 -0.3468 -0.8668 -0.8612
 3103SOL     OW 9628   3.048   4.158   0.579  0.1377  0.6003  0.6641
 3103SOL    HW1 9629   3.009   4.137   0.489 -0.4024  0.9163  0.8230
 3103SOL    HW2 9630   3.138   4.115   0.587 -0.4041 -0.5829  0.5079
 3104SOL     OW 9631   2.665   0.293   0.253 -0.3594 -0.1150  0.2366
 3104SOL    HW1 9632   2.633   0.378   0.212 -1.2026 -0.5889 -0.1158
 3104SOL    HW2 9633   2.713   0.313   0.339  0.9724  0.8441 -0.7062
 3105SOL     OW 9634   2.092   0.465   2.324  0.0309  0.2715 -0.1282
 3105SOL    HW1 9635   2.072   0.548   2.273 -0.6835 -0.7395 -1.5429
 3105SOL    HW2 9636   2.151   0.405   2.270 -2.1082 -1.5664 -0.5836
 3106SOL     OW 9637   1.448   3.146   0.591 -0.2606 -0.0611  0.5747
 3106SOL    HW1 9638   1.373   3.160   0.527  0.6940 -0.6040 -0.7014
 3106SOL    HW2 9639   1.478   3.235   0.626 -0.3295  0.3019 -0.2734
 3107SOL     OW 9640   2.335   5.432   0.736  0.1504  0.2007  0.3562
 3107SOL    HW1 9641   2.287   5.406   0.820  0.8343 -0.4098  0.5706
 3107SOL    HW2 9642   2.317   5.529   0.716  0.5397  0.5580  1.6001
 3108SOL     OW 9643   3.520   5.396   0.992  0.4174  0.0881 -0.1477
 3108SOL    HW1 9644   3.451   5.463   0.964  0.1024  0.0676  0.5475
 3108SOL    HW2 9645   3.610   5.424   0.956  0.3312  1.0087  0.3078
 3109SOL     OW 9646   2.258   3.445   5.029 -0.2878 -0.0765 -0.4448
 3109SOL    HW1 9647   2.189   3.510   4.994  0.4631  0.6507 -0.6028
 3109SOL    HW2 9648   2.301   3.398   4.952  0.3820  0.5070 -0.4383
 3110SOL     OW 9649   3.074   3.199   0.721  0.1224  0.6111 -0.2187
 3110SOL    HW1 9650   3.122   3.193   0.634  1.9432  0.6524  0.7401
 3110SOL    HW2 9651   3.126   3.151   0.791  0.2102  3.0163  1.4873
 3111SOL     OW 9652   4.968   5.240   0.642  0.0819 -0.5124 -0.5002
 3111SOL    HW1 9653   4.937   5.155   0.684  0.5316 -0.2520  0.3888
 3111SOL    HW2 9654   4.889   5.295   0.615 -0.2103 -1.0877 -0.8452
 3112SOL     OW 9655   3.152   4.142   1.178  0.0833  0.9447  0.7456
 3112SOL    HW1 9656   3.139   4.128   1.080 -0.5041  0.9944  0.8120
 3112SOL    HW2 9657   3.146   4.240   1.199  1.8478  1.1117  0.6104
 3113SOL     OW 9658   3.081   4.037   2.320  0.3563  0.0461 -0.4169
 3113SOL    HW1 9659   3.030   4.066   2.239  1.2253 -0.1241 -1.0313
 3113SOL    HW2 9660   3.062   4.100   2.396 -0.8076 -0.0464 -0.6124
 3114SOL     OW 9661   2.558   5.284   1.281 -0.0425  0.1183  0.2476
 3114SOL    HW1 9662   2.501   5.256   1.204  0.1957  1.6095 -0.5106
 3114SOL    HW2 9663   2.582   5.204   1.336  0.0686 -1.0354 -1.4095
 3115SOL     OW 9664   2.125   4.033   2.430 -0.9115  0.2353 -0.4380
 3115SOL    HW1 9665   2.136   3.936   2.407  0.2579  0.4276 -0.7023
 3115SOL    HW2 9666   2.212   4.071   2.458 -1.3412  1.2593 -0.4634
 3116SOL     OW 9667   2.169   4.522   5.280 -0.1893 -0.0927 -0.0644
 3116SOL    HW1 9668   2.138   4.594   5.343 -1.2254 -0.3558 -0.2527
 3116SOL    HW2 9669   2.264   4.539   5.254  0.5844 -0.4346  2.2460
 3117SOL     OW 9670   2.084   4.272   2.311  0.5810  0.1343 -0.2188
 3117SOL    HW1 9671   2.061   4.248   2.217  0.5808 -1.1601  0.0871
 3117SOL    HW2 9672   2.100   4.189   2.364  0.4496  0.8292  0.9659
 3118SOL     OW 9673   2.214   0.178   1.384 -0.5296 -0.0224  0.2710
 3118SOL    HW1 9674   2.237   0.104   1.448 -0.9480  0.3052  0.8084
 3118SOL    HW2 9675   2.185   0.137   1.297  1.1562 -0.4516 -0.1309
 3119SOL     OW 9676   2.773   4.226   4.399  0.7540 -0.0851 -0.6288
 3119SOL    HW1 9677   2.780   4.288   4.477 -1.6738  0.3334 -0.6721
 3119SOL    HW2 9678   2.743   4.277   4.318 -1.2482 -1.2648 -0.6782
 3120SOL     OW 9679   4.494   3.991   2.191 -0.2708 -0.0364  0.6276
 3120SOL    HW1 9680   4.395   4.000   2.200 -0.4946 -1.3375 -0.2478
 3120SOL    HW2 9681   4.519   3.894   2.184  1.0624  0.2690  0.8094
 3121SOL     OW 9682   3.150   0.496   0.355  0.4808 -0.1209  0.3050
 3121SOL    HW1 9683   3.213   0.531   0.425  0.5636 -0.3276  0.3336
 3121SOL    HW2 9684   3.202   0.475   0.272  0.2697  0.8658 -0.0881
 3122SOL     OW 9685   2.137   4.667   0.931  0.1924 -0.1575  0.5051
 3122SOL    HW1 9686   2.110   4.700   0.840  0.2436  0.8904  0.8528
 3122SOL    HW2 9687   2.055   4.646   0.984  0.1692 -1.1709  0.0862
 3123SOL     OW 9688   2.628   4.584   0.591  0.2082 -0.2888  0.2124
 3123SOL    HW1 9689   2.575   4.636   0.658  0.4917 -2.2493  2.0635
 3123SOL    HW2 9690   2.725   4.602   0.603  0.1771  1.6068 -1.7231
 3124SOL     OW 9691   1.679   4.731   5.141  0.4152 -0.6550  0.0057
 3124SOL    HW1 9692   1.658   4.637   5.115  2.0045 -0.9680 -0.2393
 3124SOL    HW2 9693   1.766   4.733   5.192  1.3116  0.8405 -1.4912
 3125SOL     OW 9694   3.031   5.458   0.667  0.1125 -0.0006 -0.0179
 3125SOL    HW1 9695   2.984   5.473   0.753  1.5294  1.3459  0.5734
 3125SOL    HW2 9696   2.988   5.513   0.595  1.0968  1.7659  0.6644
 3126SOL     OW 9697   2.019   5.502   2.224  0.3469 -0.0731 -0.7001
 3126SOL    HW1 9698   2.074   5.420   2.206  0.6759 -0.4398  1.6606
 3126SOL    HW2 9699   1.957   5.484   2.300 -0.2456  1.5919 -0.7498
 3127SOL     OW 9700   2.482   4.500   5.497 -0.2828 -0.2549  0.0751
 3127SOL    HW1 9701   2.477   4.523   5.400 -1.6783  1.6539  0.5263
 3127SOL    HW2 9702   2.532   4.573   5.545 -2.3997  0.5592  1.1917
 3128SOL     OW 9703   3.261   4.793   5.592 -0.4197  0.3237  0.7197
 3128SOL    HW1 9704   3.196   4.744   5.649 -1.3121 -2.0219 -2.0774
 3128SOL    HW2 9705   3.212   4.854   5.530  0.2347  0.4203  0.2866
 3129SOL     OW 9706   2.058   5.277   2.453  0.2351  0.1068 -0.3129
 3129SOL    HW1 9707   2.107   5.269   2.367  1.9997 -0.1701  0.6667
 3129SOL    HW2 9708   2.121   5.302   2.526 -1.2550  0.6076  0.8746
 3130SOL     OW 9709   3.200   4.532   4.923 -0.5525  0.4214 -0.8011
 3130SOL    HW1 9710   3.178   4.630   4.918 -1.4518  0.4120  1.8323
 3130SOL    HW2 9711   3.139   4.487   4.988  0.8969 -1.6035 -0.7610
 3131SOL     OW 9712   0.456   5.337   2.047  0.0359 -0.0288 -0.1978
 3131SOL    HW1 9713   0.455   5.272   2.123 -0.6833 -0.0021 -0.1769
 3131SOL    HW2 9714   0.526   5.407   2.064 -0.2209  0.0633  0.5218
 3132SOL     OW 9715   4.678   0.078   5.092  0.4700 -0.1471 -0.3843
 3132SOL    HW1 9716   4.768   0.097   5.132  1.3767 -0.0724 -2.3145
 3132SOL    HW2 9717   4.608   0.130   5.140  1.2428 -1.1690  1.9759
 3133SOL     OW 9718   2.719   0.552   0.620  0.5281  0.2074  0.0224
 3133SOL    HW1 9719   2.691   0.632   0.568  1.6630  0.8061  0.3010
 3133SOL    HW2 9720   2.785   0.579   0.691  1.1937 -1.0017 -0.1056
 3134SOL     OW 9721   3.122   4.213   0.137 -0.2294 -0.1511  0.1494
 3134SOL    HW1 9722   3.218   4.189   0.148  0.0294  0.3439 -0.9094
 3134SOL    HW2 9723   3.114   4.304   0.097 -1.0965 -0.8244 -1.2982
 3135SOL     OW 9724   2.554   5.482   0.031 -0.1475 -0.3569  0.2518
 3135SOL    HW1 9725   2.592   5.512  -0.056  1.0929 -1.4694  0.3817
 3135SOL    HW2 9726   2.625   5.436   0.085 -1.2795 -1.0735  1.1877
 3136SOL     OW 9727   3.603   5.230   2.839 -0.4122 -0.3213 -0.2016
 3136SOL    HW1 9728   3.695   5.241   2.877 -0.7528  0.8380  0.3629
 3136SOL    HW2 9729   3.558   5.152   2.882 -0.1515 -0.0916  0.5104
 3137SOL     OW 9730   1.651   4.619   0.376  0.3761  0.3721  0.0573
 3137SOL    HW1 9731   1.660   4.554   0.301 -0.3660 -0.4946  0.6928
 3137SOL    HW2 9732   1.562   4.664   0.371 -0.2277 -0.6297  1.1035
 3138SOL     OW 9733   4.162   3.999   1.412 -0.1165 -0.0017 -0.5081
 3138SOL    HW1 9734   4.186   3.967   1.504  0.8359  1.1575 -0.3192
 3138SOL    HW2 9735   4.152   4.099   1.414  0.8508  0.1443 -1.8563
 3139SOL     OW 9736   2.187   4.965   0.039 -0.0867  0.2198  0.1105
 3139SOL    HW1 9737   2.114   4.967   0.107  0.7896 -0.2961  1.1043
 3139SOL    HW2 9738   2.269   4.924   0.080  0.2592 -0.7409 -1.4647
 3140SOL     OW 9739   3.416   0.124   1.666  0.4061 -0.3087 -0.2286
 3140SOL    HW1 9740   3.474   0.045   1.651  0.7762  0.2574 -1.8940
 3140SOL    HW2 9741   3.383   0.123   1.761  0.5628 -2.3217 -0.1516
 3141SOL     OW 9742   3.083   5.155   0.357 -0.1352  0.6542  0.0397
 3141SOL    HW1 9743   3.049   5.152   0.263 -0.4210 -1.4179  0.1687
 3141SOL    HW2 9744   3.181   5.174   0.356  0.4949 -2.1902 -0.9210
 3142SOL     OW 9745   2.516   3.912   1.330  0.5495  0.1084  0.0181
 3142SOL    HW1 9746   2.470   3.884   1.414 -1.0880  0.9036 -0.5688
 3142SOL    HW2 9747   2.584   3.982   1.352  0.5948 -0.1585  0.7595
 3143SOL     OW 9748   3.239   5.353   2.060  0.0234  0.0063  0.2844
 3143SOL    HW1 9749   3.291   5.430   2.096  0.1000 -0.2259  0.6808
 3143SOL    HW2 9750   3.203   5.376   1.970  2.3750 -0.4821 -0.8475
 3144SOL     OW 9751   1.893   3.425   5.233  0.4168  0.5508  0.2261
 3144SOL    HW1 9752   1.915   3.424   5.331  2.1090  2.7316 -0.0475
 3144SOL    HW2 9753   1.795   3.442   5.221  0.2247  0.4935  1.5486
 3145SOL     OW 9754   3.463   3.651   4.887 -0.2054 -0.5761 -0.6574
 3145SOL    HW1 9755   3.501   3.560   4.903 -1.2669 -1.1242 -1.1411
 3145SOL    HW2 9756   3.376   3.660   4.935  0.1081  0.3502 -0.2462
 3146SOL     OW 9757   2.630   0.181   0.823 -0.2497 -0.2126  0.0525
 3146SOL    HW1 9758   2.616   0.083   0.806  1.8899 -0.1840 -2.5811
 3146SOL    HW2 9759   2.553   0.232   0.785 -2.3580 -0.8119  3.1043
 3147SOL     OW 9760   2.132   2.769   0.230  0.6067  0.4479 -0.1826
 3147SOL    HW1 9761   2.098   2.753   0.322  0.8520 -2.1227 -0.4745
 3147SOL    HW2 9762   2.056   2.764   0.165  0.7099  0.3492 -0.2965
 3148SOL     OW 9763   2.883   4.829   0.293 -0.2329 -0.4863  0.2714
 3148SOL    HW1 9764   2.832   4.817   0.207 -0.8038 -0.9375  0.6633
 3148SOL    HW2 9765   2.829   4.885   0.356  0.9178  1.3104 -0.2610
 3149SOL     OW 9766   2.317   4.379   2.445  0.3463 -0.4152 -0.2880
 3149SOL    HW1 9767   2.230   4.354   2.402  0.2840 -1.9231  0.6499
 3149SOL    HW2 9768   2.378   4.300   2.444  1.6520  0.5614 -0.7266
 3150SOL     OW 9769   3.424   0.079   1.926  0.1722  0.4494 -0.8990
 3150SOL    HW1 9770   3.361   0.155   1.942 -0.4595 -0.2172 -0.0950
 3150SOL    HW2 9771   3.518   0.108   1.943 -0.1272  0.8588  0.1271
 3151SOL     OW 9772   1.180   3.947   1.020 -0.0113  0.0763  0.2127
 3151SOL    HW1 9773   1.214   3.879   0.956  0.6686  0.5398  0.0684
 3151SOL    HW2 9774   1.178   3.909   1.112  1.8830  0.3416  0.3897
 3152SOL     OW 9775   2.397   5.375   2.910 -0.1673  0.1978  0.3794
 3152SOL    HW1 9776   2.384   5.278   2.888 -1.1569  0.8523 -2.2750
 3152SOL    HW2 9777   2.490   5.402   2.888 -0.1980  0.0964  0.1280
 3153SOL     OW 9778   3.508   5.132   4.908 -0.5264 -0.5637  0.6374
 3153SOL    HW1 9779   3.534   5.057   4.969  1.0225 -0.8582 -0.3129
 3153SOL    HW2 9780   3.508   5.098   4.813 -2.5095 -0.0294  0.4027
 3154SOL     OW 9781   1.227   4.766   0.609 -0.4289 -0.8987 -0.4734
 3154SOL    HW1 9782   1.198   4.733   0.699  0.8453 -0.7368  0.0266
 3154SOL    HW2 9783   1.217   4.692   0.542 -1.3668 -1.0310 -0.2042
 3155SOL     OW 9784   0.851   3.507   0.925 -0.4364  0.0069  0.4259
 3155SOL    HW1 9785   0.909   3.467   0.997  0.0535  1.6696  1.0083
 3155SOL    HW2 9786   0.900   3.505   0.838 -0.7115 -1.2886  0.2846
 3156SOL     OW 9787   2.712   2.645   0.689 -0.4850  0.1435  0.3027
 3156SOL    HW1 9788   2.672   2.681   0.604 -1.1015  0.2479  0.6337
 3156SOL    HW2 9789   2.640   2.629   0.756  0.0981  1.0135  1.1616
 3157SOL     OW 9790   1.437   3.159   1.099 -0.7718  0.0705 -0.1057
 3157SOL    HW1 9791   1.487   3.088   1.149  0.4349  1.6834  1.0740
 3157SOL    HW2 9792   1.452   3.247   1.142 -0.5919  1.3885 -2.6662
 3158SOL     OW 9793   3.276   1.113   0.267  0.4235 -0.0300  0.2357
 3158SOL    HW1 9794   3.190   1.126   0.317 -0.6520  1.3247 -1.8302
 3158SOL    HW2 9795   3.350   1.159   0.316 -0.4629  0.7029  0.9188
 3159SOL     OW 9796   2.930   3.670   0.904  0.3080 -0.8165  0.5158
 3159SOL    HW1 9797   2.845   3.719   0.921  0.4229 -0.4975  0.1996
 3159SOL    HW2 9798   2.993   3.729   0.853  0.7963 -0.9744  0.9186
 3160SOL     OW 9799   3.271   4.622   5.313  0.5369  0.6082 -0.5125
 3160SOL    HW1 9800   3.211   4.699   5.336  0.2210  0.7821 -1.7959
 3160SOL    HW2 9801   3.222   4.536   5.326  0.3038  0.7114 -0.6844
 3161SOL     OW 9802   2.718   4.613   0.335  0.0983  0.1150 -0.0693
 3161SOL    HW1 9803   2.799   4.666   0.358  0.7842 -1.6135  1.8458
 3161SOL    HW2 9804   2.678   4.575   0.419 -0.3518 -2.3319 -1.2947
 3162SOL     OW 9805   3.135   4.986   5.444 -0.1996 -0.0466  0.1270
 3162SOL    HW1 9806   3.089   4.898   5.429 -0.0438 -0.3569  1.3424
 3162SOL    HW2 9807   3.098   5.054   5.381 -1.1613 -0.6978 -0.0384
 3163SOL     OW 9808   2.230   0.577   0.154 -0.1789  0.3091  0.2885
 3163SOL    HW1 9809   2.293   0.608   0.225  0.0059  1.5921 -0.3988
 3163SOL    HW2 9810   2.239   0.635   0.074 -2.5639  0.8375  0.3160
 3164SOL     OW 9811   2.286   3.927   4.182  0.1530  0.3888  0.2338
 3164SOL    HW1 9812   2.266   4.006   4.124  1.0302  0.6406  0.2676
 3164SOL    HW2 9813   2.211   3.861   4.175  1.3276 -0.8023 -3.1894
 3165SOL     OW 9814   3.869   5.050   1.916  0.1212 -0.3764 -0.1112
 3165SOL    HW1 9815   3.867   4.960   1.872 -1.2816 -0.7715  0.6933
 3165SOL    HW2 9816   3.963   5.083   1.920  0.7684 -2.1665  0.3069
 3166SOL     OW 9817   2.751   4.984   2.240  0.2806  0.2248  0.0055
 3166SOL    HW1 9818   2.786   4.922   2.310  0.5666  1.0929  0.6471
 3166SOL    HW2 9819   2.653   4.969   2.229 -0.3436  1.8732  2.5442
 3167SOL     OW 9820   4.587   4.792   2.520 -0.2138 -0.3020  0.0247
 3167SOL    HW1 9821   4.511   4.804   2.457 -0.2640 -2.4136 -0.3731
 3167SOL    HW2 9822   4.560   4.729   2.594  1.0027 -0.7626  0.0981
 3168SOL     OW 9823   2.355   4.650   1.370  0.0237 -0.2673  0.1589
 3168SOL    HW1 9824   2.348   4.750   1.360  0.3186 -0.1959  0.6075
 3168SOL    HW2 9825   2.306   4.621   1.453 -1.1268 -0.6559 -0.6395
 3169SOL     OW 9826   3.267   0.189   1.410  0.4988 -0.1107 -0.3083
 3169SOL    HW1 9827   3.311   0.155   1.493  1.9285 -0.1526 -1.0596
 3169SOL    HW2 9828   3.334   0.237   1.353 -0.9971  2.2435 -0.2323
 3170SOL     OW 9829   1.764   4.311   1.044  0.2781  0.0720  0.3576
 3170SOL    HW1 9830   1.728   4.269   0.961 -2.5132  4.3233 -0.8960
 3170SOL    HW2 9831   1.715   4.276   1.123  0.7695 -1.7369 -0.0911
 3171SOL     OW 9832   3.246   3.693   5.052 -0.3398 -0.5763  0.3530
 3171SOL    HW1 9833   3.175   3.623   5.045 -2.4073  1.2612  1.6401
 3171SOL    HW2 9834   3.322   3.659   5.107 -1.7009 -1.5310  1.7221
 3172SOL     OW 9835   2.248   5.453   1.913 -0.0052 -0.7114  0.4930
 3172SOL    HW1 9836   2.269   5.381   1.847 -1.0892 -1.1043  0.5640
 3172SOL    HW2 9837   2.322   5.520   1.913 -0.2872 -0.3062 -1.6625
 3173SOL     OW 9838   3.943   3.042   0.746  0.0569 -0.2747  0.0136
 3173SOL    HW1 9839   3.914   2.949   0.723  2.5781 -0.7915 -1.6204
 3173SOL    HW2 9840   3.926   3.102   0.668  1.6736 -0.2411 -0.3584
 3174SOL     OW 9841   2.393   5.465   1.080 -0.1436  0.2974  0.2225
 3174SOL    HW1 9842   2.417   5.562   1.080 -0.1916  0.3750  2.7146
 3174SOL    HW2 9843   2.295   5.455   1.094  0.2004 -0.0421  2.9462
 3175SOL     OW 9844   2.913   4.376   1.071  0.0007 -0.1361  0.3929
 3175SOL    HW1 9845   2.849   4.376   1.148 -1.3740  1.8445 -0.6706
 3175SOL    HW2 9846   2.862   4.371   0.986  1.4482 -1.1792 -0.4549
 3176SOL     OW 9847   2.951   3.899   0.752  0.3348  0.2498  0.0287
 3176SOL    HW1 9848   3.002   3.853   0.679 -1.5579  0.4531 -1.5082
 3176SOL    HW2 9849   2.916   3.987   0.718  0.2257  0.8127  1.5176
 3177SOL     OW 9850   4.056   0.874   0.223  0.2126  0.3781 -0.3098
 3177SOL    HW1 9851   4.113   0.817   0.164  0.0422  1.2958 -1.4070
 3177SOL    HW2 9852   4.033   0.824   0.306  0.8625 -0.7772 -0.8011
 3178SOL     OW 9853   3.010   4.699   0.875  0.0047  0.7514 -0.0923
 3178SOL    HW1 9854   3.053   4.622   0.923 -1.7677 -0.3116 -0.1225
 3178SOL    HW2 9855   3.024   4.783   0.926  1.6709  0.3733  0.1346
 3179SOL     OW 9856   3.636   4.767   4.816 -0.3981  0.3241 -0.1659
 3179SOL    HW1 9857   3.699   4.698   4.852  0.0345  0.7835 -0.0377
 3179SOL    HW2 9858   3.623   4.839   4.885  1.1144  1.6626 -1.2170
 3180SOL     OW 9859   2.392   0.331   1.829 -0.1387 -0.0083  0.5023
 3180SOL    HW1 9860   2.414   0.380   1.913  0.3325 -1.6964  1.4165
 3180SOL    HW2 9861   2.380   0.234   1.849  0.1476 -0.4939 -1.4138
 3181SOL     OW 9862   1.963   5.155   2.022 -0.1490 -0.1426  0.1409
 3181SOL    HW1 9863   1.885   5.099   1.994  0.0338 -0.3531  0.0458
 3181SOL    HW2 9864   1.952   5.248   1.987 -0.3345 -0.1831  0.0906
 3182SOL     OW 9865   4.059   4.272   2.219  0.5778  0.2708 -1.0809
 3182SOL    HW1 9866   4.148   4.228   2.211  0.0337 -1.3287  0.8603
 3182SOL    HW2 9867   3.988   4.210   2.186  0.0322  0.8874 -1.0923
 3183SOL     OW 9868   2.366   4.478   2.833 -0.3241 -0.0466 -0.2265
 3183SOL    HW1 9869   2.366   4.381   2.856  1.3738  0.2803  1.4856
 3183SOL    HW2 9870   2.461   4.511   2.833 -0.9920  2.2900  2.6477
 3184SOL     OW 9871   2.521   4.918   1.095 -0.4057  0.2825 -0.2966
 3184SOL    HW1 9872   2.521   5.018   1.099 -0.7744  0.2548  1.0916
 3184SOL    HW2 9873   2.614   4.884   1.113 -0.6415  0.3562  1.1786
 3185SOL     OW 9874   2.899   4.540   0.686  0.0202 -0.0470  0.2146
 3185SOL    HW1 9875   2.980   4.487   0.660 -0.1927 -0.0105 -0.5473
 3185SOL    HW2 9876   2.924   4.609   0.754  0.1694 -1.5776  1.7942
 3186SOL     OW 9877   2.453   2.860   5.575 -0.2779 -0.5196  0.2411
 3186SOL    HW1 9878   2.388   2.906   5.635  1.0410  0.2500  1.1303
 3186SOL    HW2 9879   2.413   2.775   5.541 -1.2759 -0.6821  1.7425
 3187SOL     OW 9880   2.783   3.934   0.971  0.3785 -0.0920 -0.2034
 3187SOL    HW1 9881   2.811   3.944   0.876  1.0887 -0.2119 -0.0130
 3187SOL    HW2 9882   2.704   3.993   0.989 -0.2733 -0.6768 -1.0710
 3188SOL     OW 9883   1.772   5.250   0.539  0.3202 -0.0840  0.3399
 3188SOL    HW1 9884   1.830   5.189   0.593 -0.0429 -0.5200  0.2437
 3188SOL    HW2 9885   1.676   5.222   0.549  0.2038  0.1309 -0.1494
 3189SOL     OW 9886   3.035   3.759   0.120  0.2817  0.4170  0.8232
 3189SOL    HW1 9887   3.077   3.790   0.035  0.2652 -0.7425  0.3803
 3189SOL    HW2 9888   2.936   3.776   0.117  0.2210  0.0017  0.4365
 3190SOL     OW 9889   3.100   5.148   1.004 -0.2014  0.5601 -0.4402
 3190SOL    HW1 9890   3.128   5.220   0.941  0.0430  0.1495 -0.8094
 3190SOL    HW2 9891   3.078   5.188   1.093  0.2842  1.0477 -0.5341
 3191SOL     OW 9892   3.116   4.090   0.910  0.9879  0.2027 -0.1776
 3191SOL    HW1 9893   3.027   4.044   0.902  1.2488 -0.3540  0.0135
 3191SOL    HW2 9894   3.160   4.093   0.820  0.2318  1.6391 -0.5320
 3192SOL     OW 9895   3.333   3.239   0.147 -0.1450  0.2628  0.0490
 3192SOL    HW1 9896   3.397   3.298   0.196 -0.4130  0.4450  0.1844
 3192SOL    HW2 9897   3.243   3.282   0.146 -0.4841 -0.4192  0.6497
 3193SOL     OW 9898   2.819   5.230   0.503 -0.0893 -0.0898 -0.4298
 3193SOL    HW1 9899   2.849   5.287   0.579  0.4370 -0.2893 -0.4832
 3193SOL    HW2 9900   2.894   5.170   0.475  0.4859  1.5139 -2.5664
 3194SOL     OW 9901   2.415   4.649   2.405  0.8195 -0.1480 -0.2835
 3194SOL    HW1 9902   2.377   4.725   2.458  0.6497  1.2606 -2.3156
 3194SOL    HW2 9903   2.372   4.563   2.433  2.9660 -0.0731  4.0740
 3195SOL     OW 9904   4.378   4.602   1.480 -0.0141  0.0335 -0.0349
 3195SOL    HW1 9905   4.448   4.670   1.504  0.4163 -0.1370 -0.7834
 3195SOL    HW2 9906   4.419   4.529   1.426 -0.7299 -0.1791 -0.3025
 3196SOL     OW 9907   1.811   4.920   1.553  0.0159 -0.1479 -0.3590
 3196SOL    HW1 9908   1.878   4.972   1.499 -0.5384  1.0135  0.0291
 3196SOL    HW2 9909   1.820   4.945   1.649 -0.6685 -0.3202 -0.2459
 3197SOL     OW 9910   4.269   5.389   4.074  0.0064  0.3006 -1.0426
 3197SOL    HW1 9911   4.340   5.389   4.144 -0.2477 -0.5343 -0.7734
 3197SOL    HW2 9912   4.188   5.436   4.109 -0.1404 -0.1639 -0.7455
 3198SOL     OW 9913   3.711   3.746   4.471  0.1866  0.5592  0.1092
 3198SOL    HW1 9914   3.776   3.774   4.401  1.0970 -1.0480  0.2679
 3198SOL    HW2 9915   3.696   3.821   4.535  1.1936  1.2459 -0.4448
 3199SOL     OW 9916   2.793   5.267   5.417  0.3788 -0.5788  0.3252
 3199SOL    HW1 9917   2.876   5.226   5.378  0.6754 -1.1120  1.4499
 3199SOL    HW2 9918   2.813   5.359   5.451 -0.0801  0.2173 -1.4479
 3200SOL     OW 9919   2.662   3.691   0.351  0.2607  0.3488  0.0318
 3200SOL    HW1 9920   2.734   3.667   0.416 -0.4227  0.9557  1.0565
 3200SOL    HW2 9921   2.578   3.711   0.402 -0.2323  1.0530 -1.0313
 3201SOL     OW 9922   2.149   4.177   1.203  0.1714 -0.2531  0.3373
 3201SOL    HW1 9923   2.103   4.145   1.286 -2.2860 -0.8647 -1.1344
 3201SOL    HW2 9924   2.114   4.268   1.179 -2.6151 -1.8033 -2.2673
 3202SOL     OW 9925   2.776   3.712   2.348  0.0706 -0.1993  0.1409
 3202SOL    HW1 9926   2.836   3.652   2.295 -0.7757 -0.4526 -0.5517
 3202SOL    HW2 9927   2.682   3.704   2.314  0.0049  1.8174 -0.2546
 3203SOL     OW 9928   3.546   3.786   1.095  0.2335 -0.2578  0.2241
 3203SOL    HW1 9929   3.570   3.807   1.000  0.6444  2.9275  0.9002
 3203SOL    HW2 9930   3.488   3.859   1.131 -0.3371 -1.6463  2.3067
 3204SOL     OW 9931   1.874   4.574   0.525 -0.2051  0.2639 -0.0451
 3204SOL    HW1 9932   1.943   4.595   0.455  0.2689 -0.2182  0.2708
 3204SOL    HW2 9933   1.783   4.578   0.484  0.1364 -1.3566 -1.0471
 3205SOL     OW 9934   2.780   4.821   1.101  0.0598  0.2328 -0.3924
 3205SOL    HW1 9935   2.765   4.783   1.010 -0.0893 -1.5816  0.3549
 3205SOL    HW2 9936   2.874   4.857   1.107 -0.1998  1.1524 -1.4930
 3206SOL     OW 9937   2.393   0.309   0.738  0.2184 -0.3102 -0.8294
 3206SOL    HW1 9938   2.341   0.350   0.813 -2.1500 -2.7068 -1.0178
 3206SOL    HW2 9939   2.372   0.356   0.652  0.6276  0.5307 -0.4812
 3207SOL     OW 9940   2.768   0.418   2.298  0.4812  0.4916 -0.5044
 3207SOL    HW1 9941   2.717   0.390   2.379  1.4971  0.3410  0.0993
 3207SOL    HW2 9942   2.754   0.352   2.225  1.1172 -0.4378  0.1987
 3208SOL     OW 9943   1.745   3.356   1.152 -0.7623 -0.3036 -0.0459
 3208SOL    HW1 9944   1.795   3.340   1.237  0.2803  0.0618 -0.5752
 3208SOL    HW2 9945   1.646   3.348   1.169 -0.5116 -2.1294  0.7962
 3209SOL     OW 9946   2.132   4.303   1.500  0.3622  0.6575  0.1096
 3209SOL    HW1 9947   2.078   4.381   1.531  0.4148  0.7510 -0.0326
 3209SOL    HW2 9948   2.227   4.315   1.529  0.5849  1.1422 -0.7691
 3210SOL     OW 9949   3.430   5.546   2.259 -0.4352 -0.7882  0.1432
 3210SOL    HW1 9950   3.505   5.509   2.314 -0.4807 -0.2953  0.5453
 3210SOL    HW2 9951   3.445   5.644   2.244 -0.2499 -0.9811 -1.0151
 3211SOL     OW 9952   3.280   4.033   5.341 -0.4224  0.0839 -0.5183
 3211SOL    HW1 9953   3.255   4.128   5.325  0.6609  0.4433 -0.1607
 3211SOL    HW2 9954   3.374   4.018   5.311 -1.4447 -1.6130 -3.3097
 3212SOL     OW 9955   3.124   4.159   1.607 -0.3373 -0.0096 -0.4759
 3212SOL    HW1 9956   3.164   4.250   1.600 -1.6705  0.5519 -1.1752
 3212SOL    HW2 9957   3.176   4.095   1.551 -0.0359  0.5688 -0.8618
 3213SOL     OW 9958   1.384   5.562   1.545 -0.1691  0.3128 -0.1928
 3213SOL    HW1 9959   1.433   5.497   1.602  0.0651  1.8230  1.4150
 3213SOL    HW2 9960   1.354   5.517   1.461  0.1053 -1.7877  0.7797
 3214SOL     OW 9961   2.229   5.120   2.623 -0.4507 -0.2347 -0.0925
 3214SOL    HW1 9962   2.282   5.081   2.698 -1.0635  1.4692  1.2810
 3214SOL    HW2 9963   2.270   5.207   2.595 -2.2428  0.9575  0.7663
 3215SOL     OW 9964   3.011   5.211   1.896  0.3585  0.5009 -0.0142
 3215SOL    HW1 9965   2.941   5.261   1.846 -0.4772 -0.4374  0.1942
 3215SOL    HW2 9966   3.098   5.219   1.847 -0.3008  0.1350 -1.3025
 3216SOL     OW 9967   3.245   4.822   4.432  0.1253  0.3838 -0.2440
 3216SOL    HW1 9968   3.300   4.798   4.513 -1.9405  0.0010  1.1148
 3216SOL    HW2 9969   3.306   4.834   4.353  2.2101  0.7267  1.3275
 3217SOL     OW 9970   2.010   4.348   0.648  0.0465 -0.6821 -0.0025
 3217SOL    HW1 9971   1.971   4.258   0.630 -0.6528 -0.5703  0.8387
 3217SOL    HW2 9972   1.959   4.417   0.595 -0.1743 -0.6607  0.2344
 3218SOL     OW 9973   3.530   4.723   1.042 -0.0265 -0.6382 -0.2269
 3218SOL    HW1 9974   3.618   4.756   1.008  0.1370  0.0393  0.8017
 3218SOL    HW2 9975   3.543   4.675   1.129 -0.7787  0.4091  0.4942
 3219SOL     OW 9976   4.109   0.444   5.136 -0.0753 -0.7737 -0.6269
 3219SOL    HW1 9977   4.174   0.409   5.069 -0.6508 -0.7746 -1.1970
 3219SOL    HW2 9978   4.156   0.504   5.201  1.2624 -3.6659  1.2933
 3220SOL     OW 9979   2.455   0.455   2.074 -0.2948 -0.1708 -0.4166
 3220SOL    HW1 9980   2.478   0.552   2.064 -0.0635  0.0565  1.6860
 3220SOL    HW2 9981   2.534   0.406   2.112 -0.3493 -1.2318 -1.6277
 3221SOL     OW 9982   3.792   0.078   2.181  0.2402 -0.8251 -0.8932
 3221SOL    HW1 9983   3.742   0.081   2.267  1.2292  0.3814 -0.3328
 3221SOL    HW2 9984   3.750   0.142   2.116 -0.4623 -1.6827 -1.3118
 3222SOL     OW 9985   2.484   3.546   1.454 -0.4289  0.0486 -0.4715
 3222SOL    HW1 9986   2.453   3.595   1.373 -1.1056  1.1437  0.4159
 3222SOL    HW2 9987   2.419   3.560   1.529  0.3028 -0.7239  0.3452
 3223SOL     OW 9988   2.176   0.445   1.375  0.0558 -0.4802 -0.0117
 3223SOL    HW1 9989   2.152   0.490   1.461 -0.0601 -0.6069  0.0238
 3223SOL    HW2 9990   2.192   0.348   1.391 -1.2499 -0.7752 -0.3329
 3224SOL     OW 9991   3.203   3.493   0.151  0.4265  0.5227  0.3987
 3224SOL    HW1 9992   3.249   3.511   0.238 -0.4854  1.3300  0.7320
 3224SOL    HW2 9993   3.125   3.555   0.141 -0.7083 -0.9433 -0.0681
 3225SOL     OW 9994   3.497   4.481   5.351  0.1762  0.2033  0.5903
 3225SOL    HW1 9995   3.475   4.432   5.435 -0.0703 -1.4528 -0.3848
 3225SOL    HW2 9996   3.419   4.537   5.323 -0.8519 -1.4634 -0.0139
 3226SOL     OW 9997   3.419   0.966   1.194  0.1606 -0.3236 -0.1676
 3226SOL    HW1 9998   3.411   0.870   1.168  1.7579 -0.4053 -0.4622
 3226SOL    HW2 9999   3.393   0.977   1.290 -0.3844 -0.9721 -0.2302
 3227SOL     OW10000   3.442   5.034   2.958 -0.2030 -0.0008 -0.1306
 3227SOL    HW110001   3.386   5.102   3.006  0.2149 -0.7930  1.5359
 3227SOL    HW210002   3.382   4.966   2.916 -0.5616  0.2610 -0.0513
 3228SOL     OW10003   2.217   3.819   5.457 -0.1036  0.1732 -0.1114
 3228SOL    HW110004   2.292   3.848   5.517  1.0977 -1.7948 -0.5667
 3228SOL    HW210005   2.251   3.750   5.393 -2.4755 -1.2704  0.0708
 3229SOL     OW10006   2.266   0.084   0.648 -0.5354 -0.3959 -0.1780
 3229SOL    HW110007   2.188   0.093   0.586  0.7598 -1.0379 -2.0121
 3229SOL    HW210008   2.301   0.175   0.672 -0.9650 -0.1342 -0.5340
 3230SOL     OW10009   2.634   1.460   1.047 -0.4654  0.2170 -0.0804
 3230SOL    HW110010   2.649   1.365   1.071  0.6675  0.2702 -0.5359
 3230SOL    HW210011   2.721   1.504   1.028 -0.7895  1.7678  1.6540
 3231SOL     OW10012   2.285   0.531   1.142  0.0839  0.0801  0.3062
 3231SOL    HW110013   2.258   0.499   1.232 -0.8795  0.3116  0.1079
 3231SOL    HW210014   2.232   0.484   1.072 -1.8713  2.4883  0.0304
 3232SOL     OW10015   3.389   4.471   0.562  0.2579 -0.1423 -0.4520
 3232SOL    HW110016   3.438   4.510   0.640 -1.8496 -0.1488  0.9659
 3232SOL    HW210017   3.452   4.418   0.505  2.1694  1.1739  0.3504
 3233SOL     OW10018   2.747   4.356   1.287  0.1403  0.3454 -0.2816
 3233SOL    HW110019   2.762   4.346   1.386  0.1086  0.2129 -0.2905
 3233SOL    HW210020   2.651   4.378   1.270  0.3542  1.4282 -0.2076
 3234SOL     OW10021   2.742   1.263   0.610 -0.2621  0.1507 -0.2782
 3234SOL    HW110022   2.686   1.278   0.691 -0.1009 -1.2780  0.1120
 3234SOL    HW210023   2.836   1.242   0.637 -0.2437 -0.4984 -0.8207
 3235SOL     OW10024   2.805   4.678   3.342 -0.2213  0.3632  0.6194
 3235SOL    HW110025   2.814   4.587   3.299  0.2964  1.0272 -0.7407
 3235SOL    HW210026   2.859   4.744   3.290 -0.8435  1.5169  1.4122
 3236SOL     OW10027   3.184   4.792   4.900 -0.6346 -0.0691 -0.3262
 3236SOL    HW110028   3.242   4.794   4.819 -2.0481  0.3023 -1.3672
 3236SOL    HW210029   3.110   4.858   4.890 -1.6871 -1.0451  0.6093
 3237SOL     OW10030   3.119   4.680   0.179 -0.0405 -0.6216  0.0645
 3237SOL    HW110031   3.177   4.679   0.260 -0.7431 -0.4448  0.5856
 3237SOL    HW210032   3.041   4.741   0.196  0.5095  0.4819 -1.2499
 3238SOL     OW10033   2.152   5.434   0.319 -0.6059 -0.6010 -0.2610
 3238SOL    HW110034   2.146   5.339   0.351 -0.2038 -0.5681 -0.0806
 3238SOL    HW210035   2.246   5.454   0.294 -0.4122  0.1504  0.9614
 3239SOL     OW10036   3.130   0.194   5.365  0.2347 -0.0708  1.0526
 3239SOL    HW110037   3.221   0.189   5.407 -0.2786 -0.9293  2.1239
 3239SOL    HW210038   3.067   0.239   5.428  0.0234  1.0402  0.0821
 3240SOL     OW10039   2.348   4.913   1.301 -0.2906  0.0688  0.2534
 3240SOL    HW110040   2.254   4.926   1.269 -0.8686 -2.7060  0.5163
 3240SOL    HW210041   2.412   4.939   1.228 -1.3967 -0.8674 -1.1156
 3241SOL     OW10042   3.901   3.832   0.060  0.8132  0.0184 -0.1796
 3241SOL    HW110043   3.999   3.815   0.049  0.2172 -2.9211 -1.8718
 3241SOL    HW210044   3.850   3.748   0.045 -2.0421  1.4995  0.4353
 3242SOL     OW10045   3.738   0.039   0.286  0.5092 -0.4974 -0.3652
 3242SOL    HW110046   3.790  -0.039   0.319  1.8891 -0.3016 -1.9424
 3242SOL    HW210047   3.789   0.085   0.214 -1.2250  0.5985 -0.9637
 3243SOL     OW10048   3.953   4.056   0.257  0.7515  0.1481  0.0311
 3243SOL    HW110049   3.923   4.003   0.178 -0.0555  0.9468 -0.2256
 3243SOL    HW210050   3.885   4.047   0.330  0.0903  1.5432 -0.3581
 3244SOL     OW10051   1.279   4.132   5.348 -0.2990  0.4884  0.2781
 3244SOL    HW110052   1.184   4.102   5.358 -0.5704  1.1227 -0.3406
 3244SOL    HW210053   1.313   4.166   5.436 -0.4424 -0.2982  0.6463
 3245SOL     OW10054   1.039   4.723   1.234  0.2341 -0.0464  0.1479
 3245SOL    HW110055   0.976   4.651   1.205  1.5848 -2.2649  2.2691
 3245SOL    HW210056   1.041   4.728   1.334  2.9639  0.2742  0.1669
 3246SOL     OW10057   2.702   4.086   1.372  0.4785  0.2860  0.0537
 3246SOL    HW110058   2.696   4.107   1.469  2.2952 -0.7858  0.4481
 3246SOL    HW210059   2.738   4.165   1.323  1.9889  0.0021  0.6646
 3247SOL     OW10060   2.421   3.699   4.818  0.0429 -0.3216 -0.1471
 3247SOL    HW110061   2.453   3.769   4.882  1.1957 -0.8372 -0.1447
 3247SOL    HW210062   2.325   3.678   4.837 -0.6854  2.0217 -0.8319
 3248SOL     OW10063   3.136   4.763   0.622  0.2676  0.7242 -0.1679
 3248SOL    HW110064   3.215   4.789   0.677  0.5630  1.4161 -0.9071
 3248SOL    HW210065   3.091   4.684   0.664  2.1591 -0.5809 -0.5163
 3249SOL     OW10066   2.511   3.412   5.106  0.1104  0.2572 -0.0950
 3249SOL    HW110067   2.513   3.319   5.144 -1.3416 -0.2279 -1.1153
 3249SOL    HW210068   2.417   3.435   5.079  0.5943  1.7083 -0.6460
 3250SOL     OW10069   3.595   5.101   1.253 -0.2993 -0.1915 -0.3588
 3250SOL    HW110070   3.693   5.091   1.236  0.1659 -0.4599  2.2006
 3250SOL    HW210071   3.544   5.049   1.184  1.2217  1.4761 -2.8890
 3251SOL     OW10072   1.317   5.345   1.995 -0.0738 -0.3383  0.0436
 3251SOL    HW110073   1.357   5.319   2.082  1.1310 -1.1589 -0.7369
 3251SOL    HW210074   1.358   5.292   1.921 -2.4832 -1.1139 -0.8323
 3252SOL     OW10075   4.537   0.817   0.407  0.0043  0.2341 -0.2505
 3252SOL    HW110076   4.499   0.745   0.349 -0.1264  1.3064 -1.5366
 3252SOL    HW210077   4.554   0.898   0.352  1.5318  0.7153  0.8787
 3253SOL     OW10078   1.756   4.981   1.979  0.1183 -0.2402 -0.1052
 3253SOL    HW110079   1.738   5.015   1.887  1.1563 -0.5923 -0.4438
 3253SOL    HW210080   1.730   4.885   1.984  0.3676 -0.3067 -0.1174
 3254SOL     OW10081   3.155   4.993   1.715 -0.2600 -0.3889 -0.1277
 3254SOL    HW110082   3.202   5.065   1.767 -0.7344 -0.3499  0.2538
 3254SOL    HW210083   3.175   5.004   1.617 -1.8307  1.4437 -0.3127
 3255SOL     OW10084   3.178   0.069   2.535  0.2692  0.1872 -0.1245
 3255SOL    HW110085   3.198  -0.018   2.578  0.5637  1.0285  1.5041
 3255SOL    HW210086   3.260   0.127   2.536 -0.1475  0.8029 -0.4224
 3256SOL     OW10087   2.742   3.745   1.238  0.0296 -0.3307 -0.3810
 3256SOL    HW110088   2.834   3.782   1.246 -0.0101 -0.2568 -0.2631
 3256SOL    HW210089   2.677   3.808   1.280 -0.0528 -0.4709 -0.2978
 3257SOL     OW10090   2.410   5.498   0.273  0.0664 -0.2576  0.0088
 3257SOL    HW110091   2.418   5.597   0.279  0.2931 -0.2729 -0.0556
 3257SOL    HW210092   2.436   5.468   0.181 -0.9524 -0.2766 -0.2919
 3258SOL     OW10093   2.620   3.884   4.941  0.3663 -0.0883  0.4458
 3258SOL    HW110094   2.609   3.919   4.848 -0.3789 -0.8467  0.2334
 3258SOL    HW210095   2.717   3.869   4.960  0.5774  0.6664  0.0225
 3259SOL     OW10096   4.129   4.235   2.735  0.2908  0.3002  0.4361
 3259SOL    HW110097   4.204   4.291   2.771 -0.8934  0.5598  2.6993
 3259SOL    HW210098   4.049   4.292   2.718  0.1995 -0.1622 -0.7405
 3260SOL     OW10099   3.188   5.303   0.805  0.3105  0.0430  0.0049
 3260SOL    HW110100   3.141   5.378   0.759  1.0197 -0.0012 -0.8117
 3260SOL    HW210101   3.254   5.261   0.743  1.2801 -0.0404  1.0491
 3261SOL     OW10102   3.093   5.400   5.610 -0.4986  0.1645 -0.1699
 3261SOL    HW110103   3.045   5.451   5.539 -0.4279  0.6509  0.1243
 3261SOL    HW210104   3.050   5.310   5.622 -1.1155  0.4570 -0.1537
 3262SOL     OW10105   2.886   0.053   1.511 -0.4113  0.5100  0.0589
 3262SOL    HW110106   2.971   0.007   1.486  0.8970  2.7997 -0.0197
 3262SOL    HW210107   2.813  -0.014   1.520  0.9471 -1.3367 -1.7443
 3263SOL     OW10108   2.326   4.788   0.469 -0.5348  0.0470  0.0303
 3263SOL    HW110109   2.298   4.884   0.474 -0.1165  0.1243  1.0065
 3263SOL    HW210110   2.380   4.765   0.549  0.2093 -0.7398 -0.6810
 3264SOL     OW10111   2.884   4.901   5.183 -0.1398  0.4498  0.3443
 3264SOL    HW110112   2.923   4.917   5.093 -0.2795  0.5946  0.3104
 3264SOL    HW210113   2.786   4.918   5.181 -0.1091  0.6525  0.5733
 3265SOL     OW10114   2.849   0.892   1.097  0.0880 -0.0611  0.6610
 3265SOL    HW110115   2.772   0.847   1.141  0.6376 -1.0479  0.6443
 3265SOL    HW210116   2.928   0.890   1.158  0.5587 -0.5289  0.0554
 3266SOL     OW10117   1.883   5.483   0.981 -0.0573  0.4902  0.2019
 3266SOL    HW110118   1.836   5.556   1.030 -0.2917  1.3211 -1.2022
 3266SOL    HW210119   1.846   5.476   0.888  1.3732 -0.0478 -0.3607
 3267SOL     OW10120   2.027   4.642   5.493  0.3114 -0.0426  0.7758
 3267SOL    HW110121   2.035   4.691   5.580  0.0186 -0.1197  0.8476
 3267SOL    HW210122   1.936   4.656   5.454  0.6164  0.4263  0.2160
 3268SOL     OW10123   1.713   5.417   0.779 -0.5715  0.0289  0.6230
 3268SOL    HW110124   1.665   5.353   0.839 -4.4755  2.2213  0.1844
 3268SOL    HW210125   1.752   5.367   0.701  0.1758 -2.2087  2.3409
 3269SOL     OW10126   3.328   3.923   1.258  0.2424  0.3365  0.9636
 3269SOL    HW110127   3.273   3.999   1.224  0.5681  0.4201  0.6110
 3269SOL    HW210128   3.318   3.845   1.196 -0.9572 -0.2927  1.9094
 3270SOL     OW10129   2.487   4.423   1.258  0.1379 -0.4358 -0.1250
 3270SOL    HW110130   2.439   4.510   1.272  1.5560  0.6234 -1.5810
 3270SOL    HW210131   2.492   4.403   1.160  4.7901  0.8366 -0.3687
 3271SOL     OW10132   3.144   4.409   0.647  0.3705  0.0403 -0.2687
 3271SOL    HW110133   3.118   4.326   0.599  1.6215  0.0123 -0.9658
 3271SOL    HW210134   3.225   4.449   0.603  0.5587  0.9310  0.8227
 3272SOL     OW10135   2.106   4.080   0.760 -0.3139  0.1823 -0.2894
 3272SOL    HW110136   2.053   4.036   0.833  0.1008  0.5232  0.2217
 3272SOL    HW210137   2.186   4.125   0.799  1.2574 -1.6730 -1.2061
 3273SOL     OW10138   2.507   3.979   5.167 -0.0634  0.1142  0.2669
 3273SOL    HW110139   2.579   4.031   5.214 -0.5158 -1.3680  2.7837
 3273SOL    HW210140   2.548   3.922   5.096  1.6462 -1.9707  2.7246
 3274SOL     OW10141   4.247   3.364   0.412 -0.1978 -0.5704 -0.0197
 3274SOL    HW110142   4.174   3.408   0.360 -0.2844 -1.3248 -0.5434
 3274SOL    HW210143   4.336   3.400   0.383 -0.2681 -0.7351 -0.4341
 3275SOL     OW10144   3.512   4.091   0.373  0.4215 -0.7147 -0.4481
 3275SOL    HW110145   3.600   4.048   0.393  0.0977 -0.5553  1.5112
 3275SOL    HW210146   3.446   4.066   0.444 -0.1070  2.0416  0.1356
 3276SOL     OW10147   2.368   5.317   0.481 -0.1165 -0.5124 -0.2716
 3276SOL    HW110148   2.372   5.389   0.411 -1.1919  0.0580  0.2348
 3276SOL    HW210149   2.359   5.358   0.571 -0.6358 -1.2726  0.0338
 3277SOL     OW10150   2.169   1.123   1.409 -0.0299  0.2048 -0.4574
 3277SOL    HW110151   2.244   1.160   1.464  0.5838  0.1898 -1.2638
 3277SOL    HW210152   2.156   1.026   1.431  0.4177  0.1187 -0.5490
 3278SOL     OW10153   3.222   0.322   0.147  0.0275 -0.0500 -0.1676
 3278SOL    HW110154   3.307   0.346   0.100  0.7171 -0.4839  0.8200
 3278SOL    HW210155   3.230   0.229   0.184  0.0759  0.7675  2.0210
 3279SOL     OW10156   2.559   3.085   4.059  0.4187 -0.1619  0.1951
 3279SOL    HW110157   2.521   2.992   4.058  2.0091 -0.8492 -1.2081
 3279SOL    HW210158   2.572   3.117   3.965  0.2669  1.3530  0.6591
 3280SOL     OW10159   4.537   5.506   0.741 -0.3898  0.4437 -0.1674
 3280SOL    HW110160   4.453   5.504   0.794  0.6367  0.7529  1.5626
 3280SOL    HW210161   4.547   5.595   0.696 -1.9218 -0.2843 -2.0619
 3281SOL     OW10162   2.817   4.506   5.077  0.2730  0.4515 -0.1416
 3281SOL    HW110163   2.758   4.426   5.078  0.0057  0.6250  2.2118
 3281SOL    HW210164   2.762   4.587   5.053 -0.5955  0.6397  2.1888
 3282SOL     OW10165   2.762   4.127   5.233  0.4997 -0.3091 -0.4151
 3282SOL    HW110166   2.838   4.137   5.169 -0.1466  0.9973 -1.0090
 3282SOL    HW210167   2.754   4.209   5.289 -0.2722 -0.5551 -0.1502
 3283SOL     OW10168   1.303   4.678   1.086  0.7149 -0.8001 -0.0291
 3283SOL    HW110169   1.242   4.722   1.152 -0.7352 -2.9492  0.1852
 3283SOL    HW210170   1.301   4.728   1.000 -0.4772 -0.1599  0.3428
 3284SOL     OW10171   0.427   4.138   3.219  0.5347 -0.5421 -0.5200
 3284SOL    HW110172   0.367   4.100   3.149 -0.6831 -0.2008  0.3024
 3284SOL    HW210173   0.451   4.068   3.286 -0.8074 -0.1755  0.3844
 3285SOL     OW10174   1.974   4.507   1.593 -0.0090 -0.1741  0.5516
 3285SOL    HW110175   1.910   4.528   1.519  1.0009 -3.0973 -1.3286
 3285SOL    HW210176   1.926   4.511   1.681 -1.2312  3.4477 -0.1258
 3286SOL     OW10177   3.058   4.403   3.233 -0.3704  0.2684 -0.0411
 3286SOL    HW110178   3.086   4.391   3.329 -1.3151  0.8399  0.3170
 3286SOL    HW210179   3.006   4.323   3.204 -2.2597  1.1562  0.7408
 3287SOL     OW10180   3.291  -0.030   3.164 -0.3815  0.6250 -0.6208
 3287SOL    HW110181   3.236   0.050   3.189  0.5668  0.6728  1.4980
 3287SOL    HW210182   3.373   0.000   3.116 -0.1239  0.9366 -0.0042
 3288SOL     OW10183   2.558   4.744   1.610 -0.0105  0.2181  0.2519
 3288SOL    HW110184   2.578   4.762   1.513 -0.2557  0.8728  0.3134
 3288SOL    HW210185   2.634   4.693   1.651 -0.1647 -0.5728 -0.4217
 3289SOL     OW10186   3.262   4.767   1.116 -0.2504 -0.1449  0.1403
 3289SOL    HW110187   3.235   4.692   1.176  1.0413 -0.6643  0.1157
 3289SOL    HW210188   3.342   4.739   1.062  0.8054  1.5439  0.7633
 3290SOL     OW10189   2.619   0.267   3.964  0.1619 -0.2271  0.0238
 3290SOL    HW110190   2.575   0.341   3.914  0.2542  0.9739  1.6312
 3290SOL    HW210191   2.586   0.179   3.930  0.5790  0.4860 -2.4101
 3291SOL     OW10192   2.007   4.704   2.345  0.2376  0.1914 -0.1542
 3291SOL    HW110193   1.972   4.795   2.326  0.3178  0.0261 -1.1479
 3291SOL    HW210194   2.076   4.680   2.276  1.0294 -0.1793  0.7446
 3292SOL     OW10195   1.568   2.889   2.168 -0.2504 -0.3919 -0.3724
 3292SOL    HW110196   1.552   2.837   2.083 -0.3493 -0.8173 -0.0969
 3292SOL    HW210197   1.666   2.894   2.186 -0.2739 -1.2472  0.0604
 3293SOL     OW10198   3.878   5.120   4.513  0.4216 -0.7373  0.6879
 3293SOL    HW110199   3.978   5.124   4.525  0.4417 -1.9467  1.0232
 3293SOL    HW210200   3.853   5.173   4.431  1.2822 -0.0785  0.8273
 3294SOL     OW10201   2.189   3.806   2.244 -0.9384  0.3406  0.0829
 3294SOL    HW110202   2.253   3.729   2.233 -2.4673 -0.9876  0.0699
 3294SOL    HW210203   2.209   3.876   2.176 -0.0533 -0.4474 -0.4908
 3295SOL     OW10204   3.352   0.546   3.826 -0.2668  0.2290  0.2473
 3295SOL    HW110205   3.355   0.485   3.747 -0.9750  0.9017 -0.3178
 3295SOL    HW210206   3.299   0.502   3.899 -0.4376  0.0038 -0.0092
 3296SOL     OW10207   1.209   3.719   2.020  0.2317  0.6857 -0.3243
 3296SOL    HW110208   1.267   3.720   2.101 -0.6768 -0.2291  0.3612
 3296SOL    HW210209   1.239   3.647   1.958 -1.7295 -1.7131  1.2852
 3297SOL     OW10210   2.873   4.931   2.006 -0.3031 -0.1963 -0.3422
 3297SOL    HW110211   2.905   5.008   1.952 -2.7784  0.7570 -0.6022
 3297SOL    HW210212   2.847   4.963   2.097  0.3656 -1.0980  0.1824
 3298SOL     OW10213   1.528   5.298   3.121 -0.4804  0.1143  0.5156
 3298SOL    HW110214   1.544   5.204   3.091  1.5496  0.2279  1.0507
 3298SOL    HW210215   1.610   5.353   3.101 -1.0951  1.4325  1.4662
 3299SOL     OW10216   3.512   4.378   2.922  0.7923  0.3845 -0.2360
 3299SOL    HW110217   3.534   4.296   2.974  0.3201  0.9479  0.9040
 3299SOL    HW210218   3.563   4.456   2.959  0.1966  0.8639 -0.4012
 3300SOL     OW10219   1.826   5.464   2.403 -0.4023  0.3115 -0.1597
 3300SOL    HW110220   1.848   5.467   2.500 -0.7722  0.9014 -0.0849
 3300SOL    HW210221   1.801   5.371   2.377  0.0800  0.0724  0.2236
 3301SOL     OW10222   1.203   4.786   4.432  0.5404  0.0575 -0.0184
 3301SOL    HW110223   1.264   4.799   4.354  0.7636 -0.0641  0.1366
 3301SOL    HW210224   1.190   4.873   4.479  0.7808  0.0375  0.0862
 3302SOL     OW10225   3.560   5.160   3.310  0.1935  0.3882  0.0648
 3302SOL    HW110226   3.635   5.219   3.338  0.2482 -0.3123  1.4767
 3302SOL    HW210227   3.595   5.090   3.246  0.4518  0.8867 -0.3462
 3303SOL     OW10228   1.416   3.753   2.909  0.5737  0.2928 -0.1730
 3303SOL    HW110229   1.316   3.758   2.904  0.5372 -0.9525 -1.2836
 3303SOL    HW210230   1.456   3.840   2.881 -0.1650 -0.1430 -2.8206
 3304SOL     OW10231   3.380   3.571   3.746  1.0576 -0.5868  0.2328
 3304SOL    HW110232   3.330   3.489   3.718  1.3819 -0.1975 -1.5832
 3304SOL    HW210233   3.341   3.606   3.832 -0.3578 -1.5292  0.0042
 3305SOL     OW10234   1.670   5.456   1.975  0.2142  0.3877  0.5503
 3305SOL    HW110235   1.636   5.368   2.008 -0.7500  0.3675 -0.4364
 3305SOL    HW210236   1.769   5.450   1.962  0.6747  0.3955  3.3285
 3306SOL     OW10237   4.474   4.858   3.348 -0.0155  0.6279  0.3722
 3306SOL    HW110238   4.456   4.943   3.298 -0.1136 -0.6999 -2.0288
 3306SOL    HW210239   4.390   4.804   3.353 -0.0953  0.8594  2.3820
 3307SOL     OW10240   2.777   0.751   1.889  0.9304 -0.0862  0.0604
 3307SOL    HW110241   2.685   0.777   1.918 -0.1533 -2.3780 -1.0470
 3307SOL    HW210242   2.815   0.685   1.954  1.1721 -0.2775 -0.2730
 3308SOL     OW10243   2.389   4.267   1.954 -0.0918  0.9248  0.0778
 3308SOL    HW110244   2.354   4.358   1.930  2.8559  1.8767 -1.0526
 3308SOL    HW210245   2.452   4.274   2.031  1.4853  0.1504 -1.0963
 3309SOL     OW10246   3.631   4.834   2.874  0.2389  0.2245 -0.2243
 3309SOL    HW110247   3.656   4.835   2.777 -1.7325 -0.1367 -0.7696
 3309SOL    HW210248   3.557   4.900   2.890  2.4455  2.4619  1.6316
 3310SOL     OW10249   1.501   4.414   3.285 -0.2808  0.0528 -0.0939
 3310SOL    HW110250   1.440   4.486   3.252  0.3491 -0.0014 -1.4538
 3310SOL    HW210251   1.533   4.360   3.207  0.3659 -0.8212  0.7563
 3311SOL     OW10252   2.667   5.063   1.750 -0.2841  0.0310  0.0251
 3311SOL    HW110253   2.706   5.155   1.739 -0.0515 -0.1252 -0.4628
 3311SOL    HW210254   2.707   5.019   1.830  2.3053 -1.0075 -1.7093
 3312SOL     OW10255   4.223   4.719   3.333 -0.5391  0.7722 -0.1838
 3312SOL    HW110256   4.189   4.803   3.289  0.6122  2.3300  1.7406
 3312SOL    HW210257   4.154   4.648   3.324 -3.1776  2.9661  1.1275
 3313SOL     OW10258   0.933   3.394   2.643 -0.0483 -0.2289  0.3108
 3313SOL    HW110259   0.923   3.466   2.712  0.4935 -0.2130  0.3761
 3313SOL    HW210260   0.926   3.304   2.686  1.3206 -0.2310  0.5632
 3314SOL     OW10261   2.964   5.090   3.113 -0.4589  0.0655 -0.0804
 3314SOL    HW110262   2.895   5.125   3.050  0.0275 -0.8397 -1.1496
 3314SOL    HW210263   3.008   5.167   3.160 -2.2731  0.6440  0.7512
 3315SOL     OW10264   2.759   5.420   1.104 -0.0638 -0.4963  0.7890
 3315SOL    HW110265   2.750   5.520   1.098  2.0184 -0.2920  0.5815
 3315SOL    HW210266   2.684   5.384   1.160 -1.5893  1.0162 -0.1543
 3316SOL     OW10267   2.836   5.165   4.036 -0.8121 -0.2661  0.0430
 3316SOL    HW110268   2.885   5.196   4.118 -0.6704  0.3776 -0.2823
 3316SOL    HW210269   2.893   5.101   3.985 -0.2013  0.6496 -0.4507
 3317SOL     OW10270   2.268   4.288   3.578 -0.1075 -0.3182 -0.0311
 3317SOL    HW110271   2.190   4.324   3.527 -0.7880 -1.6256  0.0305
 3317SOL    HW210272   2.292   4.350   3.653 -0.7755  0.3276 -0.3467
 3318SOL     OW10273   4.461   5.111   3.219 -0.1873 -0.6860  0.2837
 3318SOL    HW110274   4.467   5.142   3.125 -0.8776 -0.1696  0.4093
 3318SOL    HW210275   4.471   5.188   3.281  2.4330 -1.2669  0.7198
 3319SOL     OW10276   2.915   0.604   2.086  0.0776  0.1890 -0.2152
 3319SOL    HW110277   2.992   0.653   2.126 -0.2121 -0.0707  0.6696
 3319SOL    HW210278   2.874   0.544   2.154 -1.0230  0.4603 -0.6177
 3320SOL     OW10279   1.585   4.728   2.018  0.0066  0.0679 -0.2297
 3320SOL    HW110280   1.499   4.777   2.035 -0.0532  0.3451 -1.2718
 3320SOL    HW210281   1.572   4.664   1.942  0.1452 -1.4248  0.9586
 3321SOL     OW10282   3.305   4.806   2.849  0.3829  0.4121 -0.6359
 3321SOL    HW110283   3.320   4.782   2.753  1.3498  1.0992 -0.6692
 3321SOL    HW210284   3.312   4.724   2.906 -0.4601 -0.0451 -1.1641
 3322SOL     OW10285   1.974   0.799   3.368  0.1095 -0.2893 -0.6143
 3322SOL    HW110286   1.993   0.852   3.451 -0.6622  0.7063 -1.0553
 3322SOL    HW210287   2.052   0.804   3.306  1.0333 -1.7231  0.3750
 3323SOL     OW10288   1.029   4.717   3.762  0.7053  0.3350  0.0154
 3323SOL    HW110289   1.037   4.630   3.714  1.9700  0.3798  0.1025
 3323SOL    HW210290   0.936   4.728   3.798  0.5294 -0.9593 -0.0232
 3324SOL     OW10291   2.751   3.747   2.641  0.1085  0.3569  0.2043
 3324SOL    HW110292   2.651   3.747   2.628 -0.0283  0.8207  1.2066
 3324SOL    HW210293   2.796   3.740   2.552 -0.8202 -0.3216 -0.2306
 3325SOL     OW10294   2.983   0.311   2.760  0.6724 -0.0622 -0.5240
 3325SOL    HW110295   2.972   0.222   2.806  0.9432  0.0622 -0.2107
 3325SOL    HW210296   3.081   0.328   2.745  0.5572 -0.3337 -1.6190
 3326SOL     OW10297   2.219   3.679   2.943 -0.2493 -0.2352 -0.1508
 3326SOL    HW110298   2.120   3.673   2.943 -0.5585  2.5938  2.1144
 3326SOL    HW210299   2.258   3.587   2.946 -2.7424 -1.4051 -0.7867
 3327SOL     OW10300   1.134   5.088   1.803  0.7750  0.2737 -0.1826
 3327SOL    HW110301   1.057   5.152   1.804  1.1093  0.7780  2.8574
 3327SOL    HW210302   1.197   5.114   1.729 -0.2302  2.0094 -0.4933
 3328SOL     OW10303   1.787   4.362   2.936 -0.7569 -0.1163  0.3453
 3328SOL    HW110304   1.872   4.324   2.974 -0.1495  0.4719 -0.3867
 3328SOL    HW210305   1.802   4.458   2.911 -0.8959 -0.6386 -1.9896
 3329SOL     OW10306   2.520   5.327   2.334 -0.2041 -0.1373  0.0745
 3329SOL    HW110307   2.472   5.298   2.251  0.0213  0.2018 -0.1758
 3329SOL    HW210308   2.614   5.293   2.332 -0.5232 -1.0861  0.7234
 3330SOL     OW10309   4.440   4.419   3.663  0.5491 -0.2301  1.0460
 3330SOL    HW110310   4.365   4.353   3.670 -0.5055  0.9933  1.5328
 3330SOL    HW210311   4.444   4.475   3.746  1.7378  0.0214  0.8455
 3331SOL     OW10312   2.636   5.450   2.773  0.0261  0.3253 -0.4126
 3331SOL    HW110313   2.724   5.412   2.745 -0.5255  0.4600 -2.5710
 3331SOL    HW210314   2.606   5.517   2.705 -0.6962  1.9956  1.4633
 3332SOL     OW10315   1.022   2.488   2.590 -0.2295  0.3504 -0.3858
 3332SOL    HW110316   0.957   2.474   2.516 -2.3938 -0.2229  1.5117
 3332SOL    HW210317   1.113   2.502   2.552 -0.6180 -3.0174 -3.0911
 3333SOL     OW10318   2.938   4.148   2.107  0.5563  0.8319  0.3062
 3333SOL    HW110319   2.949   4.092   2.024  2.6941 -0.7338  1.5516
 3333SOL    HW210320   2.849   4.128   2.149 -0.9847  2.3123 -1.9777
 3334SOL     OW10321   2.367   0.509   4.198 -0.2654  0.2386  0.1469
 3334SOL    HW110322   2.467   0.508   4.189 -0.3074 -1.9417 -0.4123
 3334SOL    HW210323   2.342   0.484   4.292 -0.3136 -0.1781  0.0216
 3335SOL     OW10324   3.510   4.878   1.919  0.1414  0.3794 -0.4670
 3335SOL    HW110325   3.558   4.966   1.927  1.2895 -0.2443 -0.3600
 3335SOL    HW210326   3.516   4.846   1.825 -2.3886  1.5589 -1.1116
 3336SOL     OW10327   4.007   0.345   3.367  0.2578 -0.5579  0.5542
 3336SOL    HW110328   4.042   0.427   3.414  0.9111 -0.7987  0.5048
 3336SOL    HW210329   3.956   0.289   3.432  0.9216 -0.7508  0.9172
 3337SOL     OW10330   2.471   0.166   3.080 -0.0289  0.1779 -0.2664
 3337SOL    HW110331   2.459   0.264   3.094  1.3777  0.0364  2.7246
 3337SOL    HW210332   2.429   0.116   3.156  1.3910 -1.3565 -0.4235
 3338SOL     OW10333   2.114   4.943   4.320  0.1764  0.5499 -0.2175
 3338SOL    HW110334   2.040   4.904   4.376 -1.1629  2.0000 -0.9003
 3338SOL    HW210335   2.202   4.910   4.354 -0.7819 -1.9320  0.1139
 3339SOL     OW10336   3.718   1.157   1.983 -0.4550 -0.0829 -0.0580
 3339SOL    HW110337   3.633   1.183   2.029 -1.1771 -1.6483 -0.4401
 3339SOL    HW210338   3.796   1.189   2.036 -1.2820  0.3388  0.9355
 3340SOL     OW10339   2.024   3.069   3.607 -0.1777 -0.5138 -0.3075
 3340SOL    HW110340   2.050   3.099   3.515 -0.3792 -2.2558 -0.9823
 3340SOL    HW210341   1.941   3.013   3.601  0.0199 -0.9612  0.8933
 3341SOL     OW10342   2.187   4.564   2.204  0.1851 -0.2981 -0.0964
 3341SOL    HW110343   2.255   4.568   2.131 -0.8666 -0.1239 -1.0796
 3341SOL    HW210344   2.234   4.550   2.292  1.4720 -0.3214 -0.7645
 3342SOL     OW10345   3.310   4.993   3.290  0.2258 -0.2240  0.0779
 3342SOL    HW110346   3.246   5.011   3.364 -0.0293 -1.4265  0.1735
 3342SOL    HW210347   3.389   5.054   3.298  0.3454 -0.5369  1.5316
 3343SOL     OW10348   2.775   4.658   2.751 -0.0464  0.0625  0.2297
 3343SOL    HW110349   2.725   4.639   2.836 -1.0167 -0.1896 -0.3769
 3343SOL    HW210350   2.857   4.601   2.747 -1.1462 -1.6121  0.0112
 3344SOL     OW10351   3.228   0.628   2.550  0.1552  0.1909  0.3501
 3344SOL    HW110352   3.229   0.719   2.509  0.4270  0.8050  1.6523
 3344SOL    HW210353   3.134   0.605   2.576 -0.1553 -0.5598 -1.3230
 3345SOL     OW10354   1.627   5.295   2.613  0.2435 -0.8898 -0.5641
 3345SOL    HW110355   1.562   5.233   2.658 -2.5509  1.4173 -1.1031
 3345SOL    HW210356   1.682   5.244   2.547 -1.4411 -2.9084 -0.4941
 3346SOL     OW10357   0.821   5.420   2.524 -0.1882  0.4590 -0.2799
 3346SOL    HW110358   0.912   5.392   2.492 -0.2708  0.3024 -0.3768
 3346SOL    HW210359   0.786   5.494   2.466 -0.8849 -0.6850 -1.3544
 3347SOL     OW10360   3.265   4.543   3.397 -0.5140  0.5492 -0.5168
 3347SOL    HW110361   3.351   4.493   3.408 -0.5625  0.1655 -1.8051
 3347SOL    HW210362   3.189   4.486   3.428 -0.3922  0.5560 -0.1998
 3348SOL     OW10363   2.098   4.888   1.990  0.4597 -0.1075  0.1504
 3348SOL    HW110364   2.140   4.927   2.072 -0.2429 -0.4582  0.6839
 3348SOL    HW210365   2.134   4.935   1.909  2.2000 -0.6813  0.5420
 3349SOL     OW10366   3.401   0.238   2.618  0.8786  0.2442 -0.0977
 3349SOL    HW110367   3.404   0.316   2.556 -2.7668 -0.6450 -1.5998
 3349SOL    HW210368   3.354   0.264   2.702 -0.7585 -0.3756 -0.7895
 3350SOL     OW10369   2.944   4.688   2.264 -0.0978  0.2302  0.5548
 3350SOL    HW110370   2.974   4.623   2.333  2.2140  1.7120  1.0388
 3350SOL    HW210371   2.850   4.665   2.235 -0.3584 -1.6346  2.6322
 3351SOL     OW10372   3.766   5.313   3.389 -0.1008  0.5832 -0.0237
 3351SOL    HW110373   3.726   5.335   3.478  0.2048 -1.1003  0.5575
 3351SOL    HW210374   3.825   5.389   3.360  0.0735  1.0086  1.3673
 3352SOL     OW10375   2.193   5.357   3.656 -0.2592  0.0451 -0.1117
 3352SOL    HW110376   2.216   5.427   3.589 -2.5461  2.0394  1.0367
 3352SOL    HW210377   2.093   5.349   3.663 -0.0727 -1.8549  1.3301
 3353SOL     OW10378   4.673   3.492   2.682 -0.0926  0.5290 -0.7902
 3353SOL    HW110379   4.676   3.559   2.756  0.2127  0.3369 -0.6270
 3353SOL    HW210380   4.585   3.445   2.683 -0.6102  1.4680 -1.3859
 3354SOL     OW10381   2.405   3.208   2.583 -0.0010 -0.1352  0.3007
 3354SOL    HW110382   2.334   3.145   2.555  0.1574 -0.0852 -0.2353
 3354SOL    HW210383   2.493   3.177   2.547 -0.0698  0.9318 -0.9001
 3355SOL     OW10384   3.284   3.934   3.041 -0.2601 -0.1971  0.7732
 3355SOL    HW110385   3.308   4.009   2.980 -0.8740  0.1477  0.9510
 3355SOL    HW210386   3.359   3.867   3.043  0.0872  0.1723  0.2500
 3356SOL     OW10387   1.383   4.503   2.321 -0.4215 -0.0385  0.4049
 3356SOL    HW110388   1.362   4.597   2.294 -0.8593 -0.3610 -0.4460
 3356SOL    HW210389   1.370   4.442   2.242  2.4946 -0.4647  0.1652
 3357SOL     OW10390   3.710   3.938   2.985  0.1140  0.2774 -0.1075
 3357SOL    HW110391   3.750   3.944   2.893 -1.0455 -1.1693 -0.7479
 3357SOL    HW210392   3.773   3.890   3.046  0.1035 -0.4320 -0.6485
 3358SOL     OW10393   2.732   0.338   2.860  0.0663  0.0502 -0.6654
 3358SOL    HW110394   2.829   0.330   2.837 -0.3094 -1.7488 -1.8974
 3358SOL    HW210395   2.681   0.269   2.809 -1.4852 -1.0568  2.1847
 3359SOL     OW10396   3.536   4.892   2.305  0.4374  0.4547 -0.1603
 3359SOL    HW110397   3.536   4.937   2.395  1.8283  0.6956 -0.2596
 3359SOL    HW210398   3.624   4.908   2.260  0.1070 -0.4686 -1.1670
 3360SOL     OW10399   1.746   5.535   3.532  0.1573 -0.3382 -0.0649
 3360SOL    HW110400   1.711   5.513   3.622  1.2905  0.8919  0.7176
 3360SOL    HW210401   1.675   5.581   3.479 -0.2729 -0.3657  0.4791
 3361SOL     OW10402   3.091   5.233   2.637 -0.3412 -0.1847 -0.3224
 3361SOL    HW110403   3.107   5.161   2.705  1.5943 -0.4038 -0.9283
 3361SOL    HW210404   3.114   5.198   2.546 -3.5024 -0.1087 -1.2790
 3362SOL     OW10405   1.779   3.767   1.560  0.0566  0.2185  0.5149
 3362SOL    HW110406   1.845   3.707   1.516 -1.3299 -0.7055 -0.3946
 3362SOL    HW210407   1.715   3.712   1.614 -1.0716  0.8788 -0.1042
 3363SOL     OW10408   2.714   4.945   3.589 -0.0707 -0.2381  0.1713
 3363SOL    HW110409   2.663   4.870   3.547 -2.1311  1.0911  0.1332
 3363SOL    HW210410   2.784   4.977   3.527 -1.8541  0.4928 -1.5692
 3364SOL     OW10411   2.406   5.295   3.496  0.5894  0.0174  0.7263
 3364SOL    HW110412   2.331   5.322   3.556  0.9964  0.5859  0.9857
 3364SOL    HW210413   2.434   5.373   3.440  0.2639 -0.4915 -0.1496
 3365SOL     OW10414   3.240   4.303   2.591  0.0240 -0.5096  0.0762
 3365SOL    HW110415   3.157   4.246   2.592 -0.5816  0.3490  1.1469
 3365SOL    HW210416   3.221   4.390   2.636  1.8800 -0.8345  1.6404
 3366SOL     OW10417   2.359   4.553   1.953  0.0080  0.3003  0.0045
 3366SOL    HW110418   2.450   4.540   1.915 -0.3644  1.5157 -1.3921
 3366SOL    HW210419   2.321   4.640   1.921 -0.8326  0.8423  2.2433
 3367SOL     OW10420   3.503   5.458   4.004  0.7004 -0.1285  0.1586
 3367SOL    HW110421   3.510   5.451   4.104 -1.1257 -1.2364  0.2539
 3367SOL    HW210422   3.555   5.384   3.961 -0.4480 -1.1131  0.4065
 3368SOL     OW10423   2.953   3.934   2.692 -0.4555 -0.1565  0.2204
 3368SOL    HW110424   3.032   3.876   2.711 -0.8965 -0.7881  0.1585
 3368SOL    HW210425   2.877   3.877   2.660 -1.7308  0.1141  2.5814
 3369SOL     OW10426   2.487   4.884   2.271 -0.0821  0.1048  0.4115
 3369SOL    HW110427   2.485   4.793   2.313 -0.8630  0.7352  1.7906
 3369SOL    HW210428   2.446   4.951   2.333  2.0974  1.7501  0.2143
 3370SOL     OW10429   2.282   0.011   2.948  0.7603  0.7723  0.3999
 3370SOL    HW110430   2.322  -0.079   2.929 -1.0140  0.0822 -0.2342
 3370SOL    HW210431   2.351   0.069   2.991  2.3922 -0.3883 -0.5236
 3371SOL     OW10432   4.193   5.331   3.220  0.2761  0.6573  0.2347
 3371SOL    HW110433   4.206   5.234   3.201 -0.7094  0.5710 -0.0580
 3371SOL    HW210434   4.131   5.371   3.153  1.2622  1.6800 -0.1061
 3372SOL     OW10435   2.543   3.597   2.893 -0.0098 -0.2146 -0.3797
 3372SOL    HW110436   2.547   3.682   2.841  3.0849 -0.6269 -0.9922
 3372SOL    HW210437   2.497   3.526   2.839 -3.5022  1.1908  0.5193
 3373SOL     OW10438   2.150   5.266   2.192  0.1354 -0.1324  0.0544
 3373SOL    HW110439   2.246   5.257   2.165 -0.2114  1.4514 -1.8907
 3373SOL    HW210440   2.093   5.211   2.131 -0.3010 -0.1663  0.4895
 3374SOL     OW10441   5.210   5.016   2.815  0.1068 -0.0862  0.6856
 3374SOL    HW110442   5.175   5.035   2.907  1.2664  3.4527  0.5453
 3374SOL    HW210443   5.306   5.043   2.809  0.9989 -3.0762 -0.8484
 3375SOL     OW10444   1.725   4.948   3.529  0.6163  0.7984  0.1609
 3375SOL    HW110445   1.728   5.041   3.492 -0.2243  0.5593 -0.5475
 3375SOL    HW210446   1.813   4.926   3.571  1.6862  1.0789 -1.8064
 3376SOL     OW10447   3.242   5.369   3.436 -0.1971 -0.2007  0.1263
 3376SOL    HW110448   3.248   5.453   3.381  0.9482  0.9627  1.9187
 3376SOL    HW210449   3.281   5.386   3.526  0.4253 -2.8083  0.4159
 3377SOL     OW10450   1.968   5.011   3.055  0.3973 -0.2828  0.0375
 3377SOL    HW110451   1.994   5.076   3.126  1.2979  1.6493 -1.9375
 3377SOL    HW210452   1.930   5.061   2.977 -0.3846 -2.3012 -0.9427
 3378SOL     OW10453   3.892   4.882   2.926  0.6475 -0.9426 -0.1961
 3378SOL    HW110454   3.912   4.899   3.022  0.9271  0.8133 -0.5296
 3378SOL    HW210455   3.795   4.861   2.915 -0.1385  2.1141  0.1490
 3379SOL     OW10456   3.337   3.926   3.388 -0.0673 -0.2860 -0.2221
 3379SOL    HW110457   3.396   3.990   3.339  1.2536 -0.7519  0.6895
 3379SOL    HW210458   3.360   3.832   3.360 -0.6288 -0.4564 -0.1210
 3380SOL     OW10459   2.638   4.510   2.959 -0.2557  0.2340 -0.6325
 3380SOL    HW110460   2.574   4.462   3.019 -2.1741  2.6138 -0.5965
 3380SOL    HW210461   2.676   4.446   2.892  1.4742 -2.4001  2.5646
 3381SOL     OW10462   1.482   4.527   1.508 -0.6123 -0.8497  0.6004
 3381SOL    HW110463   1.488   4.428   1.520  0.3416 -0.9608 -0.6145
 3381SOL    HW210464   1.486   4.549   1.410  2.4034  0.5417  0.9279
 3382SOL     OW10465   3.884   4.450   2.902  0.1507 -0.4058  0.2982
 3382SOL    HW110466   3.851   4.409   2.818 -0.9968  0.3483  0.3636
 3382SOL    HW210467   3.871   4.386   2.978 -1.9181  0.1376  0.4542
 3383SOL     OW10468   4.121   3.785   2.605 -0.4501  0.1161  0.4632
 3383SOL    HW110469   4.127   3.838   2.689  0.5350  0.8586 -0.0438
 3383SOL    HW210470   4.205   3.730   2.594 -0.9697 -0.6827  0.4174
 3384SOL     OW10471   1.703   5.408   4.178  0.1281 -0.4895 -0.6569
 3384SOL    HW110472   1.637   5.333   4.174 -0.4481  0.0616 -2.3509
 3384SOL    HW210473   1.655   5.494   4.195  0.8570 -0.5139  2.0794
 3385SOL     OW10474   0.064   0.087   2.833 -0.0282  0.2799 -0.2810
 3385SOL    HW110475   0.024   0.066   2.743 -2.4712  1.5000  0.4243
 3385SOL    HW210476   0.158   0.053   2.836  0.6179  1.3138 -3.7432
 3386SOL     OW10477   1.402   3.429   1.619  0.1195  0.5916  0.5477
 3386SOL    HW110478   1.361   3.452   1.708 -4.0987  0.5417 -1.1464
 3386SOL    HW210479   1.371   3.338   1.591  0.2587  1.1286 -1.4885
 3387SOL     OW10480   2.781   4.300   2.517  0.1836  0.0742  0.2431
 3387SOL    HW110481   2.694   4.252   2.503  0.8109 -0.9972 -0.0790
 3387SOL    HW210482   2.765   4.399   2.514 -1.1517 -0.0816  0.9821
 3388SOL     OW10483   1.931   3.736   2.932  0.2220  0.1169 -0.3069
 3388SOL    HW110484   1.835   3.754   2.909  0.2906  0.2735 -0.4652
 3388SOL    HW210485   1.983   3.821   2.927  0.8224 -0.3206 -2.3712
 3389SOL     OW10486   3.412   4.124   2.294  0.2174 -0.6793 -0.2512
 3389SOL    HW110487   3.371   4.045   2.338  1.0948 -1.6333 -1.0928
 3389SOL    HW210488   3.421   4.107   2.195  0.9461  0.2252 -0.3592
 3390SOL     OW10489   0.346   5.599   2.569 -0.2146  0.7029 -0.5588
 3390SOL    HW110490   0.391   5.644   2.646 -2.1920  1.6574  0.0863
 3390SOL    HW210491   0.297   5.518   2.601 -0.4764  0.7146 -0.9264
 3391SOL     OW10492   2.699   4.812   4.396 -0.5587 -0.0853 -0.1221
 3391SOL    HW110493   2.776   4.790   4.456 -2.1382 -0.9132  1.7041
 3391SOL    HW210494   2.665   4.728   4.353 -0.0204  0.3747 -1.4783
 3392SOL     OW10495   4.577   4.079   3.733  0.4400  0.2229 -0.2079
 3392SOL    HW110496   4.635   4.032   3.799  0.8209  0.7647 -0.1549
 3392SOL    HW210497   4.603   4.175   3.727 -0.4059  0.4630 -0.2274
 3393SOL     OW10498   3.914   4.383   3.878 -0.1147  0.0754 -0.5540
 3393SOL    HW110499   3.884   4.396   3.973 -0.1991 -2.2634 -0.2153
 3393SOL    HW210500   3.917   4.472   3.833  0.9773  1.4233  1.9292
 3394SOL     OW10501   1.395   2.982   3.195  0.5507  0.5221 -0.1445
 3394SOL    HW110502   1.485   2.952   3.226 -0.0924 -0.5696  0.7285
 3394SOL    HW210503   1.354   3.041   3.265  0.0418 -0.0859  0.0808
 3395SOL     OW10504   1.291   4.169   2.770  0.0373  0.0658 -0.5921
 3395SOL    HW110505   1.325   4.257   2.737  1.1931 -0.3815 -0.6505
 3395SOL    HW210506   1.237   4.125   2.698 -0.4876  0.6940 -0.5858
 3396SOL     OW10507   3.517   3.686   3.534  0.4855 -0.3083  0.3028
 3396SOL    HW110508   3.467   3.671   3.449  0.1905  0.7326  0.2822
 3396SOL    HW210509   3.459   3.659   3.612  0.0548  0.4431  0.2549
 3397SOL     OW10510   1.837   4.510   1.843 -0.0937  0.1666  0.0977
 3397SOL    HW110511   1.834   4.410   1.850 -1.0481  0.0125 -1.7995
 3397SOL    HW210512   1.904   4.546   1.907  0.3413 -1.6993  0.7535
 3398SOL     OW10513   2.064   3.544   2.335  0.6578 -0.1947 -0.4620
 3398SOL    HW110514   2.140   3.482   2.353  0.2069 -0.5891  0.1380
 3398SOL    HW210515   2.096   3.639   2.341  0.7155 -0.3067  1.7730
 3399SOL     OW10516   1.661   4.949   4.083  0.4183  0.3552  0.1119
 3399SOL    HW110517   1.606   4.978   4.004  0.1172  0.2269  0.2741
 3399SOL    HW210518   1.755   4.934   4.053  0.2090 -0.1374 -0.3240
 3400SOL     OW10519   2.281   3.384   2.387  0.1230 -0.1015 -0.9748
 3400SOL    HW110520   2.333   3.467   2.367  0.1503  0.0204 -0.4248
 3400SOL    HW210521   2.282   3.367   2.486  2.3219 -2.1926 -1.2530
 3401SOL     OW10522   3.809   3.549   3.588  0.6921 -0.0784  0.4885
 3401SOL    HW110523   3.846   3.564   3.680  0.1654  0.3053  0.6505
 3401SOL    HW210524   3.790   3.638   3.545  1.2094 -0.2510 -0.1116
 3402SOL     OW10525   1.400   4.106   2.425  0.1529 -0.4316 -0.7263
 3402SOL    HW110526   1.467   4.168   2.465 -0.3125  0.6013 -1.5033
 3402SOL    HW210527   1.408   4.016   2.468  2.0579 -0.3600 -0.8353
 3403SOL     OW10528   4.442   2.978   1.840  0.6785 -0.6486 -0.2258
 3403SOL    HW110529   4.464   3.071   1.810 -0.3004  0.0982  1.2783
 3403SOL    HW210530   4.381   2.982   1.919  2.1529 -2.5535  1.0808
 3404SOL     OW10531   0.817   3.626   1.668 -0.3300 -0.6022 -0.4602
 3404SOL    HW110532   0.764   3.619   1.752 -0.7994  1.4184 -0.5433
 3404SOL    HW210533   0.756   3.619   1.589 -0.0273 -1.4638 -0.6252
 3405SOL     OW10534   2.686   5.223   5.144  0.3442  0.0868  0.0580
 3405SOL    HW110535   2.693   5.303   5.085  1.1347 -0.2150 -0.2767
 3405SOL    HW210536   2.718   5.247   5.236  1.0129  0.0511 -0.1567
 3406SOL     OW10537   3.581   4.519   4.208  0.1314 -0.1007  0.1227
 3406SOL    HW110538   3.530   4.545   4.126  0.7181 -1.9396 -0.8835
 3406SOL    HW210539   3.571   4.591   4.278  0.8154  2.2446 -2.0350
 3407SOL     OW10540   2.600   3.252   3.825 -0.5713  0.6313 -0.1016
 3407SOL    HW110541   2.564   3.207   3.743 -0.7076 -0.8681  0.7417
 3407SOL    HW210542   2.544   3.333   3.846 -1.0003  0.5922 -1.0448
 3408SOL     OW10543   2.805   4.670   1.685  0.7259 -0.2277 -0.1699
 3408SOL    HW110544   2.824   4.758   1.642 -0.5042  0.5542  0.8081
 3408SOL    HW210545   2.862   4.658   1.766  1.1545 -0.5039 -0.5094
 3409SOL     OW10546   2.812   5.089   2.564  0.0822  0.2868  0.3530
 3409SOL    HW110547   2.817   4.998   2.522  2.4667  0.1204  0.8961
 3409SOL    HW210548   2.785   5.156   2.494 -1.2271 -0.7302 -0.1615
 3410SOL     OW10549   3.657   4.610   3.049 -0.2453 -0.3454 -0.2154
 3410SOL    HW110550   3.729   4.622   3.118  0.4819 -2.7613 -0.4706
 3410SOL    HW210551   3.675   4.672   2.972  1.4495 -0.7299 -0.1728
 3411SOL     OW10552   2.509   4.843   3.287  0.3647  0.1135  0.1009
 3411SOL    HW110553   2.496   4.939   3.313  0.0229  0.1538 -0.2186
 3411SOL    HW210554   2.534   4.790   3.368 -0.1506  0.3399  0.4131
 3412SOL     OW10555   0.900   4.529   2.089 -0.5514  0.2137  0.1421
 3412SOL    HW110556   0.865   4.621   2.104 -0.3046  0.7344 -2.0770
 3412SOL    HW210557   0.898   4.477   2.175  1.1445  2.8864  1.9540
 3413SOL     OW10558   2.771   4.285   2.831  0.2033 -0.5312 -0.2128
 3413SOL    HW110559   2.700   4.223   2.798 -0.2171  0.1827 -0.6810
 3413SOL    HW210560   2.832   4.236   2.893 -0.6716 -1.1689  0.1619
 3414SOL     OW10561   3.083   3.299   3.315 -0.0515  0.0853 -0.3408
 3414SOL    HW110562   3.005   3.249   3.278  1.5267 -1.1084 -2.2651
 3414SOL    HW210563   3.091   3.388   3.269  0.2421 -0.1814 -0.8105
 3415SOL     OW10564   1.316   0.423   2.444  0.1655  0.0927  0.2006
 3415SOL    HW110565   1.321   0.328   2.413  0.2588 -0.1747  1.0302
 3415SOL    HW210566   1.304   0.483   2.364 -0.2842 -0.6361 -0.2931
 3416SOL     OW10567   0.706   0.036   2.377 -0.4398  0.4774 -0.8179
 3416SOL    HW110568   0.642   0.110   2.398 -2.3531 -0.8016 -1.8044
 3416SOL    HW210569   0.797   0.074   2.358 -0.9569  2.3928  0.2748
 3417SOL     OW10570   1.398   0.071   2.527  0.3274 -0.1644  0.3623
 3417SOL    HW110571   1.299   0.076   2.543  0.0034 -1.8263 -0.8315
 3417SOL    HW210572   1.420   0.112   2.439  0.7882  0.6122  0.8260
 3418SOL     OW10573   2.988   4.473   2.717  0.2472 -0.1088 -0.0350
 3418SOL    HW110574   3.034   4.467   2.805 -0.5455  1.5298  0.5459
 3418SOL    HW210575   2.924   4.397   2.708  0.2389 -0.2249  0.8690
 3419SOL     OW10576   2.196   4.905   2.910 -0.2081 -0.1502  0.1912
 3419SOL    HW110577   2.193   4.875   3.005 -0.9835  1.2162  0.6311
 3419SOL    HW210578   2.119   4.967   2.892  0.5511  0.4978 -1.0102
 3420SOL     OW10579   1.934   4.109   3.595  0.0617 -0.1320 -0.4329
 3420SOL    HW110580   1.900   4.173   3.526 -0.2872 -0.5341 -0.6374
 3420SOL    HW210581   2.006   4.052   3.554  0.9792  0.6874 -0.0152
 3421SOL     OW10582   3.756   4.146   3.836  0.4170 -0.2529  0.5569
 3421SOL    HW110583   3.786   4.241   3.833  2.6746 -0.8909  1.0984
 3421SOL    HW210584   3.834   4.086   3.818 -1.2286 -2.0014 -1.1229
 3422SOL     OW10585   2.358   4.556   1.642  0.0683  0.0688 -0.6626
 3422SOL    HW110586   2.292   4.627   1.664 -1.4410 -0.7191 -2.3258
 3422SOL    HW210587   2.446   4.598   1.619 -0.1947  1.2285  0.3395
 3423SOL     OW10588   2.699   3.541   4.355 -0.0187 -0.6027 -0.5261
 3423SOL    HW110589   2.697   3.558   4.257 -1.3315 -1.3804 -0.6599
 3423SOL    HW210590   2.631   3.599   4.400  2.1063  1.4199  0.2576
 3424SOL     OW10591   0.935   5.115   4.480 -0.1012  0.0155  0.1836
 3424SOL    HW110592   0.885   5.201   4.492 -0.7106 -0.4778  1.3598
 3424SOL    HW210593   0.870   5.039   4.478  0.4490 -0.4441 -0.6686
 3425SOL     OW10594   2.926   3.802   3.935  0.3729  0.0332  0.4796
 3425SOL    HW110595   2.883   3.850   3.858 -0.3027 -0.9928  0.2075
 3425SOL    HW210596   3.026   3.803   3.922  0.2433 -0.6499 -0.7475
 3426SOL     OW10597   2.665   4.761   3.077 -0.4784 -0.1172  0.0677
 3426SOL    HW110598   2.605   4.779   3.154  0.3958  1.5917  0.3839
 3426SOL    HW210599   2.663   4.663   3.056 -0.9640 -0.5731  2.0468
 3427SOL     OW10600   2.327   4.207   2.910 -0.0160  0.2628  0.0999
 3427SOL    HW110601   2.317   4.169   3.002 -0.8228  1.0538  0.3616
 3427SOL    HW210602   2.239   4.204   2.864  0.4895 -0.5667 -0.8384
 3428SOL     OW10603   2.070   0.277   4.344  0.4963 -0.2449  0.4602
 3428SOL    HW110604   2.165   0.248   4.327 -0.2764 -1.5542 -2.1958
 3428SOL    HW210605   2.017   0.200   4.378  0.1215  0.1459  0.7603
 3429SOL     OW10606   2.744   4.392   3.274  0.0342 -0.1168  0.1380
 3429SOL    HW110607   2.803   4.332   3.219  0.4719  2.5562 -2.5096
 3429SOL    HW210608   2.655   4.401   3.230 -0.4814  0.1807  1.2098
 3430SOL     OW10609   2.320   5.365   2.546  0.1262  0.8796  0.3916
 3430SOL    HW110610   2.406   5.387   2.499  2.1528 -0.6833  3.0998
 3430SOL    HW210611   2.292   5.443   2.602  1.3602  0.4865  1.6172
 3431SOL     OW10612   3.866   4.612   3.697 -0.1132 -0.5706 -0.4604
 3431SOL    HW110613   3.868   4.696   3.643  1.3136 -1.2075 -1.4599
 3431SOL    HW210614   3.807   4.544   3.651  0.7146 -0.9472 -0.9842
 3432SOL     OW10615   3.145   4.633   3.111  0.7338  0.2075 -0.3950
 3432SOL    HW110616   3.131   4.541   3.150  1.9528 -0.0555 -0.5493
 3432SOL    HW210617   3.057   4.680   3.105 -0.1791 -1.5644 -1.8470
 3433SOL     OW10618   1.338   0.779   2.919 -0.5166 -0.2160  0.1589
 3433SOL    HW110619   1.350   0.871   2.958  0.9486 -0.0766 -0.5717
 3433SOL    HW210620   1.415   0.757   2.860 -1.2290 -1.6293 -0.2954
 3434SOL     OW10621   3.132   5.124   3.485  0.3242 -0.5025 -0.2695
 3434SOL    HW110622   3.149   5.094   3.579 -0.8495  1.6426  0.6889
 3434SOL    HW210623   3.165   5.218   3.473  0.0569 -0.5803 -1.8828
 3435SOL     OW10624   3.684   4.183   2.388 -0.5840 -0.1246 -0.4459
 3435SOL    HW110625   3.681   4.150   2.482 -0.2245  1.8632  0.2953
 3435SOL    HW210626   3.591   4.186   2.351 -0.7974 -0.2567  0.0743
 3436SOL     OW10627   2.218   4.999   2.215  0.0272  0.0185  0.1280
 3436SOL    HW110628   2.302   4.961   2.253  0.3532  0.3150 -0.2898
 3436SOL    HW210629   2.187   5.075   2.272 -0.4019 -0.5999  0.7340
 3437SOL     OW10630   2.044   5.201   3.260  0.0906  0.2684  0.2920
 3437SOL    HW110631   2.109   5.265   3.219 -0.9257  0.5344 -0.9984
 3437SOL    HW210632   1.964   5.251   3.292 -0.2202 -0.2293  0.3047
 3438SOL     OW10633   3.381   4.457   2.110  0.7022 -0.5487  1.0812
 3438SOL    HW110634   3.284   4.449   2.090  0.4983  0.6604  1.4787
 3438SOL    HW210635   3.398   4.431   2.205  0.7165 -0.5073  1.0902
 3439SOL     OW10636   3.061   5.305   4.384  0.1907 -0.2089  0.4055
 3439SOL    HW110637   2.972   5.349   4.372 -0.1969  0.9101  5.4153
 3439SOL    HW210638   3.051   5.206   4.373 -0.6534  0.1113 -2.9366
 3440SOL     OW10639   3.291   0.346   2.866 -0.1237  0.2980 -0.9335
 3440SOL    HW110640   3.285   0.279   2.940  1.8762  0.2003 -0.8059
 3440SOL    HW210641   3.301   0.438   2.904  3.0327  0.0556 -0.9529
 3441SOL     OW10642   2.009   0.055   3.755 -0.7766 -0.3063  0.4426
 3441SOL    HW110643   1.950   0.021   3.827  0.2567 -1.7117  0.6585
 3441SOL    HW210644   2.002  -0.004   3.674  0.8445 -0.9545  0.7316
 3442SOL     OW10645   3.855   4.098   2.158 -0.2362  0.1629 -0.7943
 3442SOL    HW110646   3.785   4.126   2.092 -1.6281 -1.6474 -0.1806
 3442SOL    HW210647   3.815   4.091   2.249  1.5900  2.3485  0.2778
 3443SOL     OW10648   1.974   0.202   2.138  0.4471 -0.7626 -0.1591
 3443SOL    HW110649   1.973   0.109   2.175  2.0941 -0.2543  1.3536
 3443SOL    HW210650   2.049   0.254   2.181  0.1801  0.9830 -1.6652
 3444SOL     OW10651   1.387   3.854   2.541  0.6599  0.5252  0.1290
 3444SOL    HW110652   1.299   3.890   2.571  0.1883  0.9915 -1.6783
 3444SOL    HW210653   1.375   3.762   2.505  1.4013 -0.4625  2.2163
 3445SOL     OW10654   1.633   4.535   4.332  0.3126 -0.0612  0.3816
 3445SOL    HW110655   1.629   4.635   4.328  0.3658  0.0011  1.5355
 3445SOL    HW210656   1.548   4.497   4.296  0.4687  0.3815 -0.4752
 3446SOL     OW10657   1.990   4.192   2.060  0.4423 -0.1423  0.1851
 3446SOL    HW110658   1.921   4.262   2.040  2.0687  1.1033 -1.4060
 3446SOL    HW210659   1.966   4.108   2.011  0.9887  0.8931 -1.9895
 3447SOL     OW10660   3.717   4.816   2.632 -0.6197  0.0890  0.0196
 3447SOL    HW110661   3.746   4.888   2.569  0.6241 -1.1365 -0.8541
 3447SOL    HW210662   3.667   4.746   2.582  1.5187 -1.5677  0.0387
 3448SOL     OW10663   1.766   5.449   3.074  0.1397  0.0361  0.2026
 3448SOL    HW110664   1.794   5.416   2.984 -0.9529 -0.7770  0.1372
 3448SOL    HW210665   1.753   5.549   3.070  0.6560  0.0892 -0.3784
 3449SOL     OW10666   3.341   4.887   2.137  0.2212 -0.6693 -0.1967
 3449SOL    HW110667   3.409   4.883   2.210  0.5107  1.5295 -0.2933
 3449SOL    HW210668   3.387   4.890   2.048  0.0094  0.5006 -0.2781
 3450SOL     OW10669   2.829   3.967   3.736 -0.4702 -0.4926 -0.5439
 3450SOL    HW110670   2.823   4.013   3.648 -0.7007 -1.6605 -1.1631
 3450SOL    HW210671   2.799   4.029   3.809 -1.0956  0.2023 -1.3747
 3451SOL     OW10672   2.485   4.369   3.127 -0.0893  0.2673 -0.5216
 3451SOL    HW110673   2.476   4.274   3.100 -0.6976 -0.3580  1.6732
 3451SOL    HW210674   2.414   4.393   3.193  0.7311  1.9081 -0.1597
 3452SOL     OW10675   1.864   4.951   2.253 -0.8975  0.5136 -0.1668
 3452SOL    HW110676   1.770   4.925   2.275 -0.9105  0.7872  0.1021
 3452SOL    HW210677   1.865   4.997   2.164 -0.8260 -0.6927 -0.8211
 3453SOL     OW10678   4.704   5.294   4.191 -0.3569  0.1334  0.1300
 3453SOL    HW110679   4.733   5.327   4.280 -1.9344 -0.4080  0.8791
 3453SOL    HW210680   4.713   5.194   4.187  3.2992  0.3968 -1.7117
 3454SOL     OW10681   2.034   0.664   2.761 -0.2051 -0.1853  0.1585
 3454SOL    HW110682   2.097   0.639   2.687 -0.4679 -0.3543 -0.0075
 3454SOL    HW210683   2.087   0.683   2.844  0.0217 -1.0887  0.2384
 3455SOL     OW10684   2.114   4.930   4.902  0.0727  0.5886  0.6759
 3455SOL    HW110685   2.191   4.926   4.965 -0.5401  0.3286  1.4228
 3455SOL    HW210686   2.137   4.882   4.817  0.9891  1.1517  0.5877
 3456SOL     OW10687   2.245   4.803   3.190 -0.5565 -0.3486  0.2793
 3456SOL    HW110688   2.344   4.809   3.206 -0.4202 -1.9243  0.1899
 3456SOL    HW210689   2.196   4.845   3.266  0.1635 -0.2094  0.6727
 3457SOL     OW10690   2.590   4.140   0.979 -0.4793 -0.0178  0.3230
 3457SOL    HW110691   2.528   4.153   1.057  2.4648  1.2532  2.6699
 3457SOL    HW210692   2.646   4.222   0.966  2.9519 -2.0937  0.5620
 3458SOL     OW10693   4.583   4.891   2.060 -0.2764 -0.4067 -0.0158
 3458SOL    HW110694   4.618   4.981   2.088  0.0515 -0.0108 -1.6121
 3458SOL    HW210695   4.550   4.896   1.966 -0.1206 -2.0086 -0.1792
 3459SOL     OW10696   1.163   4.209   2.345 -0.3379  0.0166  0.4982
 3459SOL    HW110697   1.160   4.185   2.248  0.1549  0.0543  0.4680
 3459SOL    HW210698   1.258   4.204   2.377 -0.3179  1.2117  0.6743
 3460SOL     OW10699   1.787   5.190   2.406  0.3845 -0.1087  0.4737
 3460SOL    HW110700   1.775   5.114   2.342  0.6786  1.1644 -1.1711
 3460SOL    HW210701   1.883   5.194   2.435  0.4182 -0.2244  0.3783
 3461SOL     OW10702   3.950   4.038   4.464  0.1137 -0.6480  0.1849
 3461SOL    HW110703   3.859   4.051   4.503  0.3556 -1.4297  1.0219
 3461SOL    HW210704   4.019   4.053   4.534  0.6233 -0.4121 -0.3612
 3462SOL     OW10705   1.974   1.016   2.745  0.5277  0.7655 -0.2877
 3462SOL    HW110706   1.978   0.974   2.654  0.2715  2.5329 -1.1608
 3462SOL    HW210707   2.067   1.040   2.774  0.5850  0.4341 -0.1942
 3463SOL     OW10708   1.832   5.563   3.938  1.0378  0.3446 -0.4920
 3463SOL    HW110709   1.811   5.657   3.964 -2.5512 -0.0672 -1.3786
 3463SOL    HW210710   1.834   5.505   4.019 -0.3708  0.6431 -0.2113
 3464SOL     OW10711   2.772   4.109   3.522 -0.4218  0.1582  0.2129
 3464SOL    HW110712   2.797   4.068   3.434 -3.4024  0.4881 -0.8982
 3464SOL    HW210713   2.805   4.203   3.525  0.8721 -0.2630  0.0702
 3465SOL     OW10714   2.557   4.486   3.645  0.5179  0.3241  0.3045
 3465SOL    HW110715   2.598   4.480   3.736 -1.0026 -0.6092  0.9669
 3465SOL    HW210716   2.459   4.503   3.654  0.5421  1.4576 -1.2052
 3466SOL     OW10717   3.105   4.417   2.054 -0.0613 -0.3763 -0.2908
 3466SOL    HW110718   3.035   4.488   2.053  0.3304  0.0211 -0.2689
 3466SOL    HW210719   3.065   4.329   2.080 -0.4860 -0.0888  0.0277
 3467SOL     OW10720   2.708   4.909   3.863  0.2597 -0.4405 -0.3721
 3467SOL    HW110721   2.732   4.909   3.765  3.7898 -4.6118  0.1597
 3467SOL    HW210722   2.780   4.956   3.914 -0.6075  0.0905  0.3753
 3468SOL     OW10723   1.886   3.668   2.611  0.3012  0.0354  0.0910
 3468SOL    HW110724   1.807   3.707   2.563  0.9923 -0.0127 -1.1443
 3468SOL    HW210725   1.922   3.734   2.677 -0.1660  0.4365 -0.0547
 3469SOL     OW10726   2.394   5.289   2.101 -0.3277 -0.2548  0.5881
 3469SOL    HW110727   2.359   5.360   2.041  0.1178 -0.5733 -0.0594
 3469SOL    HW210728   2.415   5.207   2.048 -1.3532 -1.0769  1.3987
 3470SOL     OW10729   4.425   4.963   4.144 -0.3043 -0.1072 -0.1820
 3470SOL    HW110730   4.368   4.882   4.133 -2.0792  1.0543  0.0787
 3470SOL    HW210731   4.446   5.002   4.055 -1.9611  0.7948 -0.2038
 3471SOL     OW10732   2.373   4.108   3.147  0.3998 -0.6409  0.1737
 3471SOL    HW110733   2.392   4.011   3.133 -1.5568 -1.5230  2.7224
 3471SOL    HW210734   2.404   4.134   3.239  2.3407  1.6193 -1.0436
 3472SOL     OW10735   2.423   1.139   2.998 -0.1004 -0.2579 -0.6735
 3472SOL    HW110736   2.482   1.213   2.966  0.6888  0.0739  1.3485
 3472SOL    HW210737   2.368   1.171   3.076 -0.8623 -1.3737 -0.7258
 3473SOL     OW10738   1.587   5.007   3.041  0.3205 -0.7398  0.0660
 3473SOL    HW110739   1.526   4.996   3.119  0.7394 -0.7533  0.3965
 3473SOL    HW210740   1.610   4.917   3.003 -1.1715 -0.6728 -1.1002
 3474SOL     OW10741   3.460   4.318   1.868  0.5368  0.3298 -0.3674
 3474SOL    HW110742   3.410   4.358   1.945  2.2826  1.8101  0.0621
 3474SOL    HW210743   3.517   4.243   1.901  0.3422  0.1474 -0.4448
 3475SOL     OW10744   2.618   0.430   3.106  0.6410 -0.5412  0.9916
 3475SOL    HW110745   2.659   0.373   3.036  0.0325  0.1645  0.0302
 3475SOL    HW210746   2.685   0.498   3.137  0.5256 -0.0151  0.1314
 3476SOL     OW10747   2.626   4.653   0.088  0.1933 -0.2413 -0.3626
 3476SOL    HW110748   2.714   4.683   0.052 -0.1946  0.4684 -0.7466
 3476SOL    HW210749   2.638   4.616   0.180  0.9496 -0.5558 -0.5791
 3477SOL     OW10750   1.569   0.112   3.435  0.3673  0.1531 -0.1751
 3477SOL    HW110751   1.474   0.136   3.457  0.7323  0.8275  0.7322
 3477SOL    HW210752   1.600   0.169   3.359 -0.0853 -0.3908 -0.7849
 3478SOL     OW10753   1.806   5.307   2.850 -0.0991 -0.3245  0.1025
 3478SOL    HW110754   1.724   5.322   2.795  1.4959  0.7099 -2.1538
 3478SOL    HW210755   1.839   5.214   2.836  0.8193  0.2200 -1.4986
 3479SOL     OW10756   3.777   4.955   2.192  0.0932 -0.7124 -0.1213
 3479SOL    HW110757   3.819   4.868   2.217 -0.4462 -1.7733 -2.5783
 3479SOL    HW210758   3.801   4.978   2.098 -1.3464  0.8072 -0.1651
 3480SOL     OW10759   1.697   4.609   2.444 -0.1185  0.2773  0.1274
 3480SOL    HW110760   1.741   4.594   2.355  0.3097  0.0011  0.3867
 3480SOL    HW210761   1.766   4.627   2.513 -0.5288  2.7540  0.0108
 3481SOL     OW10762   3.650   0.239   2.718 -0.5751 -0.0015  0.4576
 3481SOL    HW110763   3.635   0.235   2.817 -1.1315 -0.4195  0.3608
 3481SOL    HW210764   3.561   0.247   2.672 -0.3632 -0.5047 -0.0397
 3482SOL     OW10765   1.998   3.679   4.328  0.2734 -0.1763 -0.0197
 3482SOL    HW110766   1.995   3.585   4.293  0.9467 -0.4648  0.6636
 3482SOL    HW210767   2.006   3.743   4.252 -1.6421 -0.5571 -0.5993
 3483SOL     OW10768   2.648   5.047   2.991  0.6239  0.1134  0.1702
 3483SOL    HW110769   2.700   5.059   2.906 -0.6124 -1.9926 -0.9638
 3483SOL    HW210770   2.653   4.951   3.019 -2.0823 -0.0384  0.3589
 3484SOL     OW10771   2.460   3.576   3.583 -0.5880 -0.1617  0.3041
 3484SOL    HW110772   2.511   3.510   3.528 -0.5285  0.2394 -0.1306
 3484SOL    HW210773   2.511   3.662   3.587 -1.3485  0.3309 -0.3592
 3485SOL     OW10774   3.127   4.440   3.794 -0.0866 -0.3639  0.3472
 3485SOL    HW110775   3.076   4.368   3.748 -0.0179 -0.5346  0.5370
 3485SOL    HW210776   3.146   4.413   3.889  0.9706 -0.6138  0.0809
 3486SOL     OW10777   2.003   3.798   3.254  0.0053 -0.1188 -0.5893
 3486SOL    HW110778   2.035   3.705   3.272  0.4794 -0.1290 -1.4307
 3486SOL    HW210779   2.017   3.820   3.157 -0.5083  0.6733 -0.4932
 3487SOL     OW10780   1.624   5.578   2.668  0.1455  0.0983 -0.4197
 3487SOL    HW110781   1.556   5.616   2.604 -0.8825  1.0446  1.1478
 3487SOL    HW210782   1.641   5.483   2.645 -0.4172  0.3218 -1.9124
 3488SOL     OW10783   3.278   3.916   1.793  0.2549  0.3122 -0.8275
 3488SOL    HW110784   3.302   3.927   1.697  0.3903 -0.5517 -0.8961
 3488SOL    HW210785   3.186   3.951   1.809 -0.2081 -0.5774 -1.5033
 3489SOL     OW10786   2.681   5.281   3.161  0.2403 -0.9589  0.4279
 3489SOL    HW110787   2.665   5.201   3.103  1.4186 -1.3963  0.6914
 3489SOL    HW210788   2.779   5.294   3.175  0.0873  0.8048  0.0288
 3490SOL     OW10789   2.814   4.411   3.556  0.4431 -0.4138 -0.0756
 3490SOL    HW110790   2.801   4.399   3.458 -0.2430 -0.0608 -0.0314
 3490SOL    HW210791   2.727   4.434   3.599  0.4341 -1.9592  0.8268
 3491SOL     OW10792   3.005   4.512   2.451  0.4093 -0.5772 -0.4599
 3491SOL    HW110793   3.073   4.443   2.426  2.4124  0.4462  1.7437
 3491SOL    HW210794   2.994   4.514   2.551 -0.1945  1.6944 -0.5159
 3492SOL     OW10795   3.511   4.727   3.256 -0.2715  0.5996 -0.0304
 3492SOL    HW110796   3.550   4.664   3.190 -1.3011  0.3309 -0.4058
 3492SOL    HW210797   3.530   4.695   3.349 -3.2600 -1.9679 -0.1517
 3493SOL     OW10798   2.927   4.821   3.113  0.1616 -0.6296 -1.0089
 3493SOL    HW110799   2.940   4.920   3.114  0.1180 -0.5769 -2.6036
 3493SOL    HW210800   2.835   4.801   3.079 -0.2382 -1.2156  0.3426
 3494SOL     OW10801   2.518   4.141   3.827 -0.0047 -0.5136  0.1928
 3494SOL    HW110802   2.549   4.222   3.877  0.4603  0.3056 -1.3350
 3494SOL    HW210803   2.533   4.156   3.729  0.1303 -2.4908 -0.1148
 3495SOL     OW10804   2.483   3.220   0.143 -0.3408 -0.8653  0.3330
 3495SOL    HW110805   2.430   3.240   0.061 -1.1612 -3.4233  0.1641
 3495SOL    HW210806   2.546   3.145   0.125  2.6090  1.2717  0.8905
 3496SOL     OW10807   1.685   4.731   5.463  0.0980 -0.6874 -0.6638
 3496SOL    HW110808   1.748   4.808   5.458  0.1313 -0.4969  1.5816
 3496SOL    HW210809   1.705   4.666   5.390  1.6317  0.2871 -1.1520
 3497SOL     OW10810   3.558   4.581   3.829  0.1847 -0.0451  0.0922
 3497SOL    HW110811   3.634   4.645   3.835 -0.1504  0.4959 -1.0368
 3497SOL    HW210812   3.489   4.603   3.897 -0.4840  1.5978 -1.0445
 3498SOL     OW10813   2.697   5.472   5.010  0.5240  0.0067 -0.0852
 3498SOL    HW110814   2.748   5.512   4.935 -0.7542  3.0155  0.5188
 3498SOL    HW210815   2.604   5.450   4.980  0.2507  0.4930  0.3762
 3499SOL     OW10816   2.703   4.446   3.873  0.3702 -0.0197 -0.4009
 3499SOL    HW110817   2.789   4.400   3.895  0.2635 -0.8344 -1.6235
 3499SOL    HW210818   2.694   4.528   3.930  0.9908 -0.9924  1.1918
 3500SOL     OW10819   1.825   4.946   5.417 -0.4321  0.2837  0.2143
 3500SOL    HW110820   1.873   4.924   5.331  1.0685 -2.0346  1.5467
 3500SOL    HW210821   1.852   5.038   5.447  0.3707  0.4458 -0.9137
 3501SOL     OW10822   3.337   4.441   4.536  0.1054  0.2402  0.0994
 3501SOL    HW110823   3.300   4.403   4.621  2.4271 -1.2929  0.5181
 3501SOL    HW210824   3.431   4.471   4.551  0.9721 -1.0955 -2.1612
 3502SOL     OW10825   2.436   4.534   5.222  0.1937 -0.3979  0.0077
 3502SOL    HW110826   2.468   4.439   5.218  1.0068 -0.1589  0.5672
 3502SOL    HW210827   2.480   4.588   5.150  0.0482 -0.3572 -0.0509
 3503SOL     OW10828   3.130   3.717   4.790 -0.1672 -0.2293 -0.4891
 3503SOL    HW110829   3.177   3.773   4.859  0.7209 -0.7135 -0.6765
 3503SOL    HW210830   3.055   3.667   4.833 -1.0000  1.1133 -0.3243
 3504SOL     OW10831   2.309   5.170   4.432  0.6394 -0.3269 -0.5406
 3504SOL    HW110832   2.311   5.269   4.419 -1.4489 -0.4162 -1.8852
 3504SOL    HW210833   2.238   5.147   4.498  1.8895 -0.8963  0.6566
 3505SOL     OW10834   2.335   5.164   4.778 -0.3868  0.1319 -0.3729
 3505SOL    HW110835   2.256   5.134   4.725 -0.1386  0.9625 -1.2476
 3505SOL    HW210836   2.335   5.120   4.867 -0.7911 -1.3486 -1.0773
 3506SOL     OW10837   2.237   4.937   5.281 -0.2198  0.0189  0.5203
 3506SOL    HW110838   2.173   4.987   5.339 -1.0178  0.6078 -0.8147
 3506SOL    HW210839   2.298   4.883   5.338 -1.1597  0.3363  1.8838
 3507SOL     OW10840   4.561   3.131   3.403  0.5227 -0.4082  0.1172
 3507SOL    HW110841   4.650   3.094   3.377 -0.0164 -0.4817 -1.7683
 3507SOL    HW210842   4.531   3.197   3.334 -0.3994  0.4243  1.2938
 3508SOL     OW10843   2.585   4.857   4.849  0.2378  0.0922 -0.5074
 3508SOL    HW110844   2.532   4.878   4.767  1.2347 -0.0138 -1.2008
 3508SOL    HW210845   2.641   4.936   4.874  1.7376 -0.6424 -1.3627
 3509SOL     OW10846   3.163   3.846   5.500  0.6238 -0.6490 -0.1820
 3509SOL    HW110847   3.197   3.929   5.456  0.7365 -1.1736 -1.1047
 3509SOL    HW210848   3.233   3.775   5.496  0.9931 -0.4437  1.6757
 3510SOL     OW10849   0.954   4.964   5.067 -0.2434 -0.0353 -0.6605
 3510SOL    HW110850   0.978   4.933   5.159 -1.9237 -0.0320 -0.1898
 3510SOL    HW210851   0.925   5.060   5.071 -1.6599 -0.4296 -0.9336
 3511SOL     OW10852   1.583   4.773   4.731  0.5063 -0.0975 -0.0997
 3511SOL    HW110853   1.673   4.792   4.771 -0.1853 -0.5726  1.8008
 3511SOL    HW210854   1.579   4.677   4.702  0.3202 -0.3180  0.6491
 3512SOL     OW10855   2.781   0.721   5.093 -0.3557  0.3116  0.1640
 3512SOL    HW110856   2.806   0.630   5.059  0.5892  1.1002 -1.3045
 3512SOL    HW210857   2.863   0.776   5.105 -1.0536  1.5623 -0.6557
 3513SOL     OW10858   1.917   4.197   4.418  0.3392  0.2652 -0.1646
 3513SOL    HW110859   1.901   4.296   4.419 -0.7476  0.1297  1.7251
 3513SOL    HW210860   2.008   4.177   4.454 -0.4828  0.5137  2.2164
 3514SOL     OW10861   3.454   3.641   0.154  0.1166  0.4708  0.1292
 3514SOL    HW110862   3.481   3.694   0.074 -2.9993  0.9464 -0.7551
 3514SOL    HW210863   3.422   3.702   0.226  0.7500 -0.0498  0.8710
 3515SOL     OW10864   2.902   3.817   4.662  0.0464  0.7339 -0.1577
 3515SOL    HW110865   2.945   3.897   4.621  1.4342  1.2006  2.0096
 3515SOL    HW210866   2.891   3.832   4.761  0.6911 -1.8783  0.3943
 3516SOL     OW10867   3.745   0.638   4.842 -0.1126  0.7491 -0.2224
 3516SOL    HW110868   3.697   0.680   4.919 -0.9517  0.4226 -0.5619
 3516SOL    HW210869   3.717   0.682   4.757  1.4938  1.7349 -0.2913
 3517SOL     OW10870   2.100   5.115   4.605 -0.6461  0.6203 -0.0667
 3517SOL    HW110871   2.064   5.022   4.597 -2.0323  1.2268 -1.1897
 3517SOL    HW210872   2.025   5.180   4.611  0.1582  1.9424 -2.5592
 3518SOL     OW10873   3.943   3.934   3.705  0.0528 -0.6486  0.0748
 3518SOL    HW110874   3.876   3.871   3.666 -1.3631  0.6967  0.2627
 3518SOL    HW210875   3.978   3.995   3.633 -0.9344  0.3964  0.4515
 3519SOL     OW10876   5.073   4.599   3.041  0.0925  0.1518 -0.3515
 3519SOL    HW110877   5.028   4.647   3.116  0.7698 -0.2772  0.3570
 3519SOL    HW210878   5.109   4.665   2.975  0.9784  0.6477  0.5861
 3520SOL     OW10879   2.793   4.031   4.015  0.0741  0.0297 -0.2408
 3520SOL    HW110880   2.703   4.001   4.045 -0.5587 -1.3480 -3.2089
 3520SOL    HW210881   2.855   3.953   4.011  0.7559  0.5656 -0.3863
 3521SOL     OW10882   1.565   5.226   4.459  0.4840  0.3030  0.7510
 3521SOL    HW110883   1.541   5.142   4.508  2.7041 -0.5437  0.5192
 3521SOL    HW210884   1.551   5.214   4.361 -1.7005  1.1848  0.8876
 3522SOL     OW10885   3.209   5.174   4.918  0.0916  0.6713  0.1783
 3522SOL    HW110886   3.223   5.192   4.820 -0.3871  0.1993  0.0160
 3522SOL    HW210887   3.295   5.145   4.959 -0.3408 -2.5021 -0.8678
 3523SOL     OW10888   2.309   4.843   3.824 -0.5146 -0.1418 -0.4355
 3523SOL    HW110889   2.298   4.942   3.820 -2.5815 -0.3175 -0.6230
 3523SOL    HW210890   2.374   4.814   3.754 -0.1061  1.0492 -0.5754
 3524SOL     OW10891   1.144   0.624   0.167  0.0514 -0.1274  0.4358
 3524SOL    HW110892   1.111   0.536   0.133 -1.0893  1.0254 -1.6327
 3524SOL    HW210893   1.120   0.696   0.102 -0.3877  1.9638  2.7713
 3525SOL     OW10894   3.145   3.763   2.888 -0.3730  0.3448  0.6160
 3525SOL    HW110895   3.045   3.763   2.889 -0.3765  0.1849  1.8203
 3525SOL    HW210896   3.179   3.829   2.955  0.3885  3.7803 -2.7749
 3526SOL     OW10897   2.906   0.622   0.310 -0.0473 -0.2880 -0.2690
 3526SOL    HW110898   2.986   0.564   0.325 -0.0367 -0.1391  0.2361
 3526SOL    HW210899   2.931   0.697   0.248  0.0459 -0.5774 -0.5898
 3527SOL     OW10900   3.584   3.340   4.328 -0.3626  0.0142 -0.1276
 3527SOL    HW110901   3.541   3.373   4.244 -2.5637 -2.6123 -0.1422
 3527SOL    HW210902   3.554   3.396   4.405 -1.9971 -0.3268 -0.4854
 3528SOL     OW10903   2.485   0.271   5.127  0.1834 -0.0267 -0.6917
 3528SOL    HW110904   2.579   0.266   5.095  0.3968 -0.4228 -0.0056
 3528SOL    HW210905   2.423   0.260   5.049  0.6748  1.9407 -1.4324
 3529SOL     OW10906   4.916   5.414   5.009  0.1051 -0.7684 -0.0793
 3529SOL    HW110907   4.826   5.391   5.047  0.8625  0.5676  2.8637
 3529SOL    HW210908   4.986   5.390   5.076  1.6030  1.5996 -0.6919
 3530SOL     OW10909   2.100   3.937   3.470  0.1612 -0.5170 -0.3621
 3530SOL    HW110910   2.061   3.898   3.387  0.4863 -0.8087 -0.3781
 3530SOL    HW210911   2.126   3.864   3.533  0.4690 -0.3198 -0.2543
 3531SOL     OW10912   4.158   4.516   0.234 -0.2144 -0.1510 -0.5081
 3531SOL    HW110913   4.148   4.417   0.228  0.3973 -0.2165 -0.4950
 3531SOL    HW210914   4.251   4.542   0.208 -0.3651  0.4182 -0.4921
 3532SOL     OW10915   4.108   5.532   4.828 -0.2318  0.0602 -0.3563
 3532SOL    HW110916   4.167   5.527   4.909 -1.1464 -0.8195  0.2791
 3532SOL    HW210917   4.066   5.623   4.824  0.4974  0.4066 -0.3478
 3533SOL     OW10918   3.867   3.446   4.505  0.3633 -0.4349 -0.4755
 3533SOL    HW110919   3.805   3.520   4.479  1.3240  0.4616 -0.3225
 3533SOL    HW210920   3.868   3.376   4.434 -0.5656 -0.3081 -0.6284
 3534SOL     OW10921   2.457   2.360   0.241  0.4537 -0.5272  0.0342
 3534SOL    HW110922   2.549   2.342   0.274  0.2871  0.7693  1.3208
 3534SOL    HW210923   2.461   2.399   0.149  1.2003 -0.4373  0.1015
 3535SOL     OW10924   3.712   0.322   4.635  0.0481  0.4386  0.0561
 3535SOL    HW110925   3.632   0.270   4.604  1.2620  0.0216 -2.6716
 3535SOL    HW210926   3.725   0.402   4.576  3.2503 -1.1095 -1.6084
 3536SOL     OW10927   3.688   3.317   3.507 -0.3610  0.5189  0.4616
 3536SOL    HW110928   3.698   3.267   3.593 -0.1191  0.0929  0.1891
 3536SOL    HW210929   3.726   3.409   3.518 -1.2932  0.8415  1.1286
 3537SOL     OW10930   3.513   4.650   3.510  0.0422 -0.0372 -0.4967
 3537SOL    HW110931   3.541   4.736   3.554  0.9584  0.3047 -1.6997
 3537SOL    HW210932   3.543   4.573   3.567  0.2001  0.4105  0.0391
 3538SOL     OW10933   1.553   3.576   0.066 -0.5680  0.3588  0.0426
 3538SOL    HW110934   1.491   3.555  -0.010  0.5465  2.0573 -1.4203
 3538SOL    HW210935   1.608   3.496   0.088 -0.6842 -0.0635 -1.1589
 3539SOL     OW10936   1.211   5.459   5.064  0.1020  0.1181  0.0214
 3539SOL    HW110937   1.236   5.364   5.047 -0.8718 -0.1619  0.0933
 3539SOL    HW210938   1.291   5.518   5.051 -0.0302 -0.2654 -3.7374
 3540SOL     OW10939   2.099   4.963   3.389  0.1710 -0.3321 -0.0672
 3540SOL    HW110940   2.186   4.971   3.439  0.8041  0.0162 -1.1789
 3540SOL    HW210941   2.072   5.054   3.355 -2.0404  0.0775  2.4998
 3541SOL     OW10942   4.167   3.873   4.737 -0.5086 -0.2269 -0.0507
 3541SOL    HW110943   4.137   3.963   4.706  0.4752  0.0635 -0.1842
 3541SOL    HW210944   4.108   3.803   4.696  1.1226  0.0786 -3.2146
 3542SOL     OW10945   3.867   4.929   3.703 -0.0746 -0.1577 -0.0507
 3542SOL    HW110946   3.848   4.984   3.622  0.7565 -0.4762 -0.4789
 3542SOL    HW210947   3.930   4.979   3.763 -0.5559  0.0080  0.3145
 3543SOL     OW10948   2.156   3.528   4.052  0.0891 -0.3371  0.7970
 3543SOL    HW110949   2.246   3.565   4.077 -0.6725  0.4922  2.4645
 3543SOL    HW210950   2.116   3.584   3.979  0.8538 -0.6372  0.1345
 3544SOL     OW10951   2.962   0.022   3.911  0.2969  0.9472  0.3860
 3544SOL    HW110952   2.957  -0.028   3.825  1.9266 -0.6752  1.1628
 3544SOL    HW210953   2.989   0.117   3.893  0.4902  0.6672 -0.9006
 3545SOL     OW10954   3.660   5.464   2.423  0.3301 -0.5136 -0.0904
 3545SOL    HW110955   3.617   5.432   2.508 -1.5556 -1.3124 -1.2786
 3545SOL    HW210956   3.677   5.562   2.429 -3.4276  0.3076 -0.1252
 3546SOL     OW10957   3.553   3.200   4.037 -0.3342  0.1578 -0.1909
 3546SOL    HW110958   3.462   3.175   4.003 -0.5492  1.8578 -0.9813
 3546SOL    HW210959   3.548   3.290   4.080  1.1542  0.7068 -1.1024
 3547SOL     OW10960   2.258   5.124   3.860 -0.2935  0.0940  0.1010
 3547SOL    HW110961   2.336   5.094   3.916  1.8338  1.9626 -1.6224
 3547SOL    HW210962   2.255   5.224   3.860  0.1421  0.2238 -3.3783
 3548SOL     OW10963   3.074   4.407   4.489  0.0635 -0.8295  0.5707
 3548SOL    HW110964   3.174   4.414   4.491  0.0123  0.9762 -0.7145
 3548SOL    HW210965   3.036   4.462   4.562 -0.0035 -0.5952  0.3618
 3549SOL     OW10966   3.771   2.847   3.893 -0.8204  0.2434  0.3394
 3549SOL    HW110967   3.825   2.792   3.830  0.7558  0.2131  1.6610
 3549SOL    HW210968   3.722   2.918   3.841 -1.5863 -1.3246 -1.1761
 3550SOL     OW10969   2.047   4.559   4.594  0.0891 -0.6037  0.5696
 3550SOL    HW110970   2.008   4.521   4.510  0.4363 -2.3389  1.1668
 3550SOL    HW210971   2.049   4.489   4.665  0.6112  0.5895  1.7735
 3551SOL     OW10972   3.590   0.765   3.496 -0.2404 -0.4903 -0.1625
 3551SOL    HW110973   3.662   0.713   3.450 -0.3381 -1.2675  0.5313
 3551SOL    HW210974   3.501   0.735   3.462 -0.2960 -0.8028  0.2383
 3552SOL     OW10975   1.680   4.462   0.168 -0.1891  0.3636 -0.1825
 3552SOL    HW110976   1.598   4.445   0.114  0.2549  3.1567 -1.9958
 3552SOL    HW210977   1.761   4.454   0.109  0.6453  0.0225  0.9687
 3553SOL     OW10978   2.969   4.645   3.627 -0.7164  0.2656  0.2589
 3553SOL    HW110979   2.880   4.600   3.636 -0.6312 -0.1240 -0.7536
 3553SOL    HW210980   3.028   4.616   3.702 -2.5659  3.3603  3.2275
 3554SOL     OW10981   2.635   0.612   4.750  0.1139 -0.0243 -0.1338
 3554SOL    HW110982   2.672   0.696   4.790  0.9470 -0.3509 -0.1894
 3554SOL    HW210983   2.557   0.581   4.805 -0.1785  0.7560 -0.0899
 3555SOL     OW10984   3.798   3.267   4.692 -0.2326  0.2452  0.2520
 3555SOL    HW110985   3.835   3.344   4.641  1.0849  0.3242  1.2380
 3555SOL    HW210986   3.699   3.274   4.698 -0.1309  1.8977  0.3723
 3556SOL     OW10987   2.660   5.361   3.988  0.2964  0.0545  0.5604
 3556SOL    HW110988   2.732   5.291   3.993  0.3553  0.1203  0.6320
 3556SOL    HW210989   2.599   5.352   4.067  0.4000  0.1875  0.6574
 3557SOL     OW10990   2.132   0.475   5.326  0.2791 -0.1386  0.6867
 3557SOL    HW110991   2.090   0.485   5.236  0.2641  1.2916  0.8331
 3557SOL    HW210992   2.230   0.456   5.315 -0.0269 -1.6458  0.3705
 3558SOL     OW10993   2.880   4.496   4.297 -0.6123  0.0747  0.5490
 3558SOL    HW110994   2.907   4.428   4.365 -0.6871 -0.2493  0.2558
 3558SOL    HW210995   2.788   4.475   4.264 -0.8059  0.5684  0.7749
 3559SOL     OW10996   2.365   4.289   4.923  0.0863  0.2313 -0.0593
 3559SOL    HW110997   2.297   4.275   4.850  1.3171 -2.0133 -0.8641
 3559SOL    HW210998   2.332   4.246   5.007  0.0256  0.1446 -0.1271
 3560SOL     OW10999   2.539   4.142   2.752  0.5437 -0.6238 -0.1833
 3560SOL    HW111000   2.459   4.169   2.806  1.0281 -1.7792  1.1596
 3560SOL    HW211001   2.514   4.138   2.656 -0.4085  1.2433 -0.0689
 3561SOL     OW11002   2.065   3.096   0.075 -0.4216  0.1931 -0.4090
 3561SOL    HW111003   2.107   3.166   0.016  0.5183  0.8396  0.9708
 3561SOL    HW211004   2.029   3.140   0.157 -0.9827 -0.7967 -0.1133
 3562SOL     OW11005   2.600   5.048   5.530 -0.7950 -0.4545 -0.2726
 3562SOL    HW111006   2.657   5.113   5.479  1.5910 -2.2504 -0.0742
 3562SOL    HW211007   2.597   5.075   5.626  0.7497 -0.9127 -0.0612
 3563SOL     OW11008   2.690   0.017   5.429  0.0787 -0.0553  0.4623
 3563SOL    HW111009   2.719   0.089   5.491 -2.5688  1.1769  0.3944
 3563SOL    HW211010   2.755   0.009   5.353  1.8343  0.3461  1.8586
 3564SOL     OW11011   2.456   0.027   5.275 -0.5277 -0.4911  0.2706
 3564SOL    HW111012   2.453   0.101   5.207 -0.2544 -0.6162  0.1243
 3564SOL    HW211013   2.541   0.033   5.327 -0.5949 -0.5855  0.3904
 3565SOL     OW11014   3.304   3.379   4.978 -0.0942 -0.1907 -0.0778
 3565SOL    HW111015   3.264   3.375   5.070  0.3814  1.6872  0.2527
 3565SOL    HW211016   3.404   3.385   4.985 -0.0621  0.1175 -0.7001
 3566SOL     OW11017   2.811   2.832   4.183 -0.4975  0.0689 -0.8115
 3566SOL    HW111018   2.879   2.903   4.203 -1.7658  1.1128 -0.0963
 3566SOL    HW211019   2.785   2.837   4.087 -1.5646  1.4988 -0.4810
 3567SOL     OW11020   3.190   3.796   3.872  0.5629 -0.5154 -0.3192
 3567SOL    HW111021   3.244   3.774   3.953  0.7798  0.7024 -0.1030
 3567SOL    HW211022   3.246   3.850   3.809 -0.5764  1.4277  0.2392
 3568SOL     OW11023   3.159   3.302   4.304  0.0188  0.9920 -0.0272
 3568SOL    HW111024   3.113   3.313   4.392  0.2559  1.3337  0.0563
 3568SOL    HW211025   3.239   3.243   4.316 -0.6471  0.0166 -0.2637
 3569SOL     OW11026   2.673   3.752   5.309  0.2469 -0.6998  0.4239
 3569SOL    HW111027   2.655   3.815   5.233 -2.9050 -0.7194  1.0382
 3569SOL    HW211028   2.753   3.784   5.360 -0.0099  1.6357 -0.5083
 3570SOL     OW11029   3.948   3.669   4.955 -0.3413  0.2235 -0.5650
 3570SOL    HW111030   3.997   3.685   4.869  0.0931  1.1486 -0.1476
 3570SOL    HW211031   4.007   3.691   5.032 -0.5833 -1.0159 -0.0037
 3571SOL     OW11032   3.303   1.258   3.316 -0.6066  0.2193 -0.4789
 3571SOL    HW111033   3.301   1.341   3.259 -1.3555  0.4066 -0.1901
 3571SOL    HW211034   3.251   1.185   3.271  0.1310 -0.1323 -0.7776
 3572SOL     OW11035   2.675   5.245   3.547 -0.7888 -0.0798 -0.2123
 3572SOL    HW111036   2.703   5.150   3.537 -0.7574 -0.2393  1.1853
 3572SOL    HW211037   2.575   5.249   3.556 -1.0058  0.2266 -2.2504
 3573SOL     OW11038   4.591   0.105   4.629  0.0903 -0.1684  0.4387
 3573SOL    HW111039   4.569   0.201   4.614  1.6608  0.2916  0.9632
 3573SOL    HW211040   4.673   0.097   4.685 -1.9393 -1.7853  3.5366
 3574SOL     OW11041   2.899   4.205   3.146  0.1523 -0.0789  0.1721
 3574SOL    HW111042   2.866   4.122   3.191 -0.4461  0.7857  1.4061
 3574SOL    HW211043   2.951   4.181   3.064 -1.2677 -1.5955 -0.3232
 3575SOL     OW11044   2.855   4.798   4.773 -0.2663  1.0794  0.2251
 3575SOL    HW111045   2.922   4.871   4.780 -1.3549  1.9972  1.8110
 3575SOL    HW211046   2.763   4.837   4.771 -0.8281 -0.1669 -1.2877
 3576SOL     OW11047   2.854   3.511   0.692  0.0104 -0.0623  0.0194
 3576SOL    HW111048   2.897   3.559   0.615  0.7309  1.5710  1.3951
 3576SOL    HW211049   2.891   3.546   0.778 -0.7855 -1.8532  1.1307
 3577SOL     OW11050   3.404   4.362   3.723  0.3211  0.0886  0.0975
 3577SOL    HW111051   3.454   4.432   3.774 -0.9686  0.9622  0.2045
 3577SOL    HW211052   3.306   4.381   3.727  0.1000 -0.4392 -1.7869
 3578SOL     OW11053   2.598   3.383   4.679 -0.0226 -0.3625 -0.4079
 3578SOL    HW111054   2.608   3.480   4.655 -1.5982  0.1048  0.6271
 3578SOL    HW211055   2.677   3.355   4.733 -0.1697  0.7741  0.4619
 3579SOL     OW11056   4.829   3.052   4.881 -0.2106 -0.6687 -0.1340
 3579SOL    HW111057   4.852   3.143   4.848  0.2992 -0.0054  1.9220
 3579SOL    HW211058   4.912   2.995   4.880 -0.1844 -0.6341  0.0200
 3580SOL     OW11059   2.863   3.350   3.938 -0.2911  0.1770 -0.2490
 3580SOL    HW111060   2.779   3.311   3.901 -0.2570  1.0808 -1.3230
 3580SOL    HW211061   2.905   3.410   3.870  1.2507 -0.2789  0.2684
 3581SOL     OW11062   4.250   4.481   5.197  0.5036 -0.0328 -0.3996
 3581SOL    HW111063   4.206   4.407   5.145  2.2664 -0.3343 -1.5563
 3581SOL    HW211064   4.350   4.468   5.195  0.7724  1.6398  0.5506
 3582SOL     OW11065   1.881   4.461   4.391 -0.6528  0.0765  0.1039
 3582SOL    HW111066   1.931   4.498   4.313  0.2499  0.0281  0.6366
 3582SOL    HW211067   1.785   4.490   4.387 -0.7965 -0.5242 -1.3881
 3583SOL     OW11068   4.870   3.663   4.085  0.0541 -0.1463  0.3335
 3583SOL    HW111069   4.815   3.618   4.156 -1.1904  1.1815  0.2525
 3583SOL    HW211070   4.892   3.597   4.013  1.5224 -1.5836  2.0042
 3584SOL     OW11071   2.379   0.184   3.513 -0.1900  0.0428  0.5682
 3584SOL    HW111072   2.293   0.225   3.543 -1.7250 -2.4528 -0.1380
 3584SOL    HW211073   2.443   0.182   3.589 -1.4948  0.0928  1.7164
 3585SOL     OW11074   2.539   3.957   4.082 -0.4437  0.0438 -0.0919
 3585SOL    HW111075   2.464   3.920   4.136 -0.4914  0.8635  0.4117
 3585SOL    HW211076   2.503   4.005   4.002 -0.5421  1.5547  0.8304
 3586SOL     OW11077   3.895   0.122   0.055 -0.2543  0.0667 -0.0300
 3586SOL    HW111078   3.957   0.171   0.116 -0.0206 -0.7170  0.3700
 3586SOL    HW211079   3.870   0.181  -0.022 -0.0236  0.8232  0.4739
 3587SOL     OW11080   2.764   5.351   4.691 -0.0520  0.1075 -0.4803
 3587SOL    HW111081   2.707   5.407   4.631  0.1549 -0.9080 -1.6494
 3587SOL    HW211082   2.833   5.410   4.735  0.5862  0.7124 -2.1928
 3588SOL     OW11083   4.184   5.452   4.554 -0.1807  0.0767  0.6808
 3588SOL    HW111084   4.193   5.465   4.652  0.8981  0.4579  0.5359
 3588SOL    HW211085   4.087   5.441   4.531 -0.4175 -0.3699  1.8211
 3589SOL     OW11086   4.349   4.847   5.107 -0.1967  0.6839  0.5128
 3589SOL    HW111087   4.383   4.789   5.033  0.3567  2.7640 -0.9376
 3589SOL    HW211088   4.270   4.898   5.076  0.1733  1.7640  1.2783
 3590SOL     OW11089   4.262   0.249   4.669  0.2612 -0.1073 -0.0746
 3590SOL    HW111090   4.279   0.151   4.683 -0.6456 -0.4474 -1.1784
 3590SOL    HW211091   4.167   0.262   4.639  0.0737  1.2165  1.0145
 3591SOL     OW11092   2.793   4.412   4.633  0.4641  0.3446  0.0551
 3591SOL    HW111093   2.854   4.346   4.678  0.3778 -0.0349 -0.3697
 3591SOL    HW211094   2.839   4.500   4.624  0.2809  0.6122  1.4014
 3592SOL     OW11095   3.252   3.577   4.053 -0.5832 -0.0568  0.3222
 3592SOL    HW111096   3.212   3.489   4.025 -0.0458  0.1150 -1.0935
 3592SOL    HW211097   3.220   3.601   4.144 -0.5853 -1.8246  0.8224
 3593SOL     OW11098   2.792   5.067   4.566  0.6238 -0.3971 -0.3031
 3593SOL    HW111099   2.848   5.046   4.485  0.6981 -0.0386 -0.3460
 3593SOL    HW211100   2.798   5.165   4.586  1.1768 -0.5932  0.5637
 3594SOL     OW11101   3.878   3.859   4.274  0.5530 -0.6453 -0.5328
 3594SOL    HW111102   3.918   3.909   4.350 -0.9228 -1.0121  0.5165
 3594SOL    HW211103   3.951   3.824   4.215  1.7616 -1.0618  1.1608
 3595SOL     OW11104   2.110   3.649   4.583 -0.4550 -0.3703 -0.1743
 3595SOL    HW111105   2.078   3.667   4.491  1.5576 -1.7069 -1.2176
 3595SOL    HW211106   2.206   3.678   4.592 -0.2399 -1.3411  1.0948
 3596SOL     OW11107   2.223   4.377   0.068  0.5175 -0.3929 -0.2316
 3596SOL    HW111108   2.301   4.422   0.025  1.0286  0.4019  1.4472
 3596SOL    HW211109   2.243   4.361   0.165 -1.2666 -0.4933  0.1581
 3597SOL     OW11110   2.175   3.378   4.584  0.3406 -0.4450  0.1911
 3597SOL    HW111111   2.162   3.474   4.609  0.7316 -0.6433  1.2400
 3597SOL    HW211112   2.182   3.369   4.485  3.3320  1.0234  0.1741
 3598SOL     OW11113   2.525   3.321   4.399  0.2126  0.5263  0.6430
 3598SOL    HW111114   2.582   3.387   4.352  0.5495  0.8175  1.4473
 3598SOL    HW211115   2.548   3.320   4.497  1.5960 -2.1687  0.3820
 3599SOL     OW11116   3.527   5.266   4.522  0.6745 -0.0086  0.0544
 3599SOL    HW111117   3.533   5.351   4.574  0.4688  1.4139 -2.1128
 3599SOL    HW211118   3.592   5.269   4.445  0.9694 -2.0154  0.1682
 3600SOL     OW11119   4.133   4.142   4.630 -0.6361  0.1293  0.3185
 3600SOL    HW111120   4.118   4.228   4.677 -0.3965 -0.4897  1.5630
 3600SOL    HW211121   4.216   4.148   4.574 -0.6104  0.6934  0.4180
 3601SOL     OW11122   2.393   4.011   4.417 -0.2540  0.1813 -0.6843
 3601SOL    HW111123   2.492   4.020   4.407  0.2548 -2.9120  0.4749
 3601SOL    HW211124   2.354   3.976   4.331 -0.5080  1.9926 -1.3536
 3602SOL     OW11125   2.356   4.993   5.052  0.3883  0.0985  0.6621
 3602SOL    HW111126   2.453   4.972   5.060  0.1460 -0.6912  1.6737
 3602SOL    HW211127   2.312   4.982   5.141 -0.5587  0.8487  0.3020
 3603SOL     OW11128   2.664   2.967   4.598 -0.3123 -0.4908 -0.0499
 3603SOL    HW111129   2.718   2.903   4.652 -0.5265  0.2468  1.0655
 3603SOL    HW211130   2.725   3.037   4.559 -0.6735  2.6859  4.4026
 3604SOL     OW11131   3.506   5.139   5.474 -0.4588 -0.1495 -0.2229
 3604SOL    HW111132   3.454   5.142   5.559 -0.5900 -3.7473 -0.0200
 3604SOL    HW211133   3.587   5.081   5.486  0.3040  0.4059 -2.1793
 3605SOL     OW11134   3.190   3.016   5.206  0.2569  0.6591  0.9190
 3605SOL    HW111135   3.225   3.093   5.259 -0.5429  1.3763  0.4419
 3605SOL    HW211136   3.091   3.010   5.217  0.2949 -0.2646  0.8850
 3606SOL     OW11137   4.016   4.260   4.314  0.0042 -0.3678 -0.4799
 3606SOL    HW111138   3.977   4.181   4.362  0.7654 -1.4898 -1.6426
 3606SOL    HW211139   3.947   4.299   4.252 -1.0067  1.1333  1.4747
 3607SOL     OW11140   2.212   4.114   4.003  0.0972  0.1508  0.1951
 3607SOL    HW111141   2.295   4.152   3.963  0.2188 -1.1470 -0.8606
 3607SOL    HW211142   2.137   4.122   3.939 -0.0525 -0.6729  0.2491
 3608SOL     OW11143   3.741   5.335   4.357 -0.4631 -0.3180  0.0661
 3608SOL    HW111144   3.669   5.389   4.311 -0.3799 -1.5099 -1.5416
 3608SOL    HW211145   3.825   5.390   4.362 -0.9967  0.4834  0.4452
 3609SOL     OW11146   3.392   4.839   4.210 -0.1272  0.7513 -0.1298
 3609SOL    HW111147   3.465   4.800   4.267 -0.8656 -0.5649 -0.0496
 3609SOL    HW211148   3.429   4.916   4.158  1.1687  0.4911  0.3474
 3610SOL     OW11149   1.587   3.156   0.076  0.1346  0.0963  0.7687
 3610SOL    HW111150   1.613   3.061   0.088 -0.5984 -0.0635  1.1384
 3610SOL    HW211151   1.508   3.162   0.015  0.9402  0.5655 -0.2513
 3611SOL     OW11152   1.885   5.228   4.081 -0.8889  0.3683  0.2103
 3611SOL    HW111153   1.830   5.308   4.104 -1.4845  0.0697 -0.1345
 3611SOL    HW211154   1.963   5.222   4.143 -0.2904  1.7526 -0.3748
 3612SOL     OW11155   3.414   3.109   4.913 -0.7306  0.3500  0.4566
 3612SOL    HW111156   3.416   3.177   4.840  1.4398 -0.7877 -0.6173
 3612SOL    HW211157   3.453   3.149   4.996  2.1048  0.0128 -0.6291
 3613SOL     OW11158   5.022   4.925   5.406 -0.1038 -0.2098  0.0360
 3613SOL    HW111159   5.117   4.902   5.384  0.8168  1.8190  1.5048
 3613SOL    HW211160   4.972   4.945   5.322  0.6046 -1.7822 -0.7961
 3614SOL     OW11161   2.061   4.417   3.421 -0.3452 -0.2387 -0.1950
 3614SOL    HW111162   1.995   4.343   3.418  0.8575 -1.3430 -0.4172
 3614SOL    HW211163   2.030   4.488   3.484 -1.4050 -1.0345  0.1990
 3615SOL     OW11164   2.741   3.692   3.337  0.0725 -0.6533 -0.7129
 3615SOL    HW111165   2.674   3.756   3.372  1.2796  0.5246 -0.4700
 3615SOL    HW211166   2.787   3.646   3.413  1.1679  0.2985 -0.7686
 3616SOL     OW11167   2.067   4.376   5.067  0.2486 -0.6954  0.4282
 3616SOL    HW111168   2.120   4.430   5.133  3.7295 -2.2987 -0.8041
 3616SOL    HW211169   2.066   4.280   5.096 -1.1676 -0.8807 -0.1495
 3617SOL     OW11170   2.054   5.609   0.142  0.2291 -0.2366 -0.6408
 3617SOL    HW111171   2.084   5.533   0.199  1.7813 -0.6808 -1.9956
 3617SOL    HW211172   2.127   5.635   0.079 -0.5993  1.7758 -0.8564
 3618SOL     OW11173   3.535   3.292   4.703  0.0699 -0.1178 -0.0619
 3618SOL    HW111174   3.565   3.377   4.660 -0.4104  0.5269  0.8323
 3618SOL    HW211175   3.440   3.273   4.678 -0.9392  1.4039  2.3160
 3619SOL     OW11176   3.290   4.366   4.277  0.4341  0.6753 -0.0954
 3619SOL    HW111177   3.304   4.418   4.360  1.3605  0.2686  0.0156
 3619SOL    HW211178   3.372   4.311   4.257 -0.7302 -1.2815  0.1904
 3620SOL     OW11179   3.129   3.596   3.367 -0.1239  0.1080 -0.0347
 3620SOL    HW111180   3.086   3.595   3.277 -0.4328  0.3342  0.1066
 3620SOL    HW211181   3.228   3.603   3.357  0.0943 -2.6047 -0.4140
 3621SOL     OW11182   2.301   4.505   3.738  0.0110  0.0174  0.4189
 3621SOL    HW111183   2.207   4.539   3.733  0.1203  0.7449  2.3790
 3621SOL    HW211184   2.345   4.541   3.820  1.9752 -0.4294 -0.3721
 3622SOL     OW11185   4.709   5.485   4.002  0.4106 -0.1062 -0.6363
 3622SOL    HW111186   4.708   5.410   4.068 -1.0664  0.3447 -0.0891
 3622SOL    HW211187   4.784   5.472   3.937  0.9991 -1.3305  0.2470
 3623SOL     OW11188   3.558   3.516   4.563 -0.6104  0.3766  0.0558
 3623SOL    HW111189   3.462   3.538   4.581 -0.3641  1.5933 -0.0326
 3623SOL    HW211190   3.607   3.599   4.537  0.8118  0.0512  1.5497
 3624SOL     OW11191   3.625   3.479   3.859 -0.1119  0.0685 -0.2352
 3624SOL    HW111192   3.703   3.542   3.856  0.2635 -0.4265 -2.6241
 3624SOL    HW211193   3.555   3.511   3.795 -0.4516 -1.2766 -0.5514
 3625SOL     OW11194   4.614   3.784   5.358  0.1813 -0.1427  0.5074
 3625SOL    HW111195   4.667   3.713   5.404 -0.1273  0.2961  1.5775
 3625SOL    HW211196   4.658   3.873   5.373  1.1946 -0.2164 -1.7689
 3626SOL     OW11197   1.303   4.474   3.555 -0.2976 -0.4967  0.3218
 3626SOL    HW111198   1.361   4.436   3.483 -0.2440 -0.9423  0.5925
 3626SOL    HW211199   1.325   4.571   3.568 -0.3859 -0.3845 -0.3345
 3627SOL     OW11200   1.402   5.556   4.887 -0.1918  0.0919  1.0071
 3627SOL    HW111201   1.377   5.586   4.795  0.6494 -0.6335  0.5193
 3627SOL    HW211202   1.495   5.518   4.885 -0.0986  0.2400  2.1968
 3628SOL     OW11203   2.912   4.285   3.972 -0.0821 -0.6501  0.0394
 3628SOL    HW111204   3.003   4.306   4.010  0.8385 -1.4245 -1.6344
 3628SOL    HW211205   2.893   4.188   3.983 -0.8474 -0.4334  0.6449
 3629SOL     OW11206   3.040   3.537   4.978 -0.7645 -0.2218 -0.0940
 3629SOL    HW111207   3.019   3.492   5.064 -0.8065 -0.3814 -0.1869
 3629SOL    HW211208   3.078   3.471   4.914  0.1504  0.0906  0.1139
 3630SOL     OW11209   3.318   3.557   4.610  0.3910 -0.3769 -0.3872
 3630SOL    HW111210   3.241   3.568   4.673  2.5652  0.1132  2.3781
 3630SOL    HW211211   3.295   3.599   4.522 -1.6989  1.6876  1.0248
 3631SOL     OW11212   2.659   3.372   0.288  0.4849 -0.1834 -0.0654
 3631SOL    HW111213   2.709   3.300   0.336 -1.5828 -0.8448  1.2236
 3631SOL    HW211214   2.601   3.331   0.218 -0.3715  0.2655  0.3718
 3632SOL     OW11215   2.451   4.845   5.446  0.2438 -0.3852 -0.0657
 3632SOL    HW111216   2.505   4.923   5.479  0.5458 -1.2749  1.6664
 3632SOL    HW211217   2.428   4.785   5.523 -3.2846 -0.0653 -0.6873
 3633SOL     OW11218   2.955   4.522   5.555  0.1745  0.0143 -0.3463
 3633SOL    HW111219   3.048   4.484   5.557  0.0742 -0.2196 -0.0022
 3633SOL    HW211220   2.913   4.511   5.645  0.8752  2.7826  0.4217
 3634SOL     OW11221   4.874   4.058   0.144  0.0314 -0.5889  0.1352
 3634SOL    HW111222   4.786   4.022   0.115  0.1520 -0.8056  0.0371
 3634SOL    HW211223   4.924   3.988   0.196  0.1180 -0.4459  0.2488
 3635SOL     OW11224   1.108   5.253   4.713 -0.0889 -0.2132  0.4202
 3635SOL    HW111225   1.197   5.290   4.739 -0.9191  1.8204  0.5504
 3635SOL    HW211226   1.118   5.157   4.689  1.8334 -0.4890  2.0415
 3636SOL     OW11227   3.578   3.143   5.149 -0.3572 -0.2877  0.3202
 3636SOL    HW111228   3.488   3.144   5.192  0.1116 -1.3794  1.3914
 3636SOL    HW211229   3.637   3.211   5.192 -0.8207  0.8492 -0.7853
 3637SOL     OW11230   2.908   1.130   3.638 -0.1033 -0.4451 -0.2649
 3637SOL    HW111231   2.946   1.114   3.730 -2.3864  0.4945  0.9097
 3637SOL    HW211232   2.965   1.198   3.591 -0.0818  0.6976  1.3108
 3638SOL     OW11233   1.116   3.121   3.220 -0.0909 -0.0536  0.0414
 3638SOL    HW111234   1.192   3.186   3.226  1.0513 -1.3437  0.0969
 3638SOL    HW211235   1.039   3.164   3.173  0.4247  1.4960  0.5409
 3639SOL     OW11236   1.963   0.353   4.863  0.2744 -0.3500  0.0399
 3639SOL    HW111237   1.904   0.398   4.796  1.5661 -1.4316 -1.9408
 3639SOL    HW211238   2.009   0.275   4.819  2.5267 -0.0618  1.7131
 3640SOL     OW11239   5.049   4.292   4.642 -0.0783  0.3867  0.3813
 3640SOL    HW111240   4.953   4.293   4.671 -0.5850 -0.1108 -1.1725
 3640SOL    HW211241   5.054   4.291   4.542  1.5489  0.1530  0.4305
 3641SOL     OW11242   4.209   4.486   4.321  0.3027 -0.3035  0.0037
 3641SOL    HW111243   4.198   4.582   4.295  2.5577 -0.2926 -1.1170
 3641SOL    HW211244   4.122   4.439   4.310 -0.3314  1.1262 -1.5240
 3642SOL     OW11245   3.417   0.648   4.547 -0.3614 -0.0377  0.3985
 3642SOL    HW111246   3.478   0.589   4.494  0.3405  1.5710 -0.6717
 3642SOL    HW211247   3.379   0.597   4.623  1.5433 -1.3899  0.5123
 3643SOL     OW11248   2.693   4.341   4.160  0.2442  0.7364  0.0795
 3643SOL    HW111249   2.594   4.323   4.152 -0.1060  2.4435  0.3644
 3643SOL    HW211250   2.737   4.315   4.074 -0.9856  3.0663 -1.3539
 3644SOL     OW11251   2.598   4.319   5.063 -0.0239  0.3960 -0.7857
 3644SOL    HW111252   2.523   4.331   4.997 -1.5508  1.3909  1.0144
 3644SOL    HW211253   2.620   4.222   5.071 -0.1019  0.2184 -2.4189
 3645SOL     OW11254   1.439   0.255   0.315 -0.2886  0.1314 -0.7741
 3645SOL    HW111255   1.386   0.177   0.282 -2.1116  1.3385 -0.8678
 3645SOL    HW211256   1.414   0.337   0.263 -1.4095  1.5741  1.8053
 3646SOL     OW11257   3.376   4.630   4.038 -0.0682 -0.2175  0.4710
 3646SOL    HW111258   3.355   4.716   4.085  1.1338  0.9695 -1.0615
 3646SOL    HW211259   3.292   4.593   3.998 -0.2930  1.4473 -0.7254
 3647SOL     OW11260   3.569   4.044   4.055  0.4012  0.2206  0.1529
 3647SOL    HW111261   3.555   4.038   3.956 -1.0673 -1.5854  0.4093
 3647SOL    HW211262   3.558   3.953   4.096 -0.4941  1.1517  2.1411
 3648SOL     OW11263   2.288   0.745   5.537  0.2343 -0.2149 -0.1279
 3648SOL    HW111264   2.238   0.792   5.464 -0.5313  0.1776  0.6390
 3648SOL    HW211265   2.380   0.722   5.505  0.4690  1.3946 -0.6783
 3649SOL     OW11266   3.734   4.409   3.587 -0.2828  0.4491  0.1824
 3649SOL    HW111267   3.779   4.369   3.507  0.3159 -0.1030  0.7945
 3649SOL    HW211268   3.753   4.354   3.668 -0.3000  1.3984  0.8468
 3650SOL     OW11269   1.666   5.525   5.053 -0.3053 -0.1074 -0.0399
 3650SOL    HW111270   1.746   5.479   5.091 -0.1369  0.1554 -0.0689
 3650SOL    HW211271   1.669   5.622   5.077 -0.2016  0.0621 -0.7085
 3651SOL     OW11272   0.987   4.078   4.354  0.2185  0.2288  0.5569
 3651SOL    HW111273   1.078   4.038   4.364 -0.3589 -0.8201  1.9557
 3651SOL    HW211274   0.927   4.044   4.427 -2.2183 -1.6839 -2.1124
 3652SOL     OW11275   3.165   4.331   4.048 -0.1687  0.0093 -0.3195
 3652SOL    HW111276   3.184   4.234   4.032  0.5792  0.1067 -0.0629
 3652SOL    HW211277   3.216   4.361   4.129 -1.0237  0.4177  0.0796
 3653SOL     OW11278   2.678   3.394   3.450 -0.6284  0.2019 -0.2595
 3653SOL    HW111279   2.751   3.449   3.492 -0.8032  1.5599 -1.6626
 3653SOL    HW211280   2.718   3.335   3.380 -0.6761 -0.2574  0.0939
 3654SOL     OW11281   3.027   3.010   4.771  0.2224  0.0886  0.3992
 3654SOL    HW111282   2.939   2.966   4.790  1.0897 -2.1523 -0.4169
 3654SOL    HW211283   3.095   2.980   4.838  0.4408  1.6777  0.9288
 3655SOL     OW11284   3.168   5.465   2.941 -0.2849  0.0483  0.5071
 3655SOL    HW111285   3.118   5.386   2.977 -1.0951  0.7349  0.9130
 3655SOL    HW211286   3.210   5.515   3.016 -1.9669  1.4728  0.5633
 3656SOL     OW11287   3.496   5.177   3.895 -0.0596  0.2380 -0.1582
 3656SOL    HW111288   3.496   5.117   3.815 -1.3804 -0.5317  0.3839
 3656SOL    HW211289   3.590   5.194   3.924  0.3623 -1.4102 -0.4758
 3657SOL     OW11290   2.374   4.541   4.473  0.5043  0.1521 -0.4041
 3657SOL    HW111291   2.437   4.501   4.538  0.9400  0.6651 -0.5045
 3657SOL    HW211292   2.282   4.504   4.488  0.4309  0.8760  1.0440
 3658SOL     OW11293   3.615   4.954   3.163 -0.2825 -0.6326 -0.0518
 3658SOL    HW111294   3.566   4.870   3.188 -3.5286  1.0467 -0.2618
 3658SOL    HW211295   3.577   4.991   3.078  2.7316 -0.1283 -1.3339
 3659SOL     OW11296   1.401   5.230   4.790  0.0213  0.0048 -0.1498
 3659SOL    HW111297   1.454   5.297   4.739  0.1267  0.9154  1.0956
 3659SOL    HW211298   1.404   5.142   4.743 -0.1977  0.8833 -1.8601
 3660SOL     OW11299   3.049   3.513   3.775  0.1033  0.1002 -0.4102
 3660SOL    HW111300   3.137   3.476   3.744  0.4001  1.0938 -0.8040
 3660SOL    HW211301   3.065   3.591   3.835 -0.5071 -0.4816  0.5247
 3661SOL     OW11302   1.991   5.111   3.839  0.3865 -0.0231 -0.3487
 3661SOL    HW111303   1.941   5.160   3.911  1.1680  0.0818  0.1327
 3661SOL    HW211304   2.088   5.133   3.846  0.3691  0.7308 -2.0265
 3662SOL     OW11305   3.518   2.760   3.534  0.6424  0.2027  0.2480
 3662SOL    HW111306   3.607   2.726   3.566  0.7735 -0.2143 -0.5140
 3662SOL    HW211307   3.480   2.694   3.469 -0.2431  0.3677  0.5925
 3663SOL     OW11308   2.880   5.568   4.818  0.2376 -0.5129 -0.2742
 3663SOL    HW111309   2.884   5.668   4.813 -0.2552 -0.5168 -0.7674
 3663SOL    HW211310   2.970   5.532   4.842  0.6490 -0.0037 -1.0378
 3664SOL     OW11311   4.593   4.479   4.913  0.2045 -0.1534 -0.5274
 3664SOL    HW111312   4.614   4.485   5.010 -0.9699 -2.3526 -0.0643
 3664SOL    HW211313   4.642   4.403   4.872  1.5605  1.4093 -1.9792
 3665SOL     OW11314   3.575   3.419   4.955 -0.3653 -0.0519  0.5562
 3665SOL    HW111315   3.666   3.446   4.986 -0.0853 -2.2556  1.8958
 3665SOL    HW211316   3.584   3.358   4.876 -0.4807 -1.7983  1.8214
 3666SOL     OW11317   2.163   4.815   4.657 -0.3016  0.5665 -0.2572
 3666SOL    HW111318   2.124   4.724   4.643 -0.1143  0.4210  0.1447
 3666SOL    HW211319   2.234   4.832   4.589  1.2242 -0.4892  1.0132
 3667SOL     OW11320   3.464   3.867   4.693  0.0963  0.5906  0.2187
 3667SOL    HW111321   3.479   3.792   4.757  2.6922 -0.1570 -1.1088
 3667SOL    HW211322   3.383   3.849   4.638 -0.8523  0.1270  1.7192
 3668SOL     OW11323   0.878   3.660   3.142  0.1775 -0.5233  0.5602
 3668SOL    HW111324   0.791   3.672   3.093 -0.5301 -1.0430  1.6437
 3668SOL    HW211325   0.915   3.750   3.167 -0.7536 -0.3222  1.2729
 3669SOL     OW11326   2.610   3.961   4.687  0.6397  0.4985  0.5270
 3669SOL    HW111327   2.564   4.049   4.694 -0.5546  0.1373 -1.7411
 3669SOL    HW211328   2.654   3.954   4.598  1.0771 -1.0493  0.8397
 3670SOL     OW11329   3.277   2.805   3.917  0.1513 -0.3550  0.4980
 3670SOL    HW111330   3.220   2.764   3.987 -0.9466  0.0097 -0.1598
 3670SOL    HW211331   3.225   2.816   3.833  0.9631  0.6792  0.0946
 3671SOL     OW11332   2.512   3.857   3.377 -0.1051 -0.1681 -0.3496
 3671SOL    HW111333   2.461   3.924   3.430 -1.2896 -1.5123  0.2640
 3671SOL    HW211334   2.467   3.844   3.288 -0.2526 -0.6062 -0.2129
 3672SOL     OW11335   3.380   5.393   5.145  0.0661 -0.4180  0.1483
 3672SOL    HW111336   3.454   5.387   5.078  0.9827 -0.8133  1.1685
 3672SOL    HW211337   3.374   5.307   5.195 -0.2358  0.0758  0.9697
 3673SOL     OW11338   3.768   5.591   3.673 -0.5563 -0.2532  0.4172
 3673SOL    HW111339   3.713   5.515   3.636 -0.3876 -0.4760  0.6246
 3673SOL    HW211340   3.753   5.598   3.771  0.5587 -0.9675  0.6603
 3674SOL     OW11341   3.691   4.410   5.152  0.4412  0.1178 -0.2088
 3674SOL    HW111342   3.720   4.498   5.115  0.6620  0.2280  0.2154
 3674SOL    HW211343   3.621   4.425   5.222 -0.2648 -0.1128 -0.8486
 3675SOL     OW11344   3.122   5.445   4.938 -0.6046 -0.2642  0.1237
 3675SOL    HW111345   3.174   5.361   4.954 -0.4730 -0.3360 -0.6780
 3675SOL    HW211346   3.184   5.524   4.944 -0.5711 -0.2841  0.0307
 3676SOL     OW11347   1.001   4.769   0.385  0.0490 -0.2338 -0.0284
 3676SOL    HW111348   0.907   4.773   0.418  0.2738  0.6607  0.5468
 3676SOL    HW211349   1.042   4.682   0.411 -0.4401 -0.3939  0.2162
 3677SOL     OW11350   3.195   3.844   4.546 -0.2925 -0.1981 -0.3421
 3677SOL    HW111351   3.170   3.777   4.615  1.3193  0.0943  0.5672
 3677SOL    HW211352   3.140   3.927   4.558  0.2932  0.0262  0.9074
 3678SOL     OW11353   3.146   3.311   4.032 -0.1197  0.6333 -0.2386
 3678SOL    HW111354   3.156   3.319   4.131 -0.0921 -3.2647  0.2424
 3678SOL    HW211355   3.050   3.323   4.007 -0.1748  1.3234  0.2746
 3679SOL     OW11356   2.190   3.102   4.731 -0.3493 -0.7871 -0.1678
 3679SOL    HW111357   2.203   3.039   4.808  0.9108 -0.0092  0.2872
 3679SOL    HW211358   2.236   3.066   4.650  0.2556 -0.5216  0.0554
 3680SOL     OW11359   3.017   4.954   4.001  0.2493 -0.1786 -0.7067
 3680SOL    HW111360   2.945   4.941   4.069  0.8990  1.7796  0.4356
 3680SOL    HW211361   3.062   4.867   3.983  0.9829 -0.5799  2.4656
 3681SOL     OW11362   2.906   3.565   3.511 -0.4975  0.2131 -0.4961
 3681SOL    HW111363   2.936   3.555   3.606 -0.3320 -1.1308 -0.6684
 3681SOL    HW211364   2.984   3.551   3.450 -0.8926 -0.4127 -0.8666
 3682SOL     OW11365   2.431   4.827   4.166  0.2130  0.8219 -0.9676
 3682SOL    HW111366   2.458   4.908   4.114 -1.1471  0.9283 -1.5281
 3682SOL    HW211367   2.447   4.843   4.263  1.4898  1.1262 -1.2010
 3683SOL     OW11368   2.513   5.048   4.004  0.2296 -0.1839  0.6410
 3683SOL    HW111369   2.586   5.017   3.943  0.5859  0.5931  0.6630
 3683SOL    HW211370   2.552   5.083   4.089 -0.1830  0.0376  0.7458
 3684SOL     OW11371   3.300   3.996   4.252 -0.0348 -0.0159 -0.1908
 3684SOL    HW111372   3.371   4.066   4.245  0.3863 -0.4805 -0.7275
 3684SOL    HW211373   3.256   4.000   4.341  0.0942  0.8280 -0.1648
 3685SOL     OW11374   2.955   4.798   4.487 -0.0304  0.4591  0.2189
 3685SOL    HW111375   3.055   4.787   4.484 -0.1433 -0.4934 -0.2454
 3685SOL    HW211376   2.923   4.785   4.581  0.1227 -0.7739  0.1126
 3686SOL     OW11377   4.122   4.918   4.997  0.3620 -0.0443 -0.3592
 3686SOL    HW111378   4.063   4.853   5.045  1.0337 -0.1593  0.3395
 3686SOL    HW211379   4.081   5.009   5.000  0.1161 -0.1631 -0.0822
 3687SOL     OW11380   2.155   5.247   0.035  0.3585 -0.0066  0.4531
 3687SOL    HW111381   2.208   5.313  -0.018  1.8095 -0.4693  1.2858
 3687SOL    HW211382   2.186   5.155   0.014 -0.2319 -0.3027  0.8542
 3688SOL     OW11383   2.398   3.626   4.302  0.6494  0.3340 -0.7280
 3688SOL    HW111384   2.327   3.568   4.261  1.0278  1.1240 -2.5810
 3688SOL    HW211385   2.367   3.657   4.392 -0.8157 -0.3386 -0.9659
 3689SOL     OW11386   2.015   0.227   5.343  0.3570 -0.7067  0.7311
 3689SOL    HW111387   2.044   0.321   5.357  1.8132 -1.4064  2.8148
 3689SOL    HW211388   2.006   0.209   5.245 -1.0178  1.8658  0.3085
 3690SOL     OW11389   3.194   3.643   4.348 -0.3750 -0.4999 -0.0646
 3690SOL    HW111390   3.117   3.604   4.398  0.8555 -1.0642  1.5094
 3690SOL    HW211391   3.216   3.733   4.385  0.3101 -0.7563  0.1646
 3691SOL     OW11392   2.259   4.471   3.250  0.0109  0.5973  0.3905
 3691SOL    HW111393   2.221   4.525   3.175  0.9760 -2.6707 -2.7192
 3691SOL    HW211394   2.185   4.434   3.305 -0.9366  0.2862 -1.0592
 3692SOL     OW11395   4.477   4.533   3.936 -0.0498  0.2751 -0.2328
 3692SOL    HW111396   4.484   4.437   3.962 -1.1095  0.2477 -0.0027
 3692SOL    HW211397   4.381   4.562   3.942  0.1713  1.1816 -0.8833
 3693SOL     OW11398   3.036   2.233   5.435 -0.1882 -0.5126  0.8059
 3693SOL    HW111399   3.084   2.320   5.445  0.2076 -0.8688  2.2481
 3693SOL    HW211400   2.943   2.242   5.469 -0.1162 -0.6720  1.0502
 3694SOL     OW11401   2.878   0.254   3.207 -0.1687 -0.1005  0.5671
 3694SOL    HW111402   2.789   0.297   3.192 -0.7409 -1.1029  1.0054
 3694SOL    HW211403   2.868   0.155   3.207  0.8725 -0.2231  1.0993
 3695SOL     OW11404   3.700   4.008   4.598  0.1556 -0.1286  0.6979
 3695SOL    HW111405   3.616   3.960   4.619  1.2562 -1.7826  1.5016
 3695SOL    HW211406   3.708   4.090   4.656  0.0912 -1.1291  2.1597
 3696SOL     OW11407   4.155   1.550   4.818  0.3740  0.1449  0.4473
 3696SOL    HW111408   4.116   1.460   4.833 -0.3863  0.6150  1.4147
 3696SOL    HW211409   4.249   1.553   4.852  0.6720 -0.4912 -0.2960
 3697SOL     OW11410   2.560   0.468   3.811  0.3584  0.3489  0.1464
 3697SOL    HW111411   2.507   0.542   3.854 -0.7376  0.9988 -2.1322
 3697SOL    HW211412   2.626   0.508   3.747  0.9804 -0.5917  0.1893
 3698SOL     OW11413   1.480   4.959   5.392  0.5694  0.6530  0.2988
 3698SOL    HW111414   1.456   5.030   5.458  0.2296 -0.7695  1.7736
 3698SOL    HW211415   1.554   4.903   5.429 -0.6119 -1.0741  0.1531
 3699SOL     OW11416   2.740   3.567   3.098  0.1114  0.2425  0.3473
 3699SOL    HW111417   2.723   3.608   3.187 -0.3186 -0.5452  0.6414
 3699SOL    HW211418   2.658   3.574   3.041 -0.3087 -1.0376  0.7491
 3700SOL     OW11419   2.271   5.064   3.577  0.2998 -0.0942 -0.1111
 3700SOL    HW111420   2.344   5.115   3.532  0.3497  1.0574  1.2005
 3700SOL    HW211421   2.248   5.108   3.664 -3.3590  0.7743 -1.3434
 3701SOL     OW11422   3.533   4.240   4.243 -0.6650 -0.3589  0.9041
 3701SOL    HW111423   3.571   4.327   4.211  0.4463 -1.1560 -0.0168
 3701SOL    HW211424   3.562   4.166   4.182 -2.9671 -1.1637  0.6901
 3702SOL     OW11425   2.598   4.594   4.283  0.1187 -0.0396  0.7363
 3702SOL    HW111426   2.511   4.580   4.331  0.7616 -1.7948  1.4916
 3702SOL    HW211427   2.589   4.563   4.189 -0.4813  1.1961  0.3722
 3703SOL     OW11428   3.216   5.595   4.084 -0.2373 -0.2488  0.8294
 3703SOL    HW111429   3.262   5.585   3.996  0.4875  1.3079  0.9962
 3703SOL    HW211430   3.119   5.574   4.074 -0.0318 -0.7489 -0.1772
 3704SOL     OW11431   3.087   1.174   0.457  0.3473  0.0917 -0.6113
 3704SOL    HW111432   3.055   1.091   0.504 -0.1926 -0.0640 -1.2254
 3704SOL    HW211433   3.142   1.229   0.519  0.9806 -0.8839 -0.2872
 3705SOL     OW11434   3.177   4.439   0.948 -0.2628 -0.0548  0.2322
 3705SOL    HW111435   3.188   4.407   0.854 -2.1251 -0.5048  0.1187
 3705SOL    HW211436   3.097   4.395   0.988  0.3273  0.3662  1.9408
 3706SOL     OW11437   3.420   0.693   1.195 -0.1795 -0.4265 -0.0191
 3706SOL    HW111438   3.472   0.675   1.111 -0.7912 -1.6022 -0.1714
 3706SOL    HW211439   3.338   0.636   1.197  0.4442 -1.3626  1.9387
 3707SOL     OW11440   3.032   1.316   1.990  0.1969 -0.5541 -0.2917
 3707SOL    HW111441   3.027   1.410   2.024 -0.0652  0.1542 -2.1821
 3707SOL    HW211442   3.123   1.279   2.009  0.8856  0.6959 -1.0047
 3708SOL     OW11443   5.245   0.200   5.208  0.2843  0.5724 -0.2985
 3708SOL    HW111444   5.331   0.195   5.259 -0.7220  0.7501  1.5354
 3708SOL    HW211445   5.220   0.296   5.194  1.3837  0.5755 -2.7337
 3709SOL     OW11446   4.717   0.907   0.597  0.4304 -0.1114 -0.1312
 3709SOL    HW111447   4.713   0.871   0.690  3.5968 -0.7741 -0.1415
 3709SOL    HW211448   4.647   0.864   0.541 -1.1155 -0.1681  1.7549
 3710SOL     OW11449   4.232   1.221   1.209 -0.3442 -0.0303  0.5004
 3710SOL    HW111450   4.327   1.208   1.181 -0.8559 -0.2047 -1.2779
 3710SOL    HW211451   4.195   1.136   1.245 -0.7414 -0.9040 -1.8182
 3711SOL     OW11452   4.412   0.696   1.502 -0.5183  0.1418  1.1114
 3711SOL    HW111453   4.368   0.654   1.423 -0.9378  0.1871  1.3181
 3711SOL    HW211454   4.343   0.718   1.571 -0.4944  2.2697  0.5280
 3712SOL     OW11455   4.802   0.447   2.859  0.3777 -0.1783 -0.2758
 3712SOL    HW111456   4.720   0.448   2.802  0.3002 -1.2350 -0.2073
 3712SOL    HW211457   4.879   0.411   2.805  0.6431  0.1560 -0.1284
 3713SOL     OW11458   4.145   0.389   5.467  0.0090 -0.0935 -0.8105
 3713SOL    HW111459   4.215   0.457   5.449  1.1094 -0.9559  0.1270
 3713SOL    HW211460   4.174   0.328   5.540 -1.0989 -1.3553 -1.3649
 3714SOL     OW11461   2.628   0.747   1.246 -0.3897  0.5194 -0.6788
 3714SOL    HW111462   2.568   0.731   1.168 -0.9940 -3.1027  0.3214
 3714SOL    HW211463   2.686   0.667   1.260  1.1631  1.9073  1.3579
 3715SOL     OW11464   4.529   1.802   0.208  0.0387  0.8143  0.2726
 3715SOL    HW111465   4.613   1.850   0.235  0.0599  1.2093 -0.4635
 3715SOL    HW211466   4.451   1.841   0.256  0.0795  1.4736 -0.1888
 3716SOL     OW11467   4.550   0.379   1.811  0.1979 -0.1468  0.0264
 3716SOL    HW111468   4.537   0.451   1.743 -0.0882 -0.0642  0.1685
 3716SOL    HW211469   4.518   0.410   1.900  1.4597  0.0945  0.4170
 3717SOL     OW11470   3.587   4.968   1.474  0.4827 -0.3944 -0.5531
 3717SOL    HW111471   3.568   4.873   1.447 -0.4274 -0.1050 -0.9574
 3717SOL    HW211472   3.595   5.024   1.392 -1.9148  0.4254 -0.3040
 3718SOL     OW11473   0.642   0.913   1.108 -0.5694  0.1088 -0.0964
 3718SOL    HW111474   0.631   0.876   1.016 -2.7166  0.9926 -0.2684
 3718SOL    HW211475   0.698   0.996   1.104 -0.5290  0.0606 -0.5877
 3719SOL     OW11476   4.635   1.477   5.035  0.6287  0.6767 -0.2661
 3719SOL    HW111477   4.619   1.438   5.126 -0.4948  0.9961 -0.3127
 3719SOL    HW211478   4.712   1.429   4.992  1.4342  0.7891  0.9955
 3720SOL     OW11479   4.886   1.462   0.053  0.2748 -0.1477 -0.5391
 3720SOL    HW111480   4.894   1.516   0.137  1.3600 -0.2367 -0.5782
 3720SOL    HW211481   4.857   1.521  -0.022  0.6159  0.2070 -0.3928
 3721SOL     OW11482   4.122   1.357   0.210  0.9905  0.1535 -0.6966
 3721SOL    HW111483   4.210   1.384   0.248  0.6639  0.2105  0.0502
 3721SOL    HW211484   4.107   1.402   0.122  1.2489  0.9576 -0.3295
 3722SOL     OW11485   4.609   1.148   0.480  0.0287  0.7199 -0.6229
 3722SOL    HW111486   4.601   1.120   0.384 -0.9388  0.1680 -0.3920
 3722SOL    HW211487   4.605   1.067   0.538 -0.2076  1.1235 -0.0717
 3723SOL     OW11488   4.826   2.348   1.668  0.0713  0.3055  0.0810
 3723SOL    HW111489   4.758   2.368   1.738  0.8885  1.1411  0.6596
 3723SOL    HW211490   4.780   2.336   1.580 -0.8162  1.0477  0.4221
 3724SOL     OW11491   3.720   0.099   5.114 -0.0422  0.3374  0.0623
 3724SOL    HW111492   3.732   0.194   5.142  0.4941  0.3140 -0.0626
 3724SOL    HW211493   3.638   0.061   5.156 -0.5493  1.0135 -0.3111
 3725SOL     OW11494   0.159   4.696   1.208  0.0399  0.0009 -0.9021
 3725SOL    HW111495   0.076   4.676   1.156  0.8360 -0.1273 -2.1825
 3725SOL    HW211496   0.232   4.634   1.179  0.5585  0.0412  0.2791
 3726SOL     OW11497   5.498   1.070   0.207 -0.3326 -0.1364 -0.1916
 3726SOL    HW111498   5.444   1.072   0.123  1.0966  1.0841 -1.1283
 3726SOL    HW211499   5.458   1.004   0.270 -2.2081 -0.1218 -1.2924
 3727SOL     OW11500   5.453   0.402   0.705  0.4271  0.1846  0.4407
 3727SOL    HW111501   5.544   0.376   0.673  0.0202 -0.2775 -0.3791
 3727SOL    HW211502   5.408   0.322   0.745 -0.6465 -0.3359 -1.6528
 3728SOL     OW11503   4.925   2.076   5.449  0.6824 -0.4798  0.1548
 3728SOL    HW111504   4.913   2.154   5.388 -0.4724 -0.2326  0.6872
 3728SOL    HW211505   4.884   1.995   5.408 -0.3310 -0.2563  0.7035
 3729SOL     OW11506   0.260   1.811   1.688 -0.0645 -0.0292 -0.4640
 3729SOL    HW111507   0.291   1.903   1.666 -0.8732  0.2720 -0.3982
 3729SOL    HW211508   0.273   1.751   1.609 -0.6827  0.4495 -0.9406
 3730SOL     OW11509   5.493   0.874   5.491  0.0743  0.2558  0.4216
 3730SOL    HW111510   5.535   0.849   5.578 -0.2929  1.0109  0.8293
 3730SOL    HW211511   5.441   0.959   5.503  0.6931  0.8235 -0.7180
 3731SOL     OW11512   2.066   0.276   2.655  0.3122  0.5477  0.3111
 3731SOL    HW111513   2.043   0.243   2.746 -1.6318  0.9118 -0.0049
 3731SOL    HW211514   1.989   0.327   2.617  0.8156 -0.1657 -1.8208
 3732SOL     OW11515   4.685   1.731   5.135  0.2545  0.1021 -0.5340
 3732SOL    HW111516   4.622   1.731   5.213  0.2365  0.2318 -0.5473
 3732SOL    HW211517   4.688   1.640   5.095 -0.7102  0.3223 -1.1558
 3733SOL     OW11518   5.440   1.479   0.756 -0.3671  0.2412  0.3524
 3733SOL    HW111519   5.407   1.544   0.824 -0.4320 -1.8642  2.4686
 3733SOL    HW211520   5.531   1.446   0.783  0.1396  0.2190 -1.2527
 3734SOL     OW11521   5.031   5.588   1.611 -0.5475  0.1317  0.1602
 3734SOL    HW111522   5.047   5.525   1.687 -0.6033  1.7635  1.5817
 3734SOL    HW211523   5.117   5.602   1.561 -0.5525 -1.1031 -0.2356
 3735SOL     OW11524   3.254   0.790   2.004 -0.4920 -0.3298 -0.3617
 3735SOL    HW111525   3.236   0.814   2.099 -1.7552 -1.9515 -0.1502
 3735SOL    HW211526   3.178   0.821   1.947 -0.4342 -0.6405 -0.6114
 3736SOL     OW11527   4.174   0.888   4.927 -0.5414  0.2879 -0.2927
 3736SOL    HW111528   4.257   0.844   4.963 -0.3889  0.4528 -0.4421
 3736SOL    HW211529   4.095   0.833   4.953 -0.4657  0.5679  0.5697
 3737SOL     OW11530   0.046   1.845   5.174  0.2494 -0.0480  0.9440
 3737SOL    HW111531  -0.039   1.808   5.137  1.0958 -1.1238  0.0108
 3737SOL    HW211532   0.034   1.943   5.193 -1.3768 -0.3009  1.4345
 3738SOL     OW11533   4.132   5.218   1.176 -0.0345 -0.1255 -0.1507
 3738SOL    HW111534   4.134   5.214   1.076 -0.1258  0.4139 -0.1794
 3738SOL    HW211535   4.219   5.186   1.213 -0.1445 -0.7084 -0.3851
 3739SOL     OW11536   5.174   1.863   0.332  0.0953  0.4070  0.1921
 3739SOL    HW111537   5.220   1.880   0.245  1.3119 -0.9193  0.5398
 3739SOL    HW211538   5.160   1.765   0.344 -0.9828  0.6423  1.0483
 3740SOL     OW11539   0.328   1.032   0.481 -0.0311  0.3856  0.7828
 3740SOL    HW111540   0.421   1.001   0.462  0.8091  3.8784 -1.6866
 3740SOL    HW211541   0.265   0.997   0.411  0.7450  3.0580 -1.4329
 3741SOL     OW11542   0.691   1.463   0.609  0.2167 -0.3386 -0.2932
 3741SOL    HW111543   0.716   1.378   0.564 -0.5266 -0.3219 -0.7639
 3741SOL    HW211544   0.685   1.449   0.708  0.9511 -0.6111 -0.2861
 3742SOL     OW11545   4.244   1.465   0.849  0.2956 -0.0277 -0.2085
 3742SOL    HW111546   4.314   1.433   0.784 -0.1591 -3.3499  0.7728
 3742SOL    HW211547   4.158   1.481   0.800  1.3497  3.1570 -1.2626
 3743SOL     OW11548   5.179   1.932   5.417  0.3679 -0.8755  0.9403
 3743SOL    HW111549   5.212   2.021   5.386  0.9488 -0.6752  2.0895
 3743SOL    HW211550   5.084   1.941   5.447  1.0628 -0.1215  3.0713
 3744SOL     OW11551   5.411   0.959   1.627 -0.2373  0.4923  0.0563
 3744SOL    HW111552   5.449   0.960   1.719 -2.0507 -0.1600  0.8504
 3744SOL    HW211553   5.410   0.866   1.591  1.1027  0.8287 -0.9366
 3745SOL     OW11554   0.363   1.314   1.358 -0.2086 -0.1096  0.0370
 3745SOL    HW111555   0.461   1.308   1.380 -0.0606  0.5966 -0.3929
 3745SOL    HW211556   0.346   1.269   1.270 -0.1127  0.5253 -0.3131
 3746SOL     OW11557   4.070   1.760   0.446 -0.1313  0.2736 -0.0278
 3746SOL    HW111558   4.010   1.834   0.478  0.1685  0.5903 -0.1845
 3746SOL    HW211559   4.160   1.770   0.489  0.3530  0.8379 -1.1326
 3747SOL     OW11560   4.645   0.467   1.057  0.5960  0.2858 -0.0582
 3747SOL    HW111561   4.581   0.535   1.090  0.2212 -0.6223  1.1589
 3747SOL    HW211562   4.644   0.466   0.957 -1.6609 -0.0447 -0.0838
 3748SOL     OW11563   4.775   0.494   1.315 -0.0873 -0.2158 -0.0769
 3748SOL    HW111564   4.870   0.464   1.302  0.0997  0.7673 -1.1959
 3748SOL    HW211565   4.721   0.470   1.235 -0.7150 -0.4490  0.4048
 3749SOL     OW11566   3.174   0.436   1.476 -0.7701  0.2554  0.3712
 3749SOL    HW111567   3.185   0.337   1.476 -0.5811  0.2459  1.9157
 3749SOL    HW211568   3.198   0.473   1.386  1.7707 -0.8203  0.5256
 3750SOL     OW11569   4.128   2.728   1.739 -0.0396 -0.3394  0.2501
 3750SOL    HW111570   4.095   2.815   1.776  0.0493 -0.2159  0.0434
 3750SOL    HW211571   4.225   2.737   1.716 -0.6773  0.4359 -2.4945
 3751SOL     OW11572   4.138   0.603   1.646  0.2013 -0.0902  0.5862
 3751SOL    HW111573   4.062   0.665   1.667  0.9476  1.2193 -0.3607
 3751SOL    HW211574   4.117   0.553   1.562  0.7669  1.0475 -0.2730
 3752SOL     OW11575   0.298   4.468   1.119 -0.5034 -0.2653 -0.0394
 3752SOL    HW111576   0.352   4.460   1.035  2.3990 -1.5731  1.7761
 3752SOL    HW211577   0.267   4.378   1.148 -2.0339  0.2471  0.0019
 3753SOL     OW11578   5.033   1.409   4.414  0.2717  0.0082  0.2529
 3753SOL    HW111579   5.008   1.339   4.481  0.5417  0.5437  0.9194
 3753SOL    HW211580   4.955   1.426   4.354 -0.3373  0.2754  1.0986
 3754SOL     OW11581   5.094   0.312   1.616  0.4390  0.3543  0.2446
 3754SOL    HW111582   5.122   0.217   1.618 -0.1619  0.1183 -1.2684
 3754SOL    HW211583   5.005   0.322   1.662 -0.1200 -0.0673 -0.7105
 3755SOL     OW11584   5.010   2.053   0.427 -0.6505  0.1927  0.6159
 3755SOL    HW111585   5.017   2.070   0.525  0.4534  0.3129  0.5299
 3755SOL    HW211586   5.079   1.986   0.400 -1.6039 -0.6096  0.0854
 3756SOL     OW11587   4.436   2.868   1.170  0.1235  0.0050 -0.6167
 3756SOL    HW111588   4.348   2.873   1.216  0.8115 -0.5583  0.8496
 3756SOL    HW211589   4.466   2.960   1.144 -1.4952  0.0883 -2.4323
 3757SOL     OW11590   4.918   1.054   0.475  0.1405 -0.0712  0.0030
 3757SOL    HW111591   4.867   0.982   0.522  0.9610 -0.3641  0.4743
 3757SOL    HW211592   4.891   1.144   0.512 -1.8544  0.0035 -1.5045
 3758SOL     OW11593   5.012   2.421   2.018 -0.2101  0.0775 -0.4107
 3758SOL    HW111594   5.048   2.442   2.108 -0.3379  1.7099 -0.7095
 3758SOL    HW211595   5.053   2.336   1.984  0.0117 -0.4303  1.0582
 3759SOL     OW11596   4.485   1.542   1.438 -0.2362 -0.2913 -0.5538
 3759SOL    HW111597   4.443   1.590   1.361 -1.0111 -1.3358 -0.7972
 3759SOL    HW211598   4.421   1.475   1.474  0.2719 -0.0877  0.7577
 3760SOL     OW11599   4.856   0.706   1.005  0.2974 -0.1179  0.3281
 3760SOL    HW111600   4.828   0.634   1.068  2.1424 -1.1172  0.0587
 3760SOL    HW211601   4.775   0.756   0.974 -0.8575 -1.0514  1.7266
 3761SOL     OW11602   3.807   5.291   2.257 -0.0690 -0.2103 -0.1883
 3761SOL    HW111603   3.773   5.198   2.269 -2.2179  0.4990 -0.3597
 3761SOL    HW211604   3.749   5.354   2.308 -0.2143  1.2928 -2.0927
 3762SOL     OW11605   4.295   0.561   4.852 -0.0017  0.1822 -0.0579
 3762SOL    HW111606   4.279   0.462   4.859  0.7245  0.0541 -0.0977
 3762SOL    HW211607   4.268   0.592   4.761 -0.3424  0.0413 -0.0060
 3763SOL     OW11608   4.402   5.303   1.792  0.7338 -0.0920 -0.1261
 3763SOL    HW111609   4.377   5.248   1.872 -1.3587  3.1534  1.6896
 3763SOL    HW211610   4.320   5.329   1.742  1.8215 -0.0566 -1.9990
 3764SOL     OW11611   0.478   1.365   0.260 -0.0162  0.6262  0.0735
 3764SOL    HW111612   0.382   1.352   0.283  0.1397  0.2761  0.5317
 3764SOL    HW211613   0.496   1.327   0.169 -0.0170 -0.5385  0.5486
 3765SOL     OW11614   4.176   2.720   0.368  0.1762 -0.0628 -0.4699
 3765SOL    HW111615   4.223   2.633   0.352  0.1230 -1.0566  3.5705
 3765SOL    HW211616   4.241   2.787   0.404 -0.6141 -0.0806  1.0973
 3766SOL     OW11617   4.239   1.121   0.255  0.0496  0.2478  0.0028
 3766SOL    HW111618   4.185   1.205   0.252 -2.4648 -1.0813  2.6256
 3766SOL    HW211619   4.180   1.043   0.234  1.4348 -1.1105  0.9600
 3767SOL     OW11620   4.454   1.546   0.492 -0.0997  0.0968 -0.1045
 3767SOL    HW111621   4.473   1.473   0.558  1.9565  0.2252 -0.4880
 3767SOL    HW211622   4.430   1.630   0.541  0.3984 -0.0813  0.4627
 3768SOL     OW11623   5.190   2.321   1.219  0.0020 -0.3035  0.3602
 3768SOL    HW111624   5.171   2.388   1.291 -0.5732  0.3226 -0.3533
 3768SOL    HW211625   5.279   2.278   1.235  0.1478  0.2642  1.1001
 3769SOL     OW11626   5.279   5.058   1.182 -0.1622 -0.2281  0.2428
 3769SOL    HW111627   5.372   5.096   1.180 -0.3461  0.1988 -0.5025
 3769SOL    HW211628   5.226   5.096   1.106 -0.7824 -0.8960  0.3350
 3770SOL     OW11629   5.237   1.364   1.235  0.2289 -0.0500  0.1835
 3770SOL    HW111630   5.317   1.402   1.189 -0.1555 -0.2132 -0.6533
 3770SOL    HW211631   5.263   1.281   1.284  1.0134  1.1034  1.7983
 3771SOL     OW11632   3.332   5.124   5.254 -0.0067 -0.2709  0.2797
 3771SOL    HW111633   3.316   5.029   5.229 -0.7004 -0.2102  0.4560
 3771SOL    HW211634   3.399   5.128   5.328 -2.0853 -0.8705  2.3315
 3772SOL     OW11635   4.270   0.598   1.289 -0.6972  0.6466 -0.5924
 3772SOL    HW111636   4.308   0.558   1.206 -0.3430  0.8881 -0.5469
 3772SOL    HW211637   4.175   0.567   1.300 -0.3164 -0.4935 -0.3517
 3773SOL     OW11638   4.840   1.858   2.166 -0.1819  0.0001  0.0941
 3773SOL    HW111639   4.838   1.801   2.084  0.7577  0.2736 -0.1262
 3773SOL    HW211640   4.860   1.953   2.141 -1.4197  0.3925  0.4887
 3774SOL     OW11641   0.374   1.109   0.892  0.2360  0.3473 -0.4375
 3774SOL    HW111642   0.341   1.122   0.985  1.6586  2.4659 -0.1518
 3774SOL    HW211643   0.446   1.040   0.890  0.7506  0.8629  0.1783
 3775SOL     OW11644   3.451   0.291   1.247 -0.0391 -0.5885  0.3350
 3775SOL    HW111645   3.509   0.371   1.263  1.4271 -1.4831 -0.3204
 3775SOL    HW211646   3.438   0.279   1.148 -1.5898 -0.2697  0.4640
 3776SOL     OW11647   5.232   5.268   0.669  0.6260  0.3131 -0.4157
 3776SOL    HW111648   5.136   5.275   0.642  0.5363  2.1054  0.2682
 3776SOL    HW211649   5.240   5.279   0.768  1.4327 -1.1953 -0.2799
 3777SOL     OW11650   4.999   3.755   0.664  0.0771 -0.4357 -0.4592
 3777SOL    HW111651   4.993   3.757   0.764 -1.8831 -0.6936 -0.5412
 3777SOL    HW211652   5.086   3.713   0.637 -0.4734 -2.8497  1.1554
 3778SOL     OW11653   0.981   1.156   0.600 -0.2663 -0.2276  0.6203
 3778SOL    HW111654   0.908   1.136   0.534  1.3390 -0.2744 -1.2142
 3778SOL    HW211655   0.992   1.255   0.609 -1.4733 -0.1850  2.0150
 3779SOL     OW11656   4.244   0.112   1.617 -1.0492  0.0855 -0.0411
 3779SOL    HW111657   4.344   0.107   1.618 -1.0786 -0.9915 -0.8312
 3779SOL    HW211658   4.213   0.159   1.700  0.0234 -1.7651  1.5070
 3780SOL     OW11659   4.951   0.710   0.500  0.4111  0.3038 -0.7977
 3780SOL    HW111660   4.887   0.776   0.541 -0.1137 -0.0439 -1.0427
 3780SOL    HW211661   4.953   0.724   0.401  0.4024  0.0385 -0.8342
 3781SOL     OW11662   5.026   5.430   2.429 -0.2853 -0.3751 -0.3633
 3781SOL    HW111663   5.071   5.394   2.511  1.4460  0.7542 -0.7719
 3781SOL    HW211664   5.025   5.361   2.358 -0.6012 -0.9206  0.1604
 3782SOL     OW11665   3.687   0.548   0.603 -0.7467 -0.2361  0.4499
 3782SOL    HW111666   3.682   0.526   0.506  2.5422  2.0142 -0.3720
 3782SOL    HW211667   3.628   0.626   0.624 -0.5133  0.0720 -0.0337
 3783SOL     OW11668   5.040   5.006   1.438  0.2367  0.1827  0.2683
 3783SOL    HW111669   5.072   4.926   1.490  0.4438  0.6719  0.8986
 3783SOL    HW211670   5.105   5.081   1.449 -0.6999  0.9192  0.8850
 3784SOL     OW11671   4.179   2.459   1.074  0.2271  0.5227  0.2080
 3784SOL    HW111672   4.214   2.485   0.984  0.7617 -1.2372 -0.1354
 3784SOL    HW211673   4.157   2.361   1.074  0.2246  0.4946  1.9875
 3785SOL     OW11674   5.384   0.165   0.818  0.2898 -0.3818  0.4728
 3785SOL    HW111675   5.410   0.069   0.816  0.9448 -0.2004 -0.3726
 3785SOL    HW211676   5.286   0.173   0.836  0.4565 -1.1483  1.8397
 3786SOL     OW11677   4.377   5.070   0.896  0.2278  0.2096  0.6854
 3786SOL    HW111678   4.334   4.994   0.944  0.3716 -0.4934 -0.2470
 3786SOL    HW211679   4.463   5.094   0.941  0.4048 -0.4902  0.7372
 3787SOL     OW11680   4.940   5.550   0.725 -0.2154 -0.3732  0.4877
 3787SOL    HW111681   4.863   5.526   0.666 -1.8456 -2.1195  3.0708
 3787SOL    HW211682   4.913   5.626   0.785  1.2090  1.0284 -0.5757
 3788SOL     OW11683   4.640   4.888   0.273  0.6374  0.3684 -0.4500
 3788SOL    HW111684   4.583   4.964   0.241  2.0989  0.8303 -2.1962
 3788SOL    HW211685   4.605   4.854   0.360 -0.3599  2.7416  0.1764
 3789SOL     OW11686   5.286   0.536   0.514  0.0601 -0.5625  0.0964
 3789SOL    HW111687   5.339   0.498   0.590 -0.1594  1.8542  1.5998
 3789SOL    HW211688   5.243   0.622   0.544  0.9807  1.1841 -3.1240
 3790SOL     OW11689   0.210   1.931   0.688 -0.3219  0.2908 -0.2064
 3790SOL    HW111690   0.172   2.022   0.673 -0.6823  0.3833  1.1730
 3790SOL    HW211691   0.136   1.867   0.709  0.0460 -0.0812 -0.0356
 3791SOL     OW11692   0.438   1.791   1.447  0.3290 -0.3016 -0.2888
 3791SOL    HW111693   0.505   1.784   1.521  0.3046 -0.3517 -0.2715
 3791SOL    HW211694   0.399   1.701   1.428 -0.7956 -0.0446  0.6841
 3792SOL     OW11695   0.146   1.260   0.532 -0.7264 -0.2290 -0.1088
 3792SOL    HW111696   0.111   1.246   0.625  2.1427  0.3389  1.1718
 3792SOL    HW211697   0.221   1.195   0.515  1.5407  2.3036 -0.3957
 3793SOL     OW11698   4.601   0.240   1.265 -0.0928  0.0465 -0.0299
 3793SOL    HW111699   4.649   0.303   1.326  0.4959 -1.6098  1.3246
 3793SOL    HW211700   4.508   0.273   1.249 -0.3809  0.4122  2.0545
 3794SOL     OW11701   4.987   1.072   0.165 -0.1840  0.3290  0.0156
 3794SOL    HW111702   4.954   0.995   0.111 -0.3465 -0.2760  0.9556
 3794SOL    HW211703   4.983   1.049   0.262  0.1565  1.3726  0.2920
 3795SOL     OW11704   3.782   4.827   0.986  0.1625 -0.3500 -0.1180
 3795SOL    HW111705   3.722   4.896   0.946  0.5233 -0.1156 -0.2611
 3795SOL    HW211706   3.877   4.847   0.961  0.2888 -0.7825  0.0087
 3796SOL     OW11707   4.278   5.184   0.432  0.0469 -0.0626  0.4605
 3796SOL    HW111708   4.259   5.117   0.503 -1.9638  0.0521  0.0943
 3796SOL    HW211709   4.348   5.148   0.370 -1.2999 -2.0846  0.0063
 3797SOL     OW11710   5.272   2.134   1.569 -0.4127 -0.1045  0.4844
 3797SOL    HW111711   5.180   2.144   1.609  0.3853  2.7583  1.8377
 3797SOL    HW211712   5.340   2.174   1.630  1.3526  1.0035 -2.0245
 3798SOL     OW11713   4.484   2.320   1.041  0.1765 -0.3220 -0.2265
 3798SOL    HW111714   4.470   2.265   1.124  1.2682  2.5089  2.0079
 3798SOL    HW211715   4.476   2.417   1.064  0.7068  0.5953 -3.4611
 3799SOL     OW11716   5.435   2.348   3.040  0.2374  0.1588  0.1703
 3799SOL    HW111717   5.488   2.313   2.963  0.6433  0.7089  0.1932
 3799SOL    HW211718   5.338   2.332   3.023  0.1204  2.1468 -1.4896
 3800SOL     OW11719   5.506   0.899   0.941  0.4528  0.2190  0.3208
 3800SOL    HW111720   5.599   0.893   0.904 -0.2444  1.0023 -1.6958
 3800SOL    HW211721   5.454   0.817   0.915 -0.0424  0.7697 -0.4627
 3801SOL     OW11722   3.998   1.623   0.907  0.4494  0.3319  0.2188
 3801SOL    HW111723   3.906   1.609   0.871  0.3903  1.4764 -0.1282
 3801SOL    HW211724   3.995   1.628   1.007  0.3048 -0.7365  0.2748
 3802SOL     OW11725   4.503   5.023   1.512  0.0399  0.7364 -0.0701
 3802SOL    HW111726   4.588   5.065   1.544 -0.2634  2.4620 -1.3366
 3802SOL    HW211727   4.525   4.943   1.456  0.7724  0.4696  0.5854
 3803SOL     OW11728   4.744   1.750   2.398 -0.6740 -0.2314 -0.1324
 3803SOL    HW111729   4.772   1.774   2.305  1.1248  0.6787  0.5903
 3803SOL    HW211730   4.718   1.832   2.448  1.0737 -0.3044  0.9798
 3804SOL     OW11731   5.062   1.438   0.573  0.2434 -0.5250 -0.3334
 3804SOL    HW111732   5.143   1.379   0.576  0.2910 -0.4713  2.8679
 3804SOL    HW211733   4.982   1.384   0.548  0.7779 -1.2193 -0.5711
 3805SOL     OW11734   4.529  -0.009   1.321 -0.2549 -0.2481 -0.1835
 3805SOL    HW111735   4.443  -0.023   1.273 -0.9472  1.2922  0.5429
 3805SOL    HW211736   4.555   0.087   1.317 -0.5450  0.0539  2.7720
 3806SOL     OW11737   4.210   4.735   0.635 -0.3713 -0.0491  0.1051
 3806SOL    HW111738   4.133   4.685   0.594 -1.4546  1.9212 -0.4460
 3806SOL    HW211739   4.220   4.709   0.731  0.2160 -2.4956 -0.5553
 3807SOL     OW11740   4.791   0.351   1.676  0.2443  0.2749 -0.2987
 3807SOL    HW111741   4.731   0.421   1.638  1.0275  0.9568 -0.3117
 3807SOL    HW211742   4.776   0.345   1.775 -1.4746 -1.1895 -0.5950
 3808SOL     OW11743   4.028   1.104   0.651 -0.4605  0.1949 -0.6175
 3808SOL    HW111744   4.063   1.148   0.568 -0.6568  0.9458 -0.3171
 3808SOL    HW211745   3.943   1.056   0.630 -0.9317  1.0425 -0.6999
 3809SOL     OW11746   3.650   0.153   2.433 -0.4281 -0.0098  0.1146
 3809SOL    HW111747   3.558   0.187   2.413 -0.3516  0.6422  0.8369
 3809SOL    HW211748   3.674   0.174   2.527  0.0254 -1.1940  0.2888
 3810SOL     OW11749   4.553   2.122   0.863 -0.1705 -0.4162 -0.1603
 3810SOL    HW111750   4.521   2.178   0.940  3.7345  2.9288 -0.6553
 3810SOL    HW211751   4.505   2.149   0.780 -2.2357 -1.9269  0.4399
 3811SOL     OW11752   4.806   2.458   1.063 -0.0783 -0.4654 -0.3815
 3811SOL    HW111753   4.796   2.540   1.007 -0.6514 -1.7072 -2.2056
 3811SOL    HW211754   4.715   2.420   1.084  0.1634 -2.5158 -2.5945
 3812SOL     OW11755   0.388   0.372   1.310 -0.1523  0.1856 -0.4893
 3812SOL    HW111756   0.350   0.453   1.267 -0.4956  0.7733  0.8745
 3812SOL    HW211757   0.471   0.396   1.361 -0.3667 -0.2575  0.0954
 3813SOL     OW11758   0.064   2.626   2.018  0.1294  0.0875 -0.3105
 3813SOL    HW111759   0.136   2.663   1.959  1.8629  0.8121  2.1357
 3813SOL    HW211760   0.089   2.535   2.049  0.3638  0.6097  1.0949
 3814SOL     OW11761   4.793   0.341   1.948 -0.1441 -0.3979  0.5682
 3814SOL    HW111762   4.710   0.344   2.003 -0.0458 -0.3681  0.7182
 3814SOL    HW211763   4.826   0.247   1.941 -1.8950 -0.9162 -2.1064
 3815SOL     OW11764   5.425   5.488   1.388  0.0545 -0.1163  0.1820
 3815SOL    HW111765   5.356   5.558   1.406 -0.1030 -0.4956  1.1103
 3815SOL    HW211766   5.420   5.418   1.459  0.4452 -0.8875 -0.5383
 3816SOL     OW11767   4.091   0.713   3.268 -0.0037  0.1946  0.1113
 3816SOL    HW111768   4.185   0.681   3.256 -0.0186 -0.8445  2.2262
 3816SOL    HW211769   4.047   0.724   3.179  1.8358 -0.1395 -0.8800
 3817SOL     OW11770   3.875   0.288   3.104  0.4669 -0.2277 -0.7131
 3817SOL    HW111771   3.949   0.340   3.062  1.0244 -1.9807 -1.9686
 3817SOL    HW211772   3.896   0.271   3.200  0.1443  2.0123 -0.1703
 3818SOL     OW11773   4.170   0.085   0.752 -0.2770  0.0489  0.2721
 3818SOL    HW111774   4.088   0.074   0.809 -0.1007 -0.3604  0.4526
 3818SOL    HW211775   4.234   0.011   0.773  0.5041  0.8480  0.7378
 3819SOL     OW11776   5.058   1.398   5.093  0.7787 -0.6342  0.1738
 3819SOL    HW111777   5.059   1.491   5.129  0.2594 -0.0920 -1.1407
 3819SOL    HW211778   5.043   1.333   5.168  0.2545  0.4028  0.9974
 3820SOL     OW11779   4.828   0.603   5.238 -0.0086 -0.1198  0.1857
 3820SOL    HW111780   4.859   0.515   5.273  3.1711  0.6103 -0.4694
 3820SOL    HW211781   4.786   0.590   5.148  0.4447 -0.9774  0.0844
 3821SOL     OW11782   3.272   0.300   1.923  0.4211 -0.2823 -0.3270
 3821SOL    HW111783   3.316   0.379   1.966 -0.0579 -0.2988  0.2127
 3821SOL    HW211784   3.175   0.319   1.908  0.8551  0.2681 -2.7784
 3822SOL     OW11785   4.132   3.124   0.910  0.4620  0.3222 -0.0244
 3822SOL    HW111786   4.086   3.160   0.991  0.0270  0.3415 -0.2777
 3822SOL    HW211787   4.064   3.105   0.838  0.7339 -0.5321 -0.0749
 3823SOL     OW11788   4.871   0.933   1.433  0.5125  0.4908  0.4831
 3823SOL    HW111789   4.885   1.024   1.395 -0.0602  0.9387  1.2986
 3823SOL    HW211790   4.893   0.934   1.531 -2.4588  0.5937  1.2623
 3824SOL     OW11791   0.282   2.877   2.398 -0.1575  0.3925  0.4222
 3824SOL    HW111792   0.286   2.977   2.405 -0.7295  0.4437  0.0733
 3824SOL    HW211793   0.206   2.843   2.452 -0.0917  0.1615  0.3715
 3825SOL     OW11794   0.108   4.944   1.030  0.3070  0.0998  0.1528
 3825SOL    HW111795   0.161   4.899   1.102 -0.4642 -0.4804  0.3558
 3825SOL    HW211796   0.030   4.888   1.004 -1.0064  1.5638  0.8162
 3826SOL     OW11797   0.774   1.077   0.431 -0.0436 -0.2580 -0.2741
 3826SOL    HW111798   0.751   1.172   0.410 -1.7740 -0.2423  1.3993
 3826SOL    HW211799   0.690   1.022   0.434  0.4555 -1.0388  2.3793
 3827SOL     OW11800   4.866   0.086   1.912 -0.2014 -0.1447 -0.1429
 3827SOL    HW111801   4.836   0.054   1.822  1.6792 -1.7349 -0.2560
 3827SOL    HW211802   4.871   0.008   1.975  2.2471  0.2497  0.2372
 3828SOL     OW11803   4.511   2.178   1.892  0.5390  0.1196 -0.2712
 3828SOL    HW111804   4.599   2.208   1.929  0.4843  0.8894 -0.7356
 3828SOL    HW211805   4.452   2.146   1.966  1.6191 -1.5048 -0.0740
 3829SOL     OW11806   1.207   0.694   1.828  0.4399 -0.1507  0.0985
 3829SOL    HW111807   1.246   0.765   1.769 -1.1600 -0.7987 -1.8447
 3829SOL    HW211808   1.259   0.610   1.817 -0.1210 -0.3974 -0.7969
 3830SOL     OW11809   4.183   5.075   2.373 -0.1390 -0.3164 -0.4839
 3830SOL    HW111810   4.112   5.040   2.434  0.0643  0.7268  0.3811
 3830SOL    HW211811   4.258   5.114   2.427  0.0379  0.6559 -1.3912
 3831SOL     OW11812   4.802   0.675   5.553 -0.2908 -0.1422 -0.5351
 3831SOL    HW111813   4.711   0.638   5.572 -1.7268  2.1564 -2.3302
 3831SOL    HW211814   4.824   0.662   5.456  1.7350 -1.4649  0.0576
 3832SOL     OW11815   4.126   5.325   0.641  0.2536 -0.1399 -0.2379
 3832SOL    HW111816   4.182   5.333   0.558  0.8563 -1.8502 -0.0443
 3832SOL    HW211817   4.039   5.280   0.618  1.1052 -2.1873  0.2562
 3833SOL     OW11818   4.803   0.486   0.384  1.1131 -0.5109 -0.6903
 3833SOL    HW111819   4.800   0.386   0.385 -0.5161 -0.4862  0.3156
 3833SOL    HW211820   4.829   0.519   0.475 -1.3872 -0.0091 -0.1075
 3834SOL     OW11821   3.475   1.666   0.677 -0.3023  0.0470  0.4535
 3834SOL    HW111822   3.475   1.593   0.609 -0.5634 -1.0996  1.6364
 3834SOL    HW211823   3.416   1.740   0.647 -1.9280 -1.2671  0.2825
 3835SOL     OW11824   4.203   0.035   1.352  0.5431  0.4551  0.1050
 3835SOL    HW111825   4.201   0.062   1.448  1.7033 -1.5241  0.7359
 3835SOL    HW211826   4.111   0.012   1.321  0.0593  1.7393  0.5022
 3836SOL     OW11827   4.644   5.269   1.687  0.0725 -0.1090 -0.1957
 3836SOL    HW111828   4.665   5.312   1.599 -1.2660  0.2740 -0.3484
 3836SOL    HW211829   4.548   5.284   1.710  0.4060 -0.1416  1.3705
 3837SOL     OW11830   5.126   4.808   2.385  0.5674 -0.2495  0.2903
 3837SOL    HW111831   5.050   4.857   2.342  1.1250  1.0664  0.7473
 3837SOL    HW211832   5.114   4.710   2.372 -1.8639 -0.1768  1.4059
 3838SOL     OW11833   3.306   2.809   5.381  0.0429  0.2411  0.3017
 3838SOL    HW111834   3.262   2.881   5.327  1.2800  1.9022  1.3690
 3838SOL    HW211835   3.288   2.825   5.478 -0.7263 -1.6839  0.5049
 3839SOL     OW11836   3.951   2.231   5.551 -0.1543  0.0169  0.3427
 3839SOL    HW111837   3.978   2.266   5.461 -0.3209 -1.5701 -0.3683
 3839SOL    HW211838   4.012   2.155   5.576 -0.9091 -0.3890  0.9748
 3840SOL     OW11839   4.306   1.206   0.512 -0.3392 -0.3989  0.0623
 3840SOL    HW111840   4.284   1.156   0.429 -2.3188  0.3641  0.0665
 3840SOL    HW211841   4.403   1.229   0.513 -0.4135  0.2899 -2.4604
 3841SOL     OW11842   5.499   1.044   1.157 -0.0210  0.1320 -0.9142
 3841SOL    HW111843   5.501   1.004   1.066  2.3039  1.2218 -1.4222
 3841SOL    HW211844   5.514   0.972   1.225 -0.2698 -0.4738 -1.4885
 3842SOL     OW11845   4.798   4.892   0.946  0.2344  0.3367  0.8546
 3842SOL    HW111846   4.880   4.922   0.898 -0.5132 -1.4780 -1.7450
 3842SOL    HW211847   4.790   4.942   1.033  2.3157  2.9019 -0.2942
 3843SOL     OW11848   5.030   0.373   1.250 -0.2139 -0.0959 -0.0178
 3843SOL    HW111849   5.095   0.365   1.326 -1.4524  3.9902  1.7494
 3843SOL    HW211850   5.071   0.429   1.177 -0.7706  0.2191 -0.0947
 3844SOL     OW11851   5.045   1.132   0.836 -0.2671  0.1132  0.4482
 3844SOL    HW111852   4.952   1.164   0.819 -0.1906 -0.2191 -0.6457
 3844SOL    HW211853   5.074   1.161   0.927 -2.5245 -2.2423  2.0589
 3845SOL     OW11854   3.907   0.676   0.408 -0.5028  0.6832  0.7203
 3845SOL    HW111855   3.930   0.609   0.338 -0.5465  1.2294  0.1745
 3845SOL    HW211856   3.867   0.630   0.487  1.0057 -0.1272  1.0471
 3846SOL     OW11857   0.021   5.423   1.620  0.1763  0.2669  1.0902
 3846SOL    HW111858   0.066   5.496   1.570 -0.7852  1.1315  1.4479
 3846SOL    HW211859   0.064   5.335   1.597  0.3135  0.7344 -0.5574
 3847SOL     OW11860   4.000   2.049   2.289  0.2021  0.1384  0.3245
 3847SOL    HW111861   4.081   2.089   2.332  0.8318 -0.9699  0.1883
 3847SOL    HW211862   4.020   1.957   2.258 -0.2883  0.8172 -2.2199
 3848SOL     OW11863   5.166   5.605   1.067  0.1119 -0.3856 -0.3954
 3848SOL    HW111864   5.211   5.533   1.014  0.5410 -0.6176  0.2760
 3848SOL    HW211865   5.081   5.569   1.105 -0.0410 -0.3140 -0.6704
 3849SOL     OW11866   4.962   1.872   1.379 -0.1692  0.6653  0.1827
 3849SOL    HW111867   4.930   1.942   1.443 -1.0556  0.3998  0.0343
 3849SOL    HW211868   4.955   1.907   1.286  1.0818  1.0360  0.1973
 3850SOL     OW11869   3.927   0.525   5.527 -0.1448 -0.4183 -0.3662
 3850SOL    HW111870   3.937   0.610   5.476 -0.9545 -1.3415 -2.1109
 3850SOL    HW211871   4.007   0.466   5.510 -0.0047 -0.3815  0.1378
 3851SOL     OW11872   4.804   1.423   1.820 -0.1745  0.5912  0.7640
 3851SOL    HW111873   4.739   1.352   1.849  0.2499 -0.1880 -0.1224
 3851SOL    HW211874   4.898   1.391   1.836  0.0214  1.0032  0.4680
 3852SOL     OW11875   3.937   0.782   1.663 -0.1548 -0.3136 -0.0258
 3852SOL    HW111876   3.881   0.812   1.586  0.8366 -1.6626 -1.3404
 3852SOL    HW211877   3.880   0.773   1.744 -1.9287 -1.7965 -1.3410
 3853SOL     OW11878   4.551   0.561   5.572  0.4166  0.2953  0.5176
 3853SOL    HW111879   4.483   0.606   5.514  0.0887  0.2898  0.8890
 3853SOL    HW211880   4.562   0.466   5.542  0.6998  0.4608  0.0833
 3854SOL     OW11881   0.130   2.656   0.799  0.0077 -0.8417  0.0277
 3854SOL    HW111882   0.202   2.692   0.739  0.6780 -1.2910  0.5427
 3854SOL    HW211883   0.111   2.561   0.776 -0.5931 -0.6541 -0.2597
 3855SOL     OW11884   5.282   1.853   1.116 -0.2285 -0.1578 -0.1190
 3855SOL    HW111885   5.222   1.909   1.058  1.3696  0.2730 -1.4473
 3855SOL    HW211886   5.285   1.892   1.208  1.0270  2.2042 -1.0534
 3856SOL     OW11887   4.582   1.619   5.363 -0.0033 -0.2750 -0.5200
 3856SOL    HW111888   4.666   1.566   5.374  0.9934  1.1159 -1.0434
 3856SOL    HW211889   4.503   1.561   5.381  1.1016 -1.0877  2.1663
 3857SOL     OW11890   4.828   1.515   5.365  0.2177  0.0787  0.0949
 3857SOL    HW111891   4.827   1.416   5.351  0.9712  0.0381  0.2361
 3857SOL    HW211892   4.903   1.555   5.311 -0.3332  0.6271 -0.2766
 3858SOL     OW11893   4.912   5.337   5.404 -0.4485 -0.4681  0.7423
 3858SOL    HW111894   5.005   5.357   5.435 -0.0079  0.3521 -0.9835
 3858SOL    HW211895   4.854   5.417   5.420 -0.4902 -0.4444  0.4735
 3859SOL     OW11896   0.072   5.124   5.388  0.0850 -0.0890 -0.7843
 3859SOL    HW111897   0.014   5.043   5.385  0.4842 -0.5262  1.5572
 3859SOL    HW211898   0.052   5.177   5.471  0.1876  1.9723 -1.9945
 3860SOL     OW11899   0.245   1.305   4.898  0.1434 -0.2405 -0.1676
 3860SOL    HW111900   0.226   1.209   4.877 -0.1618 -0.0259 -0.9153
 3860SOL    HW211901   0.159   1.351   4.920  0.2413 -0.0617 -0.1639
 3861SOL     OW11902   4.397   2.523   2.875  0.0994 -0.6158  0.0430
 3861SOL    HW111903   4.393   2.437   2.824  0.1330 -0.0530 -0.9286
 3861SOL    HW211904   4.378   2.600   2.814  3.7302  0.4162 -0.0515
 3862SOL     OW11905   4.860   0.139   1.188  0.0475 -0.2301 -0.0209
 3862SOL    HW111906   4.764   0.166   1.197  0.2046  0.2794  0.1799
 3862SOL    HW211907   4.919   0.218   1.205  0.4713  0.0527 -2.4511
 3863SOL     OW11908   3.944   1.271   2.126 -0.0933  0.0365  0.2432
 3863SOL    HW111909   3.975   1.360   2.091  0.7112  0.3800  1.7591
 3863SOL    HW211910   4.023   1.217   2.155 -0.5629 -1.2581 -0.7656
 3864SOL     OW11911   4.295   1.585   5.399  0.1196 -0.3197 -0.0307
 3864SOL    HW111912   4.247   1.602   5.313  0.1527  0.1240  0.0366
 3864SOL    HW211913   4.263   1.649   5.469 -1.0062 -1.6409  0.7288
 3865SOL     OW11914   5.332   0.179   0.461 -0.3129 -0.3649  0.9297
 3865SOL    HW111915   5.279   0.130   0.530 -2.1553  1.1265  0.6745
 3865SOL    HW211916   5.273   0.201   0.383 -0.0213  3.1965  1.5141
 3866SOL     OW11917   4.823   1.309   0.562 -0.1571  0.5776 -0.0307
 3866SOL    HW111918   4.840   1.273   0.654  0.7890  0.3122 -0.3011
 3866SOL    HW211919   4.754   1.252   0.517 -0.8356  0.8759  0.6014
 3867SOL     OW11920   3.905   1.306   0.777  0.3452  0.3071  0.5394
 3867SOL    HW111921   3.956   1.390   0.760  1.6121 -0.3771  0.8475
 3867SOL    HW211922   3.956   1.228   0.741 -0.8467 -0.3306  0.1928
 3868SOL     OW11923   0.906   1.607   5.356  0.5329  0.0245 -0.4662
 3868SOL    HW111924   0.865   1.558   5.279 -2.9317  0.1115  1.1442
 3868SOL    HW211925   0.878   1.703   5.354 -0.2423 -0.1335  1.2492
 3869SOL     OW11926   4.353   1.480   2.415 -0.1312 -0.8217  0.0040
 3869SOL    HW111927   4.343   1.430   2.500 -0.8747 -1.4283 -0.4308
 3869SOL    HW211928   4.431   1.444   2.364 -1.1408 -2.1338 -0.6829
 3870SOL     OW11929   0.162   0.973   0.256  0.0476 -0.3290  0.2525
 3870SOL    HW111930   0.072   1.017   0.248 -0.3686 -1.1532  0.3403
 3870SOL    HW211931   0.214   0.990   0.172  0.6646  1.9703  1.0304
 3871SOL     OW11932   0.166   0.899   0.816 -0.3987  0.3455 -0.1369
 3871SOL    HW111933   0.193   0.803   0.809 -0.2871  0.4703 -1.7316
 3871SOL    HW211934   0.248   0.957   0.817 -0.4452  0.4354  1.2728
 3872SOL     OW11935   3.720   0.494   2.443  0.6910 -0.7689  0.1573
 3872SOL    HW111936   3.716   0.556   2.522  0.8300 -0.2832 -0.2075
 3872SOL    HW211937   3.785   0.421   2.461  0.4110 -0.9036  0.6574
 3873SOL     OW11938   0.017   2.177   1.091 -0.4090 -0.2422  0.2032
 3873SOL    HW111939  -0.025   2.171   1.182 -1.5266  1.9043 -0.1115
 3873SOL    HW211940   0.047   2.271   1.074  3.0173 -1.3031 -0.3306
 3874SOL     OW11941   4.786   1.221   0.828  0.0453  0.1960  0.3518
 3874SOL    HW111942   4.717   1.159   0.866  0.7895  0.2515  1.8801
 3874SOL    HW211943   4.776   1.311   0.870  0.7029  0.3459  0.1903
 3875SOL     OW11944   4.459   4.677   2.198 -0.0103  0.1658  0.1921
 3875SOL    HW111945   4.365   4.709   2.215  0.3035  0.3412  1.7147
 3875SOL    HW211946   4.508   4.745   2.145 -0.6068  0.2776 -0.2288
 3876SOL     OW11947   4.036   1.491   1.358  0.1549  0.1126  0.2241
 3876SOL    HW111948   3.938   1.475   1.366  0.1892  0.5506  1.8814
 3876SOL    HW211949   4.061   1.501   1.261 -1.7740  2.1318 -0.1329
 3877SOL     OW11950   4.651   0.826   0.856 -0.4225  0.0616  0.1805
 3877SOL    HW111951   4.645   0.921   0.886  1.4320  0.0305  0.8227
 3877SOL    HW211952   4.587   0.770   0.908  0.1436  0.6143  1.5283
 3878SOL     OW11953   2.158   1.534   0.985  0.1463  0.0289  0.3626
 3878SOL    HW111954   2.235   1.506   0.928  0.2529  0.9158  0.0499
 3878SOL    HW211955   2.188   1.605   1.049 -0.5046  0.7348 -0.0938
 3879SOL     OW11956   3.871   4.807   1.780 -0.7231  0.3721  0.9040
 3879SOL    HW111957   3.895   4.808   1.683  2.3239 -0.5214  1.5228
 3879SOL    HW211958   3.847   4.714   1.808 -2.6056  0.8062  0.8508
 3880SOL     OW11959   4.226   0.239   2.690 -0.4433  0.0076  0.2522
 3880SOL    HW111960   4.134   0.199   2.694  0.0742 -1.2810 -0.1858
 3880SOL    HW211961   4.264   0.226   2.599 -0.0111  0.9784  0.2866
 3881SOL     OW11962   4.278   0.291   4.947 -0.5644  0.5800 -0.4647
 3881SOL    HW111963   4.294   0.200   4.986  1.0258  0.4002 -1.4501
 3881SOL    HW211964   4.278   0.286   4.848  1.3828  1.8870 -0.5964
 3882SOL     OW11965   5.298   1.305   0.571 -0.2091 -0.1433 -0.0936
 3882SOL    HW111966   5.318   1.220   0.620  2.4019  0.0437 -0.6806
 3882SOL    HW211967   5.336   1.382   0.622  0.2089  0.3319 -1.0954
 3883SOL     OW11968   3.928   1.241   0.391  0.3440 -0.5669  0.1998
 3883SOL    HW111969   3.841   1.218   0.347 -0.2422  0.1221  0.9360
 3883SOL    HW211970   3.978   1.307   0.334  0.4827 -1.1201 -0.3236
 3884SOL     OW11971   4.020   0.727   1.146  0.2648  0.2380  0.1530
 3884SOL    HW111972   3.982   0.643   1.186 -0.3590  0.6964  0.5470
 3884SOL    HW211973   4.101   0.705   1.092 -0.2387 -0.6981 -0.2364
 3885SOL     OW11974   5.174   0.550   1.522  0.1174  0.1803 -0.6196
 3885SOL    HW111975   5.122   0.593   1.449  0.0492  0.2015 -0.5580
 3885SOL    HW211976   5.145   0.455   1.533 -0.4870  0.4303 -0.0302
 3886SOL     OW11977   0.887   1.808   2.431 -0.1769 -0.4916 -0.0192
 3886SOL    HW111978   0.895   1.821   2.529  0.2171  1.9903 -0.2993
 3886SOL    HW211979   0.976   1.782   2.394 -0.0845 -0.4652  0.1839
 3887SOL     OW11980   4.362   5.233   2.072 -0.0695 -0.4557  0.2678
 3887SOL    HW111981   4.369   5.319   2.123  0.5054 -1.3743  1.7788
 3887SOL    HW211982   4.266   5.206   2.067 -0.2820  0.3540 -0.4007
 3888SOL     OW11983   5.547   1.344   0.324  0.6807 -0.1140 -0.3683
 3888SOL    HW111984   5.557   1.315   0.419 -0.6281  0.1041 -0.1420
 3888SOL    HW211985   5.535   1.264   0.266 -1.2592 -0.1547  0.0342
 3889SOL     OW11986   3.929   2.798   2.143 -0.2814 -1.0459 -0.1491
 3889SOL    HW111987   3.943   2.833   2.235 -0.0710 -0.3425 -0.4391
 3889SOL    HW211988   3.997   2.727   2.123  1.5936  0.7916 -0.7563
 3890SOL     OW11989   4.819   2.103   0.864 -0.2033 -0.4308  0.1962
 3890SOL    HW111990   4.720   2.114   0.858 -0.7199 -2.7531  2.5521
 3890SOL    HW211991   4.858   2.176   0.921 -0.8964 -0.7333  1.0691
 3891SOL     OW11992   4.964   0.228   0.358  0.2284 -0.3243  0.3804
 3891SOL    HW111993   5.050   0.234   0.307  0.3204  0.7569  0.6429
 3891SOL    HW211994   4.981   0.243   0.455 -0.2961  0.2724  0.3906
 3892SOL     OW11995   3.551   1.005   0.662  0.0142 -0.0002 -0.3010
 3892SOL    HW111996   3.543   1.036   0.757 -0.3981 -3.0042  0.7362
 3892SOL    HW211997   3.648   0.997   0.638  0.1368 -0.4884  0.3303
 3893SOL     OW11998   0.626   5.255   2.500  0.4392  0.1899 -0.2177
 3893SOL    HW111999   0.652   5.175   2.554  2.9504  0.1607 -1.3451
 3893SOL    HW212000   0.695   5.327   2.511  0.2662  0.7172 -2.2237
 3894SOL     OW12001   5.369   1.140   1.394  0.0886  0.7167  0.3803
 3894SOL    HW112002   5.367   1.060   1.454 -1.1870 -0.3025 -0.9474
 3894SOL    HW212003   5.398   1.113   1.303  1.4534  2.1444  0.3494
 3895SOL     OW12004   5.167   1.614   0.400 -0.0081 -0.4645  0.7363
 3895SOL    HW112005   5.126   1.552   0.466  1.6276 -0.4902  1.7939
 3895SOL    HW212006   5.226   1.563   0.337 -0.1966 -0.2178  0.3501
 3896SOL     OW12007   4.722   1.576   0.479 -0.6086  0.2921 -0.2943
 3896SOL    HW112008   4.624   1.570   0.457 -0.2799  0.1642 -1.8012
 3896SOL    HW212009   4.755   1.486   0.508 -1.3784  0.7700  2.4200
 3897SOL     OW12010   5.054   0.498   0.965  0.0885 -0.2275  0.0075
 3897SOL    HW112011   5.086   0.527   0.875  0.5248 -1.4579 -0.2534
 3897SOL    HW212012   4.970   0.548   0.988  0.4203  0.6877 -0.7124
 3898SOL     OW12013   4.873   1.026   5.481 -0.1596  0.5774 -0.3879
 3898SOL    HW112014   4.819   0.967   5.421  1.0566 -0.9511 -0.0481
 3898SOL    HW212015   4.812   1.080   5.540 -1.4556  2.8623 -3.5298
 3899SOL     OW12016   5.331   1.058   0.715 -0.2965  0.8380 -0.1900
 3899SOL    HW112017   5.249   1.089   0.764 -1.1168  0.6419 -1.3931
 3899SOL    HW212018   5.389   1.006   0.777 -1.0433  1.0409  0.7034
 3900SOL     OW12019   4.711   0.765   1.291 -0.6674  0.2128  0.8960
 3900SOL    HW112020   4.744   0.844   1.342  0.8340 -0.2443  0.6951
 3900SOL    HW212021   4.769   0.686   1.311 -0.5071 -0.1672 -0.8970
 3901SOL     OW12022   4.555   0.156   0.952  0.1409 -0.2609 -1.0524
 3901SOL    HW112023   4.507   0.213   0.886 -0.7065 -1.2010 -1.2685
 3901SOL    HW212024   4.524   0.178   1.044  2.5537  2.2685 -0.7189
 3902SOL     OW12025   3.423   1.048   1.789 -0.2889  0.2330 -0.2028
 3902SOL    HW112026   3.512   1.003   1.797 -0.7529 -0.3821  2.3520
 3902SOL    HW212027   3.357   0.984   1.749 -0.5103 -0.8118  1.7219
 3903SOL     OW12028   5.005   4.717   1.274 -0.1678  0.0885 -0.1768
 3903SOL    HW112029   4.942   4.790   1.303  0.5458  0.4056  0.6160
 3903SOL    HW212030   5.099   4.748   1.287  0.1454 -0.9361  0.0642
 3904SOL     OW12031   4.806   5.337   0.920  0.0856 -0.5385 -0.0648
 3904SOL    HW112032   4.714   5.375   0.934 -0.6850 -2.2218 -0.2220
 3904SOL    HW212033   4.862   5.401   0.868 -0.7272  0.8811  0.7697
 3905SOL     OW12034   4.936   2.660   1.303 -0.2378 -0.4160 -0.3366
 3905SOL    HW112035   4.837   2.647   1.298 -0.7777  2.2921  1.4326
 3905SOL    HW212036   4.965   2.722   1.231  0.4808 -2.2924 -1.7414
 3906SOL     OW12037   4.345   0.274   1.192  0.3018  0.2881  0.5280
 3906SOL    HW112038   4.303   0.327   1.118  1.2852 -1.3685 -1.3302
 3906SOL    HW212039   4.276   0.221   1.240 -0.0314 -1.0673 -1.3465
 3907SOL     OW12040   4.129   2.091   0.264  0.3207 -0.3578  0.3202
 3907SOL    HW112041   4.128   2.173   0.321  2.1528  0.6771 -1.0223
 3907SOL    HW212042   4.038   2.049   0.265 -0.8091  1.9119  0.7194
 3908SOL     OW12043   4.126   5.122   1.912  0.2398 -0.0304 -0.0626
 3908SOL    HW112044   4.188   5.045   1.924  1.5411  0.9460 -0.2358
 3908SOL    HW212045   4.102   5.160   2.001  1.8264  1.0422 -0.0625
 3909SOL     OW12046   4.779   0.070   1.631  0.3281  0.0096  0.0152
 3909SOL    HW112047   4.756   0.161   1.664  1.2015  0.7904 -1.4571
 3909SOL    HW212048   4.876   0.052   1.647  0.6178  0.1475 -1.4835
 3910SOL     OW12049   4.672   0.890   0.066 -0.2130 -0.0843  0.6017
 3910SOL    HW112050   4.575   0.885   0.040 -0.1564  0.9864  0.1204
 3910SOL    HW212051   4.724   0.820   0.017 -0.5018  0.3371 -0.3293
 3911SOL     OW12052   4.139   1.924   1.346  0.3300  0.6456  0.2574
 3911SOL    HW112053   4.208   1.882   1.404 -0.8551 -0.4949  0.9204
 3911SOL    HW212054   4.139   1.879   1.256  1.9385  2.1867 -0.5774
 3912SOL     OW12055   5.074   0.814   0.916  0.1864  0.2174  0.0653
 3912SOL    HW112056   5.060   0.910   0.890  0.9797  0.2384 -0.3312
 3912SOL    HW212057   4.990   0.777   0.955 -1.1920  0.1241 -2.7500
 3913SOL     OW12058   4.682   5.446   1.487  0.4245 -0.1012  0.6062
 3913SOL    HW112059   4.713   5.522   1.545  1.2252 -1.2240  1.6985
 3913SOL    HW212060   4.613   5.480   1.423  1.8031  1.8536  0.0672
 3914SOL     OW12061   0.771   1.145   1.026 -0.7120  0.0495  0.1509
 3914SOL    HW112062   0.820   1.105   0.948 -1.3842 -1.6936  0.5745
 3914SOL    HW212063   0.718   1.224   0.995 -1.2457 -0.8184 -1.2498
 3915SOL     OW12064   3.518   0.756   0.632 -0.5425 -0.2288  0.3172
 3915SOL    HW112065   3.533   0.855   0.637  0.7247 -0.2776 -1.6761
 3915SOL    HW212066   3.479   0.724   0.719  0.0294  1.8346  1.3956
 3916SOL     OW12067   4.710   2.814   4.962  0.3796 -0.4535 -0.2626
 3916SOL    HW112068   4.741   2.905   4.933  1.0980 -0.7393 -0.4115
 3916SOL    HW212069   4.629   2.824   5.019  0.4218  0.2810 -0.3109
 3917SOL     OW12070   4.594   0.878   3.234 -0.3581  0.1688 -0.0254
 3917SOL    HW112071   4.562   0.970   3.258 -0.9617 -0.2303  0.7223
 3917SOL    HW212072   4.661   0.847   3.302 -1.4675 -0.6369  0.7428
 3918SOL     OW12073   3.823   4.659   3.246  0.1185 -0.3467 -0.0157
 3918SOL    HW112074   3.856   4.752   3.231 -2.5180  0.7043  0.1840
 3918SOL    HW212075   3.901   4.599   3.265  2.0820  1.3957 -1.9716
 3919SOL     OW12076   4.050   1.016   2.665 -0.2808 -0.2056 -0.4254
 3919SOL    HW112077   4.135   1.044   2.709 -1.8000  0.6854  2.1461
 3919SOL    HW212078   3.976   1.077   2.692 -1.6283 -0.4129 -3.3014
 3920SOL     OW12079   5.233   1.151   1.911 -0.0716 -0.5317 -0.1666
 3920SOL    HW112080   5.331   1.132   1.918  0.1369  0.2740 -0.7591
 3920SOL    HW212081   5.196   1.106   1.829 -0.0680 -0.3108 -0.2885
 3921SOL     OW12082   4.124   0.620   2.226 -0.7313  0.5772  0.1843
 3921SOL    HW112083   4.068   0.702   2.212  2.9875  3.2896 -0.5794
 3921SOL    HW212084   4.166   0.594   2.139 -0.1500 -0.7930  0.8572
 3922SOL     OW12085   4.740   0.187   2.322  0.0187  0.1378  0.0589
 3922SOL    HW112086   4.798   0.132   2.382 -1.0666 -0.0742  0.9440
 3922SOL    HW212087   4.658   0.136   2.298 -0.3723  0.8679 -0.2032
 3923SOL     OW12088   0.394   4.709   2.558  0.3917 -0.3830  0.3722
 3923SOL    HW112089   0.313   4.664   2.519  1.7263 -1.4093 -1.3229
 3923SOL    HW212090   0.468   4.643   2.568  2.0847  1.1770 -1.2154
 3924SOL     OW12091   4.299   0.563   2.885  0.3736  0.1030  0.4315
 3924SOL    HW112092   4.388   0.563   2.931  0.8583 -2.1764 -0.3945
 3924SOL    HW212093   4.308   0.608   2.796 -0.0530  2.5132  1.5232
 3925SOL     OW12094   5.185   1.412   3.937  0.8990  0.6132 -0.0953
 3925SOL    HW112095   5.089   1.407   3.963  0.8877  0.6991 -0.1220
 3925SOL    HW212096   5.212   1.507   3.924  0.9494  0.5812 -0.2308
 3926SOL     OW12097   4.029   1.099   3.009  0.0346 -0.1072 -0.3003
 3926SOL    HW112098   4.109   1.157   2.992  0.0893  0.7636  2.4191
 3926SOL    HW212099   4.053   1.003   2.994  1.6422  0.1256  0.5281
 3927SOL     OW12100   0.263   0.662   3.612 -0.0477  0.5220 -0.3817
 3927SOL    HW112101   0.273   0.643   3.514  0.5839  0.1937 -0.2570
 3927SOL    HW212102   0.310   0.747   3.634 -0.1889  0.5950 -0.3623
 3928SOL     OW12103   4.357   2.244   3.207 -0.1845 -0.1095 -0.4028
 3928SOL    HW112104   4.442   2.255   3.259 -0.9932  1.6535  0.6298
 3928SOL    HW212105   4.285   2.211   3.267 -0.8949  1.0195 -0.6089
 3929SOL     OW12106   5.109   1.888   3.473 -0.4298 -0.4512 -0.3265
 3929SOL    HW112107   5.080   1.939   3.554 -0.3535 -0.6942 -0.1466
 3929SOL    HW212108   5.046   1.908   3.397 -0.1515  0.2441 -0.3792
 3930SOL     OW12109   3.638   0.364   5.223  0.2759  0.1163  0.0594
 3930SOL    HW112110   3.606   0.358   5.128  0.4241  0.1169  0.0093
 3930SOL    HW212111   3.718   0.424   5.227  0.3216  0.0470  0.1724
 3931SOL     OW12112   0.538   1.509   3.570 -0.0245 -0.3288 -0.1344
 3931SOL    HW112113   0.494   1.472   3.488 -0.3002 -1.2216  0.4047
 3931SOL    HW212114   0.635   1.485   3.570  0.7750  2.3432 -1.7447
 3932SOL     OW12115   3.453   0.889   2.201 -0.2537  0.1022  0.4538
 3932SOL    HW112116   3.536   0.918   2.250 -0.2390 -1.9381  1.7563
 3932SOL    HW212117   3.466   0.904   2.103  1.8743 -0.5955  0.5709
 3933SOL     OW12118   0.327   1.737   3.904  0.0485 -0.0684 -0.7635
 3933SOL    HW112119   0.362   1.813   3.960 -0.7665  0.0189 -0.3629
 3933SOL    HW212120   0.372   1.738   3.815 -0.0392  0.9617 -0.8053
 3934SOL     OW12121   4.297   2.061   2.081 -0.6159  0.5064 -0.3100
 3934SOL    HW112122   4.287   1.974   2.032  0.3644  1.0953 -1.6208
 3934SOL    HW212123   4.213   2.114   2.072 -1.0247 -0.0644  0.0366
 3935SOL     OW12124   3.388   1.277   2.893  0.1248 -0.2836 -0.0627
 3935SOL    HW112125   3.433   1.358   2.929  0.2793 -0.2681 -0.2914
 3935SOL    HW212126   3.416   1.197   2.946 -0.3460 -0.1297  0.4271
 3936SOL     OW12127   4.028   2.103   2.931  0.1636 -0.2030  0.1587
 3936SOL    HW112128   3.959   2.030   2.936 -0.1840  0.0609 -0.6316
 3936SOL    HW212129   4.036   2.147   3.021 -1.1517  0.1630  0.1208
 3937SOL     OW12130   4.405   0.506   2.023  0.4600  0.2055  0.1759
 3937SOL    HW112131   4.339   0.447   2.070 -0.5437  1.2343  0.1019
 3937SOL    HW212132   4.468   0.545   2.090 -1.6438  2.5393  0.9459
 3938SOL     OW12133   4.961   0.717   3.109 -0.0314 -0.1727  0.3875
 3938SOL    HW112134   4.948   0.722   3.010  0.9118 -2.2980  0.0958
 3938SOL    HW212135   4.901   0.646   3.147  0.9039 -0.6235  1.0577
 3939SOL     OW12136   3.854   1.042   3.237 -0.4013 -0.1576 -0.2792
 3939SOL    HW112137   3.908   1.044   3.153  1.1159 -0.1433  0.6520
 3939SOL    HW212138   3.758   1.061   3.216 -0.0278  0.0058 -1.9688
 3940SOL     OW12139   5.241   2.997   2.413  0.0908  0.0496 -0.6506
 3940SOL    HW112140   5.238   2.979   2.314  0.3800  2.0817 -1.0691
 3940SOL    HW212141   5.151   3.027   2.444  0.0673 -0.3329 -0.3462
 3941SOL     OW12142   3.232   2.030   2.476 -0.8275  0.2103  0.5001
 3941SOL    HW112143   3.318   1.985   2.500 -2.2724 -0.7443  4.7882
 3941SOL    HW212144   3.247   2.128   2.465  0.9449 -0.1014 -0.1617
 3942SOL     OW12145   5.340   0.094   2.409 -0.0131  0.3575  0.1060
 3942SOL    HW112146   5.333   0.143   2.323  1.9098 -0.9589 -0.8736
 3942SOL    HW212147   5.283   0.011   2.406 -0.2175  0.4920  0.2436
 3943SOL     OW12148   4.226   1.079   1.527  0.3090  0.0526  0.1229
 3943SOL    HW112149   4.180   1.010   1.472  1.1718  0.1586 -0.7683
 3943SOL    HW212150   4.324   1.056   1.533  0.4927  0.8663  0.3240
 3944SOL     OW12151   5.208   1.648   4.903 -0.5356  0.0197  0.6689
 3944SOL    HW112152   5.123   1.688   4.936 -1.1474  1.0055 -1.8362
 3944SOL    HW212153   5.188   1.564   4.852  0.0589 -0.1249  0.6619
 3945SOL     OW12154   4.748   0.807   3.428  0.6433 -0.1609  0.2454
 3945SOL    HW112155   4.770   0.710   3.436  1.2123 -0.1359 -0.8581
 3945SOL    HW212156   4.759   0.851   3.518  1.5951 -0.8830  0.5021
 3946SOL     OW12157   5.492   1.363   2.993  0.2419 -0.1011  0.2713
 3946SOL    HW112158   5.448   1.281   2.958  0.0135 -0.4497  1.3402
 3946SOL    HW212159   5.582   1.339   3.031  0.2717  0.1782  0.3797
 3947SOL     OW12160   4.240   5.020   2.655  0.0126 -0.4449  0.1219
 3947SOL    HW112161   4.226   4.922   2.649 -1.9506 -0.1376 -1.5725
 3947SOL    HW212162   4.324   5.045   2.606  1.6494 -1.4054  2.2719
 3948SOL     OW12163   3.825   0.605   4.125 -0.4343  0.1776 -0.0885
 3948SOL    HW112164   3.806   0.678   4.060 -1.0358 -0.8459 -1.1063
 3948SOL    HW212165   3.922   0.607   4.150 -0.2787  0.8428 -0.7018
 3949SOL     OW12166   4.192   1.102   2.167  0.3631 -0.1048  0.2023
 3949SOL    HW112167   4.177   1.103   2.266 -0.8944  0.7892  0.0355
 3949SOL    HW212168   4.290   1.107   2.148  0.6131 -0.1429  1.3959
 3950SOL     OW12169   4.971   1.554   2.496 -0.0180  0.2350  0.0292
 3950SOL    HW112170   4.882   1.600   2.485 -1.2025 -1.9724 -0.1455
 3950SOL    HW212171   4.968   1.494   2.576  1.6912  0.8653  0.6132
 3951SOL     OW12172   2.584   0.814   0.085  0.6769 -0.0195 -0.1217
 3951SOL    HW112173   2.608   0.872   0.163 -2.1381 -0.9671  1.6153
 3951SOL    HW212174   2.547   0.870   0.011  1.2081  0.6961  0.1500
 3952SOL     OW12175   5.549   2.374   2.310 -0.3792 -0.6769 -0.3946
 3952SOL    HW112176   5.637   2.350   2.268 -0.3599 -0.2013 -0.6241
 3952SOL    HW212177   5.479   2.379   2.239 -0.9257 -2.5397 -0.0450
 3953SOL     OW12178   5.572   3.544   2.689 -0.2880 -0.6757  0.2700
 3953SOL    HW112179   5.617   3.597   2.617  0.0549 -1.5035 -0.1386
 3953SOL    HW212180   5.483   3.585   2.710  0.1152  0.2598  0.2183
 3954SOL     OW12181   4.223   0.323   2.158  0.5568 -0.2819  0.9881
 3954SOL    HW112182   4.128   0.350   2.173  0.6649  1.5226 -1.0896
 3954SOL    HW212183   4.226   0.240   2.103  0.2357 -1.2929  2.4269
 3955SOL     OW12184   4.233   0.691   1.002  1.0828 -0.1140 -0.0404
 3955SOL    HW112185   4.217   0.718   0.907  0.9322 -0.9855 -0.2727
 3955SOL    HW212186   4.244   0.591   1.007 -1.0159 -0.3395  1.1308
 3956SOL     OW12187   4.499   1.850   0.825  0.0374 -0.0900  0.4288
 3956SOL    HW112188   4.523   1.942   0.858  0.8641  0.1167 -0.7045
 3956SOL    HW212189   4.581   1.793   0.823 -0.7802 -1.5341  3.0444
 3957SOL     OW12190   4.126   0.595   3.513  0.2964 -0.1261 -0.3566
 3957SOL    HW112191   4.066   0.654   3.567  0.9802  0.4681 -0.2331
 3957SOL    HW212192   4.144   0.636   3.424  0.9583 -0.0219 -0.1849
 3958SOL     OW12193   3.872   0.215   3.584  0.0920 -0.6096  0.6986
 3958SOL    HW112194   3.807   0.144   3.613 -1.0954 -0.4844 -1.4402
 3958SOL    HW212195   3.850   0.300   3.631 -1.4714 -0.5216 -0.1224
 3959SOL     OW12196   3.613   1.335   3.045  0.8252  0.3114  0.1482
 3959SOL    HW112197   3.643   1.355   3.138 -1.7342  0.3167  1.0553
 3959SOL    HW212198   3.662   1.394   2.981  2.3369  0.6056  1.5058
 3960SOL     OW12199   4.425   0.086   4.340  0.5133 -0.7571  0.0041
 3960SOL    HW112200   4.457   0.098   4.435  1.7739 -1.9616 -0.2342
 3960SOL    HW212201   4.433  -0.010   4.314  1.0283 -0.3084 -1.6134
 3961SOL     OW12202   3.878   1.086   1.331  0.0194 -0.1144  0.0786
 3961SOL    HW112203   3.884   1.052   1.425 -1.6906 -0.6803  0.0070
 3961SOL    HW212204   3.886   1.186   1.332 -0.5867 -0.0646  0.8976
 3962SOL     OW12205   2.886   0.774   3.416 -0.4192  0.3812 -0.1778
 3962SOL    HW112206   2.950   0.840   3.378 -0.0947  0.2823  0.1930
 3962SOL    HW212207   2.877   0.788   3.514  1.4039 -1.5489  0.3381
 3963SOL     OW12208   3.766   1.345   4.679  0.2863 -0.3051 -0.3962
 3963SOL    HW112209   3.756   1.406   4.602  0.4218 -0.3031 -0.4127
 3963SOL    HW212210   3.795   1.254   4.647  1.0526 -0.1107 -0.2917
 3964SOL     OW12211   3.901   5.410   1.645 -0.5922  0.4778 -0.0577
 3964SOL    HW112212   3.878   5.386   1.739 -1.9837 -0.6926 -0.6660
 3964SOL    HW212213   3.869   5.339   1.583 -1.5895  2.1775 -1.6198
 3965SOL     OW12214   3.741   0.818   3.959  0.1539 -0.3490 -0.1471
 3965SOL    HW112215   3.652   0.775   3.944  0.5113 -1.2740  0.3094
 3965SOL    HW212216   3.731   0.894   4.023 -0.2197 -0.8024  0.3375
 3966SOL     OW12217   3.390   5.335   1.535  0.4011 -0.0868  0.2440
 3966SOL    HW112218   3.423   5.330   1.441  0.1667 -1.2562  0.2085
 3966SOL    HW212219   3.387   5.243   1.575  0.7280  0.4067  1.4817
 3967SOL     OW12220   4.895   5.256   3.083  0.1079  0.2555 -0.0346
 3967SOL    HW112221   4.966   5.323   3.106  0.9695 -1.2314  1.8438
 3967SOL    HW212222   4.813   5.274   3.137 -1.0842  1.9906 -2.2238
 3968SOL     OW12223   3.677   0.972   1.796  0.1386  0.1575 -0.3530
 3968SOL    HW112224   3.706   1.036   1.868 -1.9403  0.0061  0.6898
 3968SOL    HW212225   3.709   0.880   1.818  1.9278  0.5560 -1.1286
 3969SOL     OW12226   4.082   1.318   2.510  0.1709 -0.6519  0.1492
 3969SOL    HW112227   4.121   1.237   2.468  0.4858 -0.4056 -0.0374
 3969SOL    HW212228   3.993   1.337   2.469  0.3333 -0.5986 -0.1764
 3970SOL     OW12229   0.060   1.040   2.586  0.0139  0.2516  0.3112
 3970SOL    HW112230  -0.001   0.991   2.648 -0.2576  2.0393  1.5237
 3970SOL    HW212231   0.138   1.076   2.637  1.1834 -0.4602 -0.8985
 3971SOL     OW12232   3.238   0.864   1.659 -0.6460 -0.0369 -0.4299
 3971SOL    HW112233   3.150   0.911   1.659 -1.5700 -1.6003  1.3468
 3971SOL    HW212234   3.222   0.765   1.667  1.2717 -0.2621  1.4294
 3972SOL     OW12235   4.907   1.159   1.678 -0.0534 -0.0902 -0.5346
 3972SOL    HW112236   4.981   1.109   1.722 -0.0102  0.8171  0.4814
 3972SOL    HW212237   4.937   1.252   1.657 -0.4260 -0.1800 -1.5342
 3973SOL     OW12238   3.243   2.041   5.253  0.1792 -0.0605  0.1178
 3973SOL    HW112239   3.193   2.073   5.334  0.3048 -1.5274  0.8024
 3973SOL    HW212240   3.183   1.987   5.195  0.1807  0.7070 -0.6259
 3974SOL     OW12241   5.417   3.317   1.904  0.0006  0.1559 -1.0618
 3974SOL    HW112242   5.356   3.286   1.977 -1.0561  0.0446 -1.9531
 3974SOL    HW212243   5.379   3.400   1.862  0.0223 -0.3661 -2.1575
 3975SOL     OW12244   4.715   4.643   3.896  0.2032  0.0814  0.4760
 3975SOL    HW112245   4.625   4.613   3.927 -0.2560 -0.2696 -1.0637
 3975SOL    HW212246   4.784   4.576   3.923 -0.3224 -0.7055 -0.0687
 3976SOL     OW12247   4.372   0.916   1.907 -0.1551  0.5391 -0.5117
 3976SOL    HW112248   4.309   0.985   1.871 -0.1925 -0.0458 -1.5831
 3976SOL    HW212249   4.356   0.828   1.863  0.9799  0.2215 -0.3350
 3977SOL     OW12250   4.324   2.612   2.441  0.0925 -0.8445 -0.1895
 3977SOL    HW112251   4.344   2.682   2.372 -1.5290  0.2039  0.3724
 3977SOL    HW212252   4.294   2.529   2.395 -2.2477  0.2491 -0.7880
 3978SOL     OW12253   0.317   5.238   3.209  0.2309  0.5658  0.3390
 3978SOL    HW112254   0.225   5.205   3.185 -0.4517  2.1373  0.7188
 3978SOL    HW212255   0.375   5.159   3.230 -0.6209 -0.5552 -1.2413
 3979SOL     OW12256   3.702   2.076   3.397 -0.2442  0.1045  0.0114
 3979SOL    HW112257   3.615   2.091   3.351 -0.7473  2.3214  1.5076
 3979SOL    HW212258   3.698   1.991   3.450 -1.7727  0.5202  0.5989
 3980SOL     OW12259   3.958   2.343   1.455 -0.3413  0.1763 -0.6778
 3980SOL    HW112260   3.994   2.287   1.529 -0.9178  0.9753  0.2300
 3980SOL    HW212261   3.994   2.436   1.463 -2.3060  0.9318  0.0950
 3981SOL     OW12262   3.798   1.411   2.822 -0.3261  0.7991  0.4712
 3981SOL    HW112263   3.816   1.337   2.757  3.2583  1.4613  0.5498
 3981SOL    HW212264   3.763   1.491   2.772  2.1328  1.2137 -0.7007
 3982SOL     OW12265   5.145   0.223   3.832  0.5635  0.1555 -0.4701
 3982SOL    HW112266   5.232   0.176   3.817 -0.6688 -2.7609  0.7901
 3982SOL    HW212267   5.110   0.201   3.923 -0.9823  2.2167 -0.4699
 3983SOL     OW12268   4.035   5.497   3.010  0.2842  0.6728  0.4344
 3983SOL    HW112269   4.078   5.482   2.920  1.2948 -1.0487  1.1481
 3983SOL    HW212270   4.067   5.583   3.048 -0.4721  1.6354 -1.0099
 3984SOL     OW12271   3.330   1.323   3.712 -0.6106  0.5761 -0.0035
 3984SOL    HW112272   3.385   1.379   3.649 -2.1352  1.8345 -0.2799
 3984SOL    HW212273   3.292   1.382   3.783  0.2746 -0.6737  1.5435
 3985SOL     OW12274   4.977   1.379   2.696 -0.4357  0.4298  0.0104
 3985SOL    HW112275   4.940   1.435   2.770  0.2380  0.1999  0.5234
 3985SOL    HW212276   4.953   1.283   2.712 -1.1849  0.4983 -0.6228
 3986SOL     OW12277   0.010   1.619   2.589  0.2361  0.2667  0.0040
 3986SOL    HW112278   0.099   1.583   2.618  0.3328  0.0144 -0.6053
 3986SOL    HW212279  -0.025   1.680   2.661  1.0917  0.7073  0.0728
 3987SOL     OW12280   4.623   0.539   1.571  0.0572 -0.4413  0.2497
 3987SOL    HW112281   4.682   0.537   1.490  1.7885  1.4261  1.3627
 3987SOL    HW212282   4.547   0.601   1.554 -0.7932 -1.6808 -0.6505
 3988SOL     OW12283   4.599   5.548   2.160  0.2099  0.2421  0.4219
 3988SOL    HW112284   4.542   5.557   2.078  1.5470  2.1653 -0.3865
 3988SOL    HW212285   4.694   5.531   2.133  0.3266 -1.2981  1.6834
 3989SOL     OW12286   4.321   5.533   0.453 -0.0173  0.0687 -0.3251
 3989SOL    HW112287   4.305   5.625   0.420 -0.1763 -0.0522 -0.5852
 3989SOL    HW212288   4.377   5.537   0.536 -2.1840  0.5470  1.1832
 3990SOL     OW12289   4.659   1.522   0.811 -0.0577  0.0411 -0.2674
 3990SOL    HW112290   4.690   1.588   0.743  0.1971 -0.1315 -0.3174
 3990SOL    HW212291   4.734   1.501   0.874  0.0285 -0.6342 -0.5958
 3991SOL     OW12292   2.624   0.271   2.143 -0.6358 -0.1498 -0.2290
 3991SOL    HW112293   2.679   0.244   2.063 -1.7056 -0.9587 -0.7178
 3991SOL    HW212294   2.592   0.189   2.190 -0.1572  0.3232  0.9605
 3992SOL     OW12295   4.111   0.855   2.966  0.4903 -0.1678  0.8040
 3992SOL    HW112296   4.021   0.811   2.957  0.0081  0.4002  2.4725
 3992SOL    HW212297   4.177   0.809   2.907 -0.8959 -0.5920 -0.4623
 3993SOL     OW12298   0.092   0.921   3.642 -0.5667  0.4402 -0.0484
 3993SOL    HW112299   0.187   0.939   3.617 -0.7530  1.5989  0.0437
 3993SOL    HW212300   0.073   0.958   3.733 -1.2970  0.8466 -0.3557
 3994SOL     OW12301   5.010   0.885   2.448 -0.8403 -0.1156 -0.1161
 3994SOL    HW112302   5.024   0.940   2.366 -2.0712 -0.0266 -0.2831
 3994SOL    HW212303   4.912   0.879   2.468 -0.5526  0.0933  1.5047
 3995SOL     OW12304   3.994   0.755   2.648  0.2775 -0.1220  0.1845
 3995SOL    HW112305   4.042   0.843   2.649 -0.9511  0.6929 -2.6061
 3995SOL    HW212306   4.041   0.692   2.586  1.1623 -1.5318  2.1758
 3996SOL     OW12307   4.241   1.347   1.497 -0.8149 -0.3868  0.6024
 3996SOL    HW112308   4.179   1.390   1.431  0.6179 -2.5749 -2.3684
 3996SOL    HW212309   4.227   1.248   1.496  1.7681 -0.8056  0.8855
 3997SOL     OW12310   5.228   0.157   1.895  0.0140  0.9586  0.9909
 3997SOL    HW112311   5.168   0.204   1.959 -3.5688 -1.3701 -0.3641
 3997SOL    HW212312   5.245   0.064   1.928 -0.6380  0.2303 -0.6568
 3998SOL     OW12313   3.180   0.394   3.357 -1.0404 -0.6117 -0.1098
 3998SOL    HW112314   3.188   0.453   3.276  0.3608 -1.8748 -0.9679
 3998SOL    HW212315   3.159   0.449   3.437 -1.0943  0.8678 -1.1007
 3999SOL     OW12316   3.693   0.677   2.639  0.5337  0.1157 -0.5854
 3999SOL    HW112317   3.771   0.708   2.585 -0.2303  0.0537 -1.7390
 3999SOL    HW212318   3.723   0.605   2.702  1.4088  0.1216 -0.9769
 4000SOL     OW12319   4.336   1.473   3.749  0.5780 -0.6099  0.2919
 4000SOL    HW112320   4.270   1.442   3.818  1.4142 -0.1843  1.3137
 4000SOL    HW212321   4.410   1.406   3.742  2.4550  1.0227  2.5926
 4001SOL     OW12322  -0.029   3.903   2.860  0.1450 -0.3297  0.3122
 4001SOL    HW112323   0.052   3.851   2.887  1.4578  2.6171  2.7009
 4001SOL    HW212324  -0.006   3.961   2.782 -0.1867 -0.6712 -0.0408
 4002SOL     OW12325   4.567   1.095   2.445  0.1881 -0.2150  0.3439
 4002SOL    HW112326   4.556   1.120   2.349  0.4489  1.7989  0.7993
 4002SOL    HW212327   4.541   1.172   2.504  3.1708 -0.1369  1.7944
 4003SOL     OW12328   5.402   0.701   1.551  0.1006 -0.4191 -0.3674
 4003SOL    HW112329   5.336   0.646   1.501  0.4087  0.0102 -1.2649
 4003SOL    HW212330   5.429   0.653   1.634 -0.6979 -0.9741 -0.4130
 4004SOL     OW12331   4.462   1.135   3.287 -0.0994 -0.2759 -0.3221
 4004SOL    HW112332   4.505   1.204   3.229  0.5451 -0.9362 -0.6433
 4004SOL    HW212333   4.386   1.177   3.337 -0.4136  0.4020 -1.3312
 4005SOL     OW12334   5.062   0.306   2.026 -0.1421 -0.0436  0.1031
 4005SOL    HW112335   4.975   0.292   1.977  0.0004 -1.6101  0.2445
 4005SOL    HW212336   5.043   0.325   2.123 -0.3402 -0.3380  0.1244
 4006SOL     OW12337   5.229   1.440   2.187 -0.5426  0.1869 -0.1997
 4006SOL    HW112338   5.266   1.356   2.227  0.6576  1.3011  1.1705
 4006SOL    HW212339   5.276   1.459   2.101  0.8332  0.6153  0.6121
 4007SOL     OW12340   4.912   1.459   0.951 -0.5335 -0.2606 -0.1944
 4007SOL    HW112341   4.974   1.495   0.881 -2.2640  0.8155 -1.2285
 4007SOL    HW212342   4.958   1.385   1.000  2.3004  1.6870  0.4005
 4008SOL     OW12343   3.965   0.290   2.225 -0.2454  0.4865  0.2989
 4008SOL    HW112344   3.933   0.202   2.189  1.6718 -0.0089 -0.3205
 4008SOL    HW212345   3.948   0.293   2.324  0.3072 -0.9196  0.4629
 4009SOL     OW12346   0.962   5.620   4.300  0.1803 -0.2842 -0.5167
 4009SOL    HW112347   0.888   5.560   4.268 -1.3963 -0.1755  2.5905
 4009SOL    HW212348   1.044   5.564   4.317 -0.5254 -1.1820  0.0548
 4010SOL     OW12349   4.739   1.519   3.904  0.2530 -0.0492  0.2727
 4010SOL    HW112350   4.675   1.594   3.887 -0.2030 -0.4041  0.4050
 4010SOL    HW212351   4.758   1.514   4.002  0.2160 -0.1602  0.2740
 4011SOL     OW12352   5.002   2.594   2.250 -0.0236  0.6723 -0.0134
 4011SOL    HW112353   4.912   2.553   2.265 -0.1580  1.2657  0.8764
 4011SOL    HW212354   5.020   2.663   2.321  0.0551  2.4062 -1.6343
 4012SOL     OW12355   5.053   1.359   1.876  0.1411  0.9475  0.2926
 4012SOL    HW112356   5.073   1.444   1.924 -1.4644  2.1111 -1.0129
 4012SOL    HW212357   5.133   1.299   1.881  1.6439  2.8543  0.5254
 4013SOL     OW12358   3.772   1.763   3.784 -0.3736  0.0172 -0.2456
 4013SOL    HW112359   3.736   1.735   3.873 -0.0513 -0.9285 -0.3980
 4013SOL    HW212360   3.867   1.734   3.776 -1.2679 -2.7926 -2.0925
 4014SOL     OW12361   4.110   5.403   2.763  0.5009 -0.3038  0.2535
 4014SOL    HW112362   4.073   5.311   2.776  1.3503 -0.5047  1.3077
 4014SOL    HW212363   4.060   5.448   2.689  0.9023 -2.0659 -1.1560
 4015SOL     OW12364   5.023   1.510   3.367 -0.5511  0.3402 -0.3481
 4015SOL    HW112365   5.063   1.536   3.455 -2.3852  0.9666  0.3481
 4015SOL    HW212366   5.029   1.411   3.354  4.0575  0.5798 -1.7790
 4016SOL     OW12367   4.372   1.961   2.308  0.5435 -0.0166  0.2032
 4016SOL    HW112368   4.351   1.987   2.214  2.4686  0.1368 -0.2307
 4016SOL    HW212369   4.468   1.982   2.327  0.3252 -0.5388  2.0417
 4017SOL     OW12370   4.147   5.149   4.498 -0.2817 -0.1546  0.1151
 4017SOL    HW112371   4.188   5.239   4.486 -0.3901 -0.3683 -2.5130
 4017SOL    HW212372   4.218   5.082   4.520  0.3027  0.0549 -1.0778
 4018SOL     OW12373   4.122   0.709   4.222  0.7356  0.3969  0.3628
 4018SOL    HW112374   4.151   0.768   4.146  0.0025  0.3139  0.0087
 4018SOL    HW212375   4.111   0.765   4.304 -3.1085  1.5106 -0.6719
 4019SOL     OW12376   3.799   0.887   5.224  0.5809 -0.1255  0.1976
 4019SOL    HW112377   3.880   0.863   5.278  0.0100  2.1076  2.1828
 4019SOL    HW212378   3.828   0.929   5.138  1.4930 -1.6642 -0.2899
 4020SOL     OW12379   3.881   0.746   2.891  0.5513 -0.3773  0.4006
 4020SOL    HW112380   3.848   0.655   2.915  1.8415 -0.9437  0.1168
 4020SOL    HW212381   3.909   0.747   2.795  0.9004  0.2205  0.5020
 4021SOL     OW12382   4.002   5.533   2.532 -0.3990 -0.3332  0.7347
 4021SOL    HW112383   4.090   5.529   2.484 -0.5149 -1.1192  0.5839
 4021SOL    HW212384   3.928   5.512   2.468 -0.5467 -1.4919  1.2632
 4022SOL     OW12385   3.909   1.861   1.471 -0.0239  0.3242  0.1179
 4022SOL    HW112386   3.997   1.885   1.432  0.0790  0.9610  0.7169
 4022SOL    HW212387   3.853   1.943   1.481 -0.7421 -0.0937 -0.3794
 4023SOL     OW12388   0.143   1.835   3.662  0.1332 -0.0285 -0.0410
 4023SOL    HW112389   0.170   1.749   3.705 -0.7672 -0.1356  0.3418
 4023SOL    HW212390   0.051   1.827   3.625  0.3684  0.5081 -0.7805
 4024SOL     OW12391   5.054   1.371   1.495  0.8534 -0.3067 -0.0576
 4024SOL    HW112392   5.091   1.360   1.402 -2.0752 -2.0422 -1.1546
 4024SOL    HW212393   4.995   1.452   1.497 -0.0113 -0.9227 -0.0855
 4025SOL     OW12394   4.285   1.686   3.569  0.1854 -0.4617  0.4445
 4025SOL    HW112395   4.274   1.756   3.639 -0.1659 -1.0962  1.0311
 4025SOL    HW212396   4.286   1.595   3.612  1.6325 -0.7805 -0.1907
 4026SOL     OW12397   4.112   1.224   3.991 -0.0620  0.5498  0.1471
 4026SOL    HW112398   4.209   1.204   4.010  0.2870  2.0688  0.0536
 4026SOL    HW212399   4.071   1.147   3.943  0.8819 -0.4649  0.9171
 4027SOL     OW12400   5.441   1.670   2.371 -0.0162 -0.3687  0.0911
 4027SOL    HW112401   5.480   1.640   2.284  1.3655  0.8344  0.2707
 4027SOL    HW212402   5.500   1.642   2.446 -1.1343 -1.2807  0.6778
 4028SOL     OW12403   4.987   0.345   3.384 -0.1042 -0.3032 -0.1379
 4028SOL    HW112404   4.932   0.421   3.417 -1.0197 -1.2616  0.6055
 4028SOL    HW212405   5.013   0.363   3.289 -1.1139  0.5043 -0.2906
 4029SOL     OW12406   4.848   1.194   3.134 -0.4050 -0.5984  0.1045
 4029SOL    HW112407   4.934   1.238   3.109  0.0435 -1.3726  0.2486
 4029SOL    HW212408   4.867   1.116   3.195 -1.3631  0.5061  1.9222
 4030SOL     OW12409   4.729   0.161   2.981 -0.1089  0.2196  0.2001
 4030SOL    HW112410   4.709   0.146   3.078 -0.0124  1.4550  0.4296
 4030SOL    HW212411   4.658   0.219   2.941 -0.1505 -0.2875 -0.4793
 4031SOL     OW12412   0.094   1.712   3.138  0.2875  0.1171 -0.2999
 4031SOL    HW112413   0.060   1.679   3.050 -2.2252  0.7681  0.3414
 4031SOL    HW212414   0.055   1.803   3.157  0.1689 -0.3136  1.7887
 4032SOL     OW12415   4.992   0.148   3.006 -0.4771 -0.2117 -0.2569
 4032SOL    HW112416   4.895   0.160   2.982 -0.0295  0.7606 -1.7140
 4032SOL    HW212417   5.022   0.225   3.063 -0.6093 -0.6316  0.3877
 4033SOL     OW12418   3.485   5.482   4.665 -0.2242  0.2346  0.1380
 4033SOL    HW112419   3.542   5.554   4.623 -0.2707  0.3673  0.3017
 4033SOL    HW212420   3.390   5.496   4.637 -0.2402  0.2633  0.2076
 4034SOL     OW12421   3.667   1.452   3.774  0.3409  0.0075  0.3180
 4034SOL    HW112422   3.758   1.445   3.733  0.3373  0.4812  0.2301
 4034SOL    HW212423   3.605   1.500   3.712 -0.2331 -1.1559 -0.0371
 4035SOL     OW12424   3.773   1.830   2.397  0.4649  0.2701  0.0922
 4035SOL    HW112425   3.820   1.910   2.435 -0.5990  0.8774  0.1731
 4035SOL    HW212426   3.688   1.814   2.448 -1.1527  1.2630 -2.1294
 4036SOL     OW12427   0.707   2.378   3.481  0.1622  0.1771 -0.0264
 4036SOL    HW112428   0.748   2.291   3.456  0.6407  0.8724 -1.8318
 4036SOL    HW212429   0.700   2.385   3.581 -1.2384 -2.4970  0.1385
 4037SOL     OW12430   3.946   1.359   3.047 -0.0985  0.1019  0.3049
 4037SOL    HW112431   3.976   1.264   3.058  0.6112  0.3587  0.6469
 4037SOL    HW212432   3.869   1.362   2.984 -1.0011 -0.8551  1.3181
 4038SOL     OW12433   4.945   1.946   1.123 -0.7508 -0.0513 -0.1031
 4038SOL    HW112434   5.002   1.925   1.044 -0.9016 -0.4056 -0.1174
 4038SOL    HW212435   4.850   1.924   1.102 -0.7712 -0.2787  0.2294
 4039SOL     OW12436   4.705   0.790   2.290 -0.1236  0.3608 -0.2116
 4039SOL    HW112437   4.733   0.829   2.378 -1.4735 -0.9697  0.8760
 4039SOL    HW212438   4.625   0.839   2.255 -0.1327  0.3226 -0.2452
 4040SOL     OW12439   0.162   1.924   4.375  0.2784 -0.0313 -0.3879
 4040SOL    HW112440   0.173   1.953   4.470 -1.8136 -0.4891  0.0500
 4040SOL    HW212441   0.096   1.848   4.370  1.6055 -1.1637 -2.0514
 4041SOL     OW12442   0.032   2.020   4.133 -0.3336  0.7417  0.0255
 4041SOL    HW112443   0.050   1.956   4.208  0.3911 -0.0197 -0.7838
 4041SOL    HW212444  -0.002   2.106   4.171 -0.1483  0.3107  1.2204
 4042SOL     OW12445   4.817   0.944   4.155  0.4324  0.2416 -0.0611
 4042SOL    HW112446   4.851   0.854   4.181 -0.5522  0.4395  2.1209
 4042SOL    HW212447   4.880   1.014   4.189 -0.9164  0.5107  2.0237
 4043SOL     OW12448   5.263   5.349   2.950  0.0679 -0.0609 -0.5680
 4043SOL    HW112449   5.207   5.400   3.015  1.4863  1.3657 -0.4102
 4043SOL    HW212450   5.291   5.409   2.875  1.8190 -0.5731 -0.3721
 4044SOL     OW12451   4.199   5.451   2.310 -0.8252  0.5907  0.1518
 4044SOL    HW112452   4.135   5.463   2.234 -0.6227 -0.0406 -0.1182
 4044SOL    HW212453   4.181   5.365   2.357  1.2933 -0.7749 -1.3660
 4045SOL     OW12454   5.549   1.227   1.891  0.0774  0.3843 -0.1741
 4045SOL    HW112455   5.632   1.280   1.871  0.2805  0.6328  1.1737
 4045SOL    HW212456   5.563   1.132   1.863  0.0022  0.8569 -1.9044
 4046SOL     OW12457   4.314   0.622   4.590  0.0691  0.2429  0.0070
 4046SOL    HW112458   4.380   0.694   4.610 -0.2245  0.4302  0.3029
 4046SOL    HW212459   4.346   0.568   4.512  0.4137  0.5315 -0.0511
 4047SOL     OW12460   4.621   0.359   3.268 -0.5048 -0.0196  0.1799
 4047SOL    HW112461   4.546   0.398   3.322  0.2449 -0.0716  1.3069
 4047SOL    HW212462   4.648   0.271   3.307 -0.4206 -0.4086 -0.7307
 4048SOL     OW12463   4.711   0.781   2.776  0.2208  0.1244 -0.3875
 4048SOL    HW112464   4.654   0.699   2.772  0.9693 -0.4048 -0.3527
 4048SOL    HW212465   4.687   0.834   2.857  0.1898 -0.3954 -0.0535
 4049SOL     OW12466   4.676   5.169   2.096 -0.3904 -0.4832  0.2123
 4049SOL    HW112467   4.720   5.206   2.015  1.0630 -0.0167  1.1840
 4049SOL    HW212468   4.577   5.182   2.089 -0.2611 -0.1425 -1.3072
 4050SOL     OW12469   4.402   0.888   2.469  0.1447  0.1151 -0.7295
 4050SOL    HW112470   4.463   0.967   2.473 -1.3748  1.4090 -1.8138
 4050SOL    HW212471   4.387   0.863   2.374 -1.3103  0.0984 -0.5158
 4051SOL     OW12472   3.103   2.506   3.602  0.1548 -0.2672  0.2680
 4051SOL    HW112473   3.064   2.414   3.603 -0.6416  0.0515  1.8644
 4051SOL    HW212474   3.184   2.509   3.660 -0.3101  0.2082  0.9161
 4052SOL     OW12475   3.250   0.837   2.371 -0.0381  0.6838 -0.8045
 4052SOL    HW112476   3.331   0.851   2.314 -0.7574 -1.6778 -2.5886
 4052SOL    HW212477   3.168   0.852   2.315 -0.9030  3.2991  1.0332
 4053SOL     OW12478   4.836   1.679   3.281 -0.1717 -0.1030  0.4371
 4053SOL    HW112479   4.912   1.618   3.305 -0.1485 -0.7014 -1.0536
 4053SOL    HW212480   4.759   1.662   3.342  0.3662 -0.5505  1.0012
 4054SOL     OW12481   4.264   0.926   3.407 -0.0254  0.9146  0.9032
 4054SOL    HW112482   4.256   0.837   3.362 -0.2131  0.9803  0.8023
 4054SOL    HW212483   4.337   0.979   3.364 -0.0505  0.8872  0.8264
 4055SOL     OW12484   4.332   0.746   3.871 -0.3047  0.2804  0.3079
 4055SOL    HW112485   4.294   0.783   3.786 -0.1020 -0.8693 -0.3028
 4055SOL    HW212486   4.289   0.791   3.949 -1.7957  0.1055 -0.3786
 4056SOL     OW12487   5.286   1.360   3.528 -0.1896  0.0560  0.2592
 4056SOL    HW112488   5.250   1.447   3.563  0.0354  0.0689  0.4583
 4056SOL    HW212489   5.261   1.286   3.590  0.4414  0.1172  0.5938
 4057SOL     OW12490   5.215   1.214   2.348 -0.0503  0.5832  0.3418
 4057SOL    HW112491   5.116   1.220   2.353 -0.0640  0.7159 -0.0113
 4057SOL    HW212492   5.256   1.263   2.424 -0.2365  1.5924 -0.1920
 4058SOL     OW12493   1.120   1.665   4.259 -0.3160 -0.0204  0.3180
 4058SOL    HW112494   1.118   1.566   4.272 -0.3144 -0.0207  0.3156
 4058SOL    HW212495   1.080   1.710   4.339 -0.6657 -0.0362  0.1521
 4059SOL     OW12496   4.637   0.936   3.665 -0.1664 -0.3846  0.2987
 4059SOL    HW112497   4.543   0.905   3.654 -0.6136  1.4879 -1.9467
 4059SOL    HW212498   4.663   0.932   3.762 -1.7553 -2.9778  0.7062
 4060SOL     OW12499   3.538   1.928   2.852 -0.7343  0.9608  0.1484
 4060SOL    HW112500   3.619   1.926   2.910 -0.3039  0.5282 -0.4500
 4060SOL    HW212501   3.532   2.016   2.804  0.2325  0.4381 -0.9680
 4061SOL     OW12502   3.666   1.828   3.546  0.0015  0.0484  0.1975
 4061SOL    HW112503   3.572   1.797   3.553  0.0933 -0.3944 -0.3969
 4061SOL    HW212504   3.714   1.812   3.632 -0.2399 -0.5028  0.2307
 4062SOL     OW12505   4.430   5.574   2.383  0.4156 -0.5199  0.1033
 4062SOL    HW112506   4.340   5.546   2.351 -1.1239  4.4395 -0.8435
 4062SOL    HW212507   4.499   5.552   2.314 -0.6553 -1.4082 -0.7028
 4063SOL     OW12508   2.542   1.958  -0.007  0.0600  0.0451 -0.3200
 4063SOL    HW112509   2.621   1.905  -0.039  0.7827  1.1562 -0.4158
 4063SOL    HW212510   2.508   1.919   0.078  2.5217  1.2068  1.3127
 4064SOL     OW12511   4.114   1.506   2.277 -0.2576 -0.2027  0.4808
 4064SOL    HW112512   4.199   1.498   2.330 -0.7930 -0.8803  1.2548
 4064SOL    HW212513   4.036   1.510   2.339 -0.7217  2.0441 -0.1434
 4065SOL     OW12514   5.447   1.620   0.526 -0.2565  0.2328  0.2302
 4065SOL    HW112515   5.461   1.562   0.607  2.9833 -1.8241 -1.5962
 4065SOL    HW212516   5.361   1.594   0.482 -0.6667 -0.5808  1.4430
 4066SOL     OW12517   4.861   1.052   1.977  0.6769  0.5176  0.1408
 4066SOL    HW112518   4.853   1.096   1.888  1.5894  0.3873 -0.0174
 4066SOL    HW212519   4.792   0.979   1.985  1.2022 -0.1115 -0.8489
 4067SOL     OW12520   4.533   1.501   2.973  0.0172 -0.0878 -0.2209
 4067SOL    HW112521   4.486   1.471   2.889  0.3714 -2.0488  0.2286
 4067SOL    HW212522   4.490   1.584   3.007 -2.3514 -1.1310 -0.4917
 4068SOL     OW12523   5.220   5.483   3.908 -0.4987  0.4723 -0.0585
 4068SOL    HW112524   5.187   5.461   3.816  0.7548  0.4404 -0.5150
 4068SOL    HW212525   5.278   5.565   3.904 -1.2923  1.1174  0.8836
 4069SOL     OW12526   4.265   2.233   4.366 -0.3198 -0.1836  0.0187
 4069SOL    HW112527   4.283   2.304   4.299  0.3903  0.8476  1.2509
 4069SOL    HW212528   4.310   2.148   4.338  2.5829  1.0462  0.6324
 4070SOL     OW12529   5.133   5.198   0.947 -0.0643  0.4693  0.1926
 4070SOL    HW112530   5.106   5.147   0.866  0.0213 -0.3802  0.6897
 4070SOL    HW212531   5.058   5.260   0.973 -1.6662 -1.8767  1.5782
 4071SOL     OW12532   4.742   1.758   1.043  0.2511 -0.3051 -0.6269
 4071SOL    HW112533   4.743   1.787   0.947  1.1162 -0.0077 -0.5427
 4071SOL    HW212534   4.787   1.669   1.051  0.9600  0.0594 -0.3997
 4072SOL     OW12535   3.755   2.321   3.283 -0.1500 -0.4431 -0.4206
 4072SOL    HW112536   3.773   2.236   3.333 -0.9132  0.6418  1.7951
 4072SOL    HW212537   3.842   2.356   3.247  0.7553 -0.3674  1.6774
 4073SOL     OW12538   3.775   0.726   2.292 -0.1929  0.3302 -0.1420
 4073SOL    HW112539   3.746   0.648   2.348  0.1946 -0.5054 -1.0958
 4073SOL    HW212540   3.803   0.695   2.202 -0.7162  1.6643 -0.7892
 4074SOL     OW12541   4.652   1.256   3.908 -0.0672  0.1016  0.2309
 4074SOL    HW112542   4.627   1.247   4.004  1.0206  0.9249  0.6188
 4074SOL    HW212543   4.660   1.353   3.885 -1.9299 -0.0095 -1.1560
 4075SOL     OW12544   0.505   2.125   0.958 -0.3221  0.7982 -0.3840
 4075SOL    HW112545   0.493   2.167   0.868 -0.2648  3.0962  0.6025
 4075SOL    HW212546   0.525   2.197   1.025 -0.7216 -0.8134  1.5331
 4076SOL     OW12547   1.741   3.320   2.120  0.5090  0.2661 -0.5653
 4076SOL    HW112548   1.773   3.324   2.215  1.1332 -2.6083 -0.5611
 4076SOL    HW212549   1.651   3.278   2.117  0.7159 -0.1384 -1.2830
 4077SOL     OW12550   0.342   0.489   3.792  0.6984  0.0906 -1.0369
 4077SOL    HW112551   0.314   0.549   3.717  1.5131  0.8331 -0.7688
 4077SOL    HW212552   0.365   0.544   3.872 -0.0343 -0.6848 -0.2683
 4078SOL     OW12553   4.224   0.861   3.667 -0.0537  0.2291  0.2788
 4078SOL    HW112554   4.243   0.892   3.574 -0.8394 -1.4490 -0.4842
 4078SOL    HW212555   4.127   0.874   3.688 -0.0602 -0.2093  0.5349
 4079SOL     OW12556   4.727   1.434   1.380  0.4230 -0.2158  0.5856
 4079SOL    HW112557   4.635   1.473   1.384  0.5919  0.1823  0.7201
 4079SOL    HW212558   4.794   1.508   1.367  0.5730 -0.6724 -1.4955
 4080SOL     OW12559   4.196   2.609   3.695  0.1828  0.1408 -0.0552
 4080SOL    HW112560   4.156   2.609   3.786 -0.6117 -1.1958 -0.3703
 4080SOL    HW212561   4.154   2.682   3.640  2.2731  2.4908  1.2394
 4081SOL     OW12562   4.351   1.484   1.700  0.1663 -0.3596  0.2283
 4081SOL    HW112563   4.355   1.426   1.782 -0.6474 -0.4528  0.2081
 4081SOL    HW212564   4.310   1.433   1.625 -0.8085  0.3042  0.2792
 4082SOL     OW12565   5.407   1.737   1.445 -0.3994 -0.0843  0.0078
 4082SOL    HW112566   5.354   1.815   1.411  0.2430  0.2393 -0.2772
 4082SOL    HW212567   5.346   1.659   1.460 -1.0990  0.5517  0.5632
 4083SOL     OW12568   3.829   0.385   4.923 -0.5125 -0.1231  0.6526
 4083SOL    HW112569   3.849   0.434   5.007  2.2147  1.0830 -0.5726
 4083SOL    HW212570   3.795   0.450   4.854  0.3784 -0.4482 -0.1213
 4084SOL     OW12571   5.259   1.463   1.642  0.2214  0.4659  0.1791
 4084SOL    HW112572   5.211   1.546   1.669 -0.3478  1.1815 -2.6744
 4084SOL    HW212573   5.202   1.410   1.579  1.8215 -0.3978 -0.6309
 4085SOL     OW12574   0.118   1.195   1.553  0.2710  0.5377  0.3706
 4085SOL    HW112575   0.033   1.240   1.578 -1.4261 -1.7524 -0.8459
 4085SOL    HW212576   0.164   1.248   1.482 -0.2761  1.6812  0.8487
 4086SOL     OW12577   5.003   0.095   3.522 -0.2521 -0.7107  0.2685
 4086SOL    HW112578   5.034   0.122   3.614  2.0145 -0.6405 -0.4555
 4086SOL    HW212579   5.019   0.171   3.459  1.0374 -1.7621 -0.7307
 4087SOL     OW12580   4.535   0.481   2.716  0.3649 -0.2613 -0.3168
 4087SOL    HW112581   4.546   0.457   2.620 -0.8654 -1.2561 -0.2398
 4087SOL    HW212582   4.490   0.405   2.764 -0.0959  0.6853  0.7858
 4088SOL     OW12583   5.113   1.281   3.147 -0.0826 -0.0827  0.1147
 4088SOL    HW112584   5.206   1.245   3.137  0.7408  2.0777 -0.3997
 4088SOL    HW212585   5.092   1.293   3.244  0.5176  0.2975  0.1975
 4089SOL     OW12586   3.216   5.476   1.106 -0.2342 -0.5287  0.0960
 4089SOL    HW112587   3.268   5.521   1.033 -0.2395  0.0477  0.4353
 4089SOL    HW212588   3.279   5.423   1.163 -0.4374 -2.2407 -1.2050
 4090SOL     OW12589   2.989   0.791   4.761  0.2396  0.0754  0.3220
 4090SOL    HW112590   2.951   0.755   4.675  0.3013 -0.1199  0.3754
 4090SOL    HW212591   2.916   0.833   4.815  0.5367  2.1076 -0.7590
 4091SOL     OW12592   3.005   5.535   3.636 -0.4039  0.1821  0.4505
 4091SOL    HW112593   3.041   5.609   3.580  0.9704  1.1715  2.5013
 4091SOL    HW212594   3.075   5.466   3.650 -1.3341 -1.0157 -0.5423
 4092SOL     OW12595   3.737   1.303   1.732  0.1633 -0.1760  0.3616
 4092SOL    HW112596   3.724   1.258   1.821  0.7602  0.7819  0.9440
 4092SOL    HW212597   3.834   1.312   1.713  0.0908  2.0006  0.8574
 4093SOL     OW12598   4.749   1.741   3.029 -0.0134 -0.3915 -0.1553
 4093SOL    HW112599   4.783   1.731   3.122  2.0638  0.1461 -0.8091
 4093SOL    HW212600   4.783   1.665   2.973 -1.2514 -0.7192 -0.4982
 4094SOL     OW12601   3.680   0.440   1.394 -0.4137 -0.4613  0.4972
 4094SOL    HW112602   3.658   0.368   1.460 -1.2572  0.0202  0.7582
 4094SOL    HW212603   3.651   0.529   1.431  0.7015  0.0323  0.2207
 4095SOL     OW12604   4.515   1.704   1.739  0.9256 -0.4114  0.5825
 4095SOL    HW112605   4.452   1.634   1.706  0.6873 -0.0647  0.2918
 4095SOL    HW212606   4.607   1.683   1.707  0.6317  0.1460 -0.7001
 4096SOL     OW12607   5.011   1.250   3.404 -0.2648 -0.1257 -0.0240
 4096SOL    HW112608   4.921   1.218   3.433 -0.9359  0.1880 -1.6241
 4096SOL    HW212609   5.079   1.232   3.475 -1.7486  0.4368  1.5790
 4097SOL     OW12610   0.044   2.846   2.774  0.0106  0.4033  0.2159
 4097SOL    HW112611   0.028   2.776   2.844  2.1582 -0.0679  0.3052
 4097SOL    HW212612   0.002   2.818   2.688 -1.8415  0.5390  1.0204
 4098SOL     OW12613   0.170   1.564   3.352  0.2272  0.4328 -0.7418
 4098SOL    HW112614   0.133   1.606   3.269  0.6396  0.9849 -0.6508
 4098SOL    HW212615   0.096   1.523   3.405 -0.2357  1.3655 -0.6555
 4099SOL     OW12616   0.106   2.042   3.873 -0.2222 -0.5145 -0.1419
 4099SOL    HW112617   0.129   1.948   3.846  0.0916 -0.7003  0.7296
 4099SOL    HW212618   0.078   2.043   3.969 -1.0497  0.1615 -0.3814
 4100SOL     OW12619   4.279   1.281   3.461 -0.1345 -0.0191 -0.1093
 4100SOL    HW112620   4.336   1.272   3.543 -0.6835  0.8214  0.3817
 4100SOL    HW212621   4.188   1.244   3.479  0.1415 -1.0643 -0.7889
 4101SOL     OW12622   4.763   1.254   1.165 -0.5316 -0.5871 -0.3550
 4101SOL    HW112623   4.692   1.184   1.152  1.1316 -3.2955  3.5043
 4101SOL    HW212624   4.732   1.321   1.233  0.1475 -1.1174  0.4877
 4102SOL     OW12625   4.521   0.658   3.098  0.1635  0.3413 -0.0332
 4102SOL    HW112626   4.563   0.734   3.148 -0.3995  1.1168 -0.7231
 4102SOL    HW212627   4.588   0.620   3.034 -0.3718  2.1376 -1.7594
 4103SOL     OW12628   4.411   5.407   3.647 -0.1043 -0.5062  0.3215
 4103SOL    HW112629   4.435   5.458   3.729  0.7767  0.1995 -0.3633
 4103SOL    HW212630   4.311   5.404   3.638 -0.2336 -0.9863  1.6418
 4104SOL     OW12631   4.795   1.532   2.860  0.2202  0.0199 -0.5998
 4104SOL    HW112632   4.712   1.506   2.910  1.1731 -1.0159  0.5131
 4104SOL    HW212633   4.770   1.563   2.768 -1.2855 -1.7530 -0.8670
 4105SOL     OW12634   0.173   1.273   3.895  0.9623  0.1204  0.5865
 4105SOL    HW112635   0.143   1.193   3.842 -0.3871  0.6534  0.4951
 4105SOL    HW212636   0.114   1.283   3.975  1.7896  0.4288  1.1622
 4106SOL     OW12637   4.759   0.916   2.535 -0.6587  0.0840  0.6574
 4106SOL    HW112638   4.691   0.983   2.504  0.2575  1.0943  0.8037
 4106SOL    HW212639   4.732   0.881   2.625 -1.6082 -0.4286  0.1941
 4107SOL     OW12640   5.476   1.513   1.178 -0.0544  0.0985  0.3070
 4107SOL    HW112641   5.527   1.562   1.248 -2.7014  2.1387  0.9719
 4107SOL    HW212642   5.434   1.579   1.115 -1.0037 -1.5148 -0.8194
 4108SOL     OW12643   4.174   0.066   2.004  0.3022 -0.1267 -0.3259
 4108SOL    HW112644   4.266   0.029   1.991 -0.0840 -1.3442  0.2577
 4108SOL    HW212645   4.110  -0.008   2.025 -0.8142  0.7018 -0.6710
 4109SOL     OW12646   3.054   0.974   1.944  0.3839  0.3382  0.0859
 4109SOL    HW112647   3.100   1.048   1.993 -2.2757  0.3211  2.9759
 4109SOL    HW212648   3.048   0.996   1.847  2.4759  2.3220  0.3315
 4110SOL     OW12649   5.256   1.929   1.360  0.6477 -0.6543  0.1477
 4110SOL    HW112650   5.295   2.003   1.414  0.3037 -1.4793  1.5715
 4110SOL    HW212651   5.156   1.936   1.362  0.6174 -1.0748  0.1741
 4111SOL     OW12652   3.963   0.334   4.358 -0.0519 -0.7665 -0.2631
 4111SOL    HW112653   4.030   0.381   4.300 -0.9516  1.2234  0.2258
 4111SOL    HW212654   3.912   0.401   4.410 -2.9313 -2.1535 -1.1070
 4112SOL     OW12655   3.319   1.009   2.563 -0.0458  0.5751 -0.0936
 4112SOL    HW112656   3.265   0.980   2.642 -2.5361  1.8664 -1.2278
 4112SOL    HW212657   3.288   0.959   2.481  1.1697  0.6426 -0.6149
 4113SOL     OW12658   4.589   1.378   2.016  0.1027 -0.0841 -0.2196
 4113SOL    HW112659   4.574   1.473   2.042  1.0076  0.4723 -1.5769
 4113SOL    HW212660   4.674   1.345   2.058 -0.2105 -0.2913  0.2498
 4114SOL     OW12661   5.565   0.226   3.668 -0.0192  0.0962  0.2919
 4114SOL    HW112662   5.559   0.325   3.655 -0.5892  0.0481  0.1479
 4114SOL    HW212663   5.588   0.182   3.581  1.9322  0.2259  0.7052
 4115SOL     OW12664   2.066   1.929   2.470 -0.0568  0.5431 -0.1042
 4115SOL    HW112665   1.969   1.907   2.481  0.0138 -0.3069 -0.9829
 4115SOL    HW212666   2.120   1.845   2.468  0.7930  1.0406  1.0730
 4116SOL     OW12667   0.380   0.892   3.700  0.1903  0.5391  0.4818
 4116SOL    HW112668   0.369   0.990   3.687 -0.2313  0.6055  1.3090
 4116SOL    HW212669   0.473   0.873   3.733  0.0246  0.7443  1.0841
 4117SOL     OW12670   3.126   1.271   3.527  0.6402  0.1349 -0.1033
 4117SOL    HW112671   3.191   1.267   3.450 -0.8228 -0.7751 -1.3650
 4117SOL    HW212672   3.175   1.256   3.613  2.0072 -1.4141 -1.0854
 4118SOL     OW12673   4.346   0.816   2.220  0.1553  0.4624 -0.5224
 4118SOL    HW112674   4.377   0.824   2.125 -1.6061  2.4446 -1.0067
 4118SOL    HW212675   4.275   0.745   2.226  0.3542  0.2497 -0.6440
 4119SOL     OW12676   4.310   1.406   3.228  0.4423  0.3921  0.0108
 4119SOL    HW112677   4.301   1.362   3.317  2.9598  1.6266  0.9729
 4119SOL    HW212678   4.399   1.384   3.188  0.6074  2.2846 -0.7761
 4120SOL     OW12679   4.318   4.712   4.178  0.0139 -0.3418 -0.2369
 4120SOL    HW112680   4.294   4.665   4.093 -0.5121 -2.3635  0.9648
 4120SOL    HW212681   4.406   4.678   4.211  0.6777  1.1200 -0.4190
 4121SOL     OW12682   3.853   0.547   2.080 -0.4815 -0.0345 -0.2372
 4121SOL    HW112683   3.875   0.482   2.153  0.5457  0.7090  0.1294
 4121SOL    HW212684   3.924   0.542   2.009 -0.1402  1.0103  0.0191
 4122SOL     OW12685   4.926   0.957   3.282 -0.3570  0.5759  0.0247
 4122SOL    HW112686   4.877   0.933   3.367  1.3088  1.3842  1.2630
 4122SOL    HW212687   4.937   0.875   3.226 -3.0004  0.3452 -0.2736
 4123SOL     OW12688   4.753   4.909   2.727 -0.1529 -0.0543 -0.2474
 4123SOL    HW112689   4.697   4.856   2.663  0.3893  0.5603 -1.2420
 4123SOL    HW212690   4.838   4.936   2.682  1.4362 -1.8105  1.5164
 4124SOL     OW12691   4.666   0.853   1.978 -0.0077  0.2368 -0.1340
 4124SOL    HW112692   4.699   0.769   1.934 -0.6110 -1.0704  1.7936
 4124SOL    HW212693   4.581   0.883   1.933  0.3285 -0.0548 -0.9743
 4125SOL     OW12694   3.573   5.498   1.683 -0.4163 -0.4464  0.2599
 4125SOL    HW112695   3.513   5.420   1.665 -0.2734 -0.8347  1.4145
 4125SOL    HW212696   3.655   5.491   1.626 -0.6434 -0.8520 -0.0202
 4126SOL     OW12697   4.273   1.142   2.722 -0.0880  0.0516 -0.1888
 4126SOL    HW112698   4.275   1.189   2.810  0.2147  0.1829 -0.2632
 4126SOL    HW212699   4.347   1.176   2.664  1.0242 -1.4842  0.2591
 4127SOL     OW12700   4.355   2.354   1.498 -0.6375 -1.2848  0.4747
 4127SOL    HW112701   4.401   2.279   1.450  0.9650 -0.2198  0.2766
 4127SOL    HW212702   4.332   2.426   1.432 -1.0285 -1.0586  0.8567
 4128SOL     OW12703   4.348   0.652   3.298  0.5429 -0.0258 -0.0797
 4128SOL    HW112704   4.421   0.659   3.229  0.2893  0.6658 -0.2880
 4128SOL    HW212705   4.372   0.581   3.364  1.1808 -0.1376 -0.4167
 4129SOL     OW12706   3.167   0.208   0.617  0.1284 -0.1996 -0.1248
 4129SOL    HW112707   3.256   0.251   0.634  0.1638 -1.0655  2.4549
 4129SOL    HW212708   3.100   0.278   0.592  0.9106  0.9057  0.7465
 4130SOL     OW12709   3.777   4.229   4.754 -0.4069  0.0608 -0.4125
 4130SOL    HW112710   3.790   4.152   4.816 -1.0607  0.0138 -0.3343
 4130SOL    HW212711   3.837   4.304   4.783 -1.3095  0.3473  0.7981
 4131SOL     OW12712   4.157   1.981   3.974 -0.2234  0.1986  0.8156
 4131SOL    HW112713   4.139   2.078   3.988  2.1652  0.7464  0.4987
 4131SOL    HW212714   4.145   1.931   4.059 -1.1950  0.8006  1.0425
 4132SOL     OW12715   4.302   2.191   2.934  0.4497 -0.6765 -0.1333
 4132SOL    HW112716   4.336   2.214   3.025 -0.7673 -0.9404  0.4100
 4132SOL    HW212717   4.210   2.152   2.941 -0.4466  1.0086 -1.6038
 4133SOL     OW12718   4.192   0.436   4.220 -0.6229 -0.7549 -0.7398
 4133SOL    HW112719   4.197   0.415   4.122  1.8388 -0.7102 -0.6883
 4133SOL    HW212720   4.180   0.534   4.233 -0.4073 -0.6891 -1.0181
 4134SOL     OW12721   1.209   5.584   3.723  0.0025 -0.4600 -0.9839
 4134SOL    HW112722   1.110   5.571   3.729 -0.0128 -0.6334 -1.5915
 4134SOL    HW212723   1.254   5.517   3.782 -0.2970  1.1070  1.1615
 4135SOL     OW12724   4.725   2.292   4.467  0.6233  0.2858  0.9402
 4135SOL    HW112725   4.755   2.198   4.482 -0.7560 -0.4416 -0.5456
 4135SOL    HW212726   4.669   2.296   4.384  0.0756  2.2890  1.3640
 4136SOL     OW12727   5.489   4.823   0.942 -0.6886  0.4675 -0.1250
 4136SOL    HW112728   5.494   4.736   0.990  0.2940  0.8869  0.5650
 4136SOL    HW212729   5.394   4.847   0.925 -0.9645 -0.8373 -0.5139
 4137SOL     OW12730   4.208   0.907   4.042 -0.0468 -0.3796 -0.7085
 4137SOL    HW112731   4.161   0.962   3.974 -1.9759  0.6981  1.3530
 4137SOL    HW212732   4.268   0.965   4.097  1.3545 -1.1952 -1.3237
 4138SOL     OW12733   4.250   1.799   5.022 -0.2304  0.2109 -0.3448
 4138SOL    HW112734   4.293   1.710   5.003 -0.4345 -0.2597  1.2199
 4138SOL    HW212735   4.189   1.822   4.947  1.4336  0.0909 -1.8203
 4139SOL     OW12736   3.478   1.176   5.517  1.1222  0.1146 -0.0925
 4139SOL    HW112737   3.548   1.105   5.508  1.3421 -0.2804  3.4592
 4139SOL    HW212738   3.511   1.248   5.577 -0.9971  0.6509  0.5052
 4140SOL     OW12739   4.213   1.599   4.560  0.7189 -0.3055 -0.3573
 4140SOL    HW112740   4.188   1.577   4.654  0.7515 -0.6733 -0.4341
 4140SOL    HW212741   4.219   1.515   4.506 -2.9908  0.0350 -1.6326
 4141SOL     OW12742   4.796   0.300   0.677  0.2706 -0.2498 -0.1471
 4141SOL    HW112743   4.889   0.327   0.652  0.2947  0.4560  0.6298
 4141SOL    HW212744   4.799   0.249   0.763 -0.1054  0.2927  0.1945
 4142SOL     OW12745   0.555   1.128   4.246 -0.7481 -0.0936  0.0594
 4142SOL    HW112746   0.532   1.108   4.341  0.3331  0.6952  0.5035
 4142SOL    HW212747   0.484   1.186   4.206  0.0099  1.6473  1.1567
 4143SOL     OW12748   3.535   1.454   5.207 -0.2317  0.3046  0.0170
 4143SOL    HW112749   3.611   1.503   5.250 -0.6750  1.2816 -0.2771
 4143SOL    HW212750   3.450   1.502   5.226 -0.7844 -0.7530  0.2992
 4144SOL     OW12751   4.612   1.260   5.259 -0.6255  0.0735  0.1397
 4144SOL    HW112752   4.513   1.273   5.266 -0.7283 -0.7162  0.2200
 4144SOL    HW212753   4.649   1.239   5.350 -0.2879  0.9577  0.2194
 4145SOL     OW12754   4.772   0.489   4.732 -0.2151 -0.2954  0.4020
 4145SOL    HW112755   4.698   0.453   4.675 -1.0665  1.9633 -0.0399
 4145SOL    HW212756   4.858   0.447   4.705 -0.9575 -1.0380 -0.9250
 4146SOL     OW12757   2.890   1.966   4.383  0.5587  0.7768 -0.0442
 4146SOL    HW112758   2.803   1.963   4.336  0.7435 -0.5351 -0.3344
 4146SOL    HW212759   2.933   2.055   4.368  0.5409  0.4712 -2.2424
 4147SOL     OW12760   4.871   1.993   4.808 -0.1059  0.0901 -0.6897
 4147SOL    HW112761   4.789   1.985   4.865 -1.0575 -1.5896 -2.1924
 4147SOL    HW212762   4.846   1.978   4.712  2.1073 -1.6068 -1.0851
 4148SOL     OW12763   5.245   3.253   5.220 -0.0847 -0.2795  0.2013
 4148SOL    HW112764   5.219   3.166   5.263  0.2130  0.4240  1.9224
 4148SOL    HW212765   5.339   3.275   5.247  0.6919 -0.5169 -2.1053
 4149SOL     OW12766   5.348   1.092   5.578  0.0410  0.3703  0.1483
 4149SOL    HW112767   5.290   1.028   5.526  0.2382 -1.4123  2.0014
 4149SOL    HW212768   5.292   1.170   5.607 -1.5390 -1.2521  1.8030
 4150SOL     OW12769   3.225   1.089   5.048  0.2430  0.1973 -0.3147
 4150SOL    HW112770   3.219   1.037   4.962  1.8191 -0.6754  0.0658
 4150SOL    HW212771   3.288   1.043   5.110 -1.4313  0.3864  1.6441
 4151SOL     OW12772   0.573   1.811   4.950 -0.2560 -0.1270  0.3615
 4151SOL    HW112773   0.514   1.837   5.026 -1.8495  0.0088 -0.8538
 4151SOL    HW212774   0.581   1.712   4.946 -0.1966 -0.1347  0.6821
 4152SOL     OW12775   2.672   0.887   3.291 -0.1798  0.0952  0.4825
 4152SOL    HW112776   2.677   0.958   3.361  3.2707 -0.1402  0.6794
 4152SOL    HW212777   2.743   0.818   3.309 -0.2137 -0.8149 -2.3812
 4153SOL     OW12778   0.353   1.119   3.335  0.5607 -0.0087  0.3486
 4153SOL    HW112779   0.280   1.051   3.320  1.0045 -0.4973  0.3894
 4153SOL    HW212780   0.424   1.106   3.265  0.0218  1.2783 -0.4727
 4154SOL     OW12781   0.458   2.399   4.372 -1.1211 -0.4212 -0.0349
 4154SOL    HW112782   0.505   2.331   4.427 -0.3175 -1.0019 -1.3989
 4154SOL    HW212783   0.389   2.354   4.315 -0.1070 -0.2289 -1.4605
 4155SOL     OW12784   5.172   0.537   0.250  0.1197  0.1049 -0.3047
 4155SOL    HW112785   5.079   0.573   0.243  0.7679  1.6092 -2.0169
 4155SOL    HW212786   5.205   0.549   0.344 -1.5370 -0.8596  0.4407
 4156SOL     OW12787   4.185   2.023   4.561 -0.4915 -0.1361  0.2155
 4156SOL    HW112788   4.139   2.101   4.517  1.6341  0.2782 -1.4761
 4156SOL    HW212789   4.130   1.991   4.638 -3.2656  0.6483 -1.2941
 4157SOL     OW12790   4.294   1.043   5.517  0.0747 -0.5641 -0.5341
 4157SOL    HW112791   4.288   0.965   5.579  1.8995 -1.0626 -0.9316
 4157SOL    HW212792   4.372   1.032   5.456 -0.9988  0.4775 -2.1748
 4158SOL     OW12793   5.194   0.264   4.393 -0.0401  0.2262  1.1219
 4158SOL    HW112794   5.262   0.201   4.357 -0.2050  0.4019  0.4723
 4158SOL    HW212795   5.238   0.329   4.455  0.3156  0.0992  1.0066
 4159SOL     OW12796   3.632   0.767   0.963  0.0756  0.1999 -0.4257
 4159SOL    HW112797   3.685   0.846   0.993 -1.3815  0.6500  1.1694
 4159SOL    HW212798   3.536   0.793   0.950 -0.0376 -0.8530 -1.9849
 4160SOL     OW12799   4.864   2.722   4.499  0.3444 -0.3576 -0.4636
 4160SOL    HW112800   4.787   2.732   4.562  1.2169  0.6647  0.4922
 4160SOL    HW212801   4.896   2.628   4.501 -1.4028 -1.0230 -1.5462
 4161SOL     OW12802   4.496   2.287   0.636  0.3976 -0.3582 -0.1096
 4161SOL    HW112803   4.430   2.314   0.706  0.9186 -0.6176  0.4955
 4161SOL    HW212804   4.574   2.350   0.637 -0.4984  0.8642 -1.8451
 4162SOL     OW12805   4.593   0.312   5.503 -0.0929  0.2610 -0.1044
 4162SOL    HW112806   4.575   0.317   5.404 -1.8777  0.6929  0.2157
 4162SOL    HW212807   4.679   0.263   5.518 -0.8712 -1.8046 -1.7863
 4163SOL     OW12808   4.687   1.674   4.620 -0.6233  0.0439 -0.4934
 4163SOL    HW112809   4.746   1.745   4.581 -0.1278 -0.4815 -0.7166
 4163SOL    HW212810   4.611   1.717   4.669  0.7687  0.7779  1.1162
 4164SOL     OW12811   0.772   0.649   4.142  0.5123  0.1784  0.3337
 4164SOL    HW112812   0.775   0.725   4.206  0.2977 -1.2174  2.0886
 4164SOL    HW212813   0.819   0.570   4.182  1.7204 -0.3167 -1.8894
 4165SOL     OW12814   5.014   0.390   4.641  0.2022 -0.1905  0.5948
 4165SOL    HW112815   5.098   0.441   4.622 -0.6370  1.1207  0.3405
 4165SOL    HW212816   4.987   0.339   4.559  1.1590 -1.2647  0.9151
 4166SOL     OW12817   0.268   0.677   5.337  0.4239 -0.8548 -0.7050
 4166SOL    HW112818   0.195   0.664   5.270  0.1527  0.5870 -0.7156
 4166SOL    HW212819   0.291   0.589   5.379 -0.0017 -1.6295 -2.0505
 4167SOL     OW12820   5.583   1.631   2.902 -0.0201 -0.8913  0.0006
 4167SOL    HW112821   5.527   1.549   2.903 -0.8344 -0.3425  0.9197
 4167SOL    HW212822   5.534   1.705   2.856  1.0131 -1.0985 -1.5178
 4168SOL     OW12823   4.290   1.214   5.275  0.7568  0.3477 -0.7539
 4168SOL    HW112824   4.211   1.269   5.246  1.4313  1.9473  0.2782
 4168SOL    HW212825   4.277   1.184   5.369  1.2841  0.4646 -0.6410
 4169SOL     OW12826   4.665   1.905   0.502  0.0234  0.5634 -0.1309
 4169SOL    HW112827   4.748   1.869   0.458 -0.9405 -1.8787 -0.1167
 4169SOL    HW212828   4.668   2.005   0.500  1.7685  0.5752 -2.4135
 4170SOL     OW12829   4.636   1.170   4.154  0.6379 -0.0578 -0.0117
 4170SOL    HW112830   4.667   1.076   4.150  1.5126  0.1371  1.4777
 4170SOL    HW212831   4.628   1.199   4.250 -1.5191  0.7716 -0.3798
 4171SOL     OW12832   3.721   5.368   3.880 -0.1024  0.4589  0.0571
 4171SOL    HW112833   3.723   5.459   3.922  0.0943 -0.8367  3.1738
 4171SOL    HW212834   3.791   5.310   3.923  1.1484 -0.6906 -3.2188
 4172SOL     OW12835   4.250   1.856   3.757 -0.3853  0.1697 -0.0970
 4172SOL    HW112836   4.325   1.917   3.729 -1.6185  1.8027 -0.0326
 4172SOL    HW212837   4.206   1.894   3.838  0.7915 -2.5433  1.9274
 4173SOL     OW12838   4.527   0.376   5.254 -0.0462 -0.4369  0.1087
 4173SOL    HW112839   4.516   0.380   5.154 -0.5418  0.6291  0.1962
 4173SOL    HW212840   4.489   0.459   5.295  0.3347 -0.7787  1.1746
 4174SOL     OW12841   3.336   1.935   0.027 -0.4155 -0.7179  0.1256
 4174SOL    HW112842   3.250   1.957  -0.020 -0.1389 -0.7766 -0.4130
 4174SOL    HW212843   3.320   1.859   0.091 -1.1122  0.2642  1.1593
 4175SOL     OW12844   5.257   0.489   4.528 -0.5786 -0.0191 -0.3397
 4175SOL    HW112845   5.323   0.511   4.600 -1.3490 -0.5123  0.5314
 4175SOL    HW212846   5.210   0.573   4.500  0.3815  0.3320 -0.9461
 4176SOL     OW12847   5.329   0.867   4.346 -0.3372 -0.1527 -0.0192
 4176SOL    HW112848   5.380   0.861   4.260 -0.0579  0.1343  0.1302
 4176SOL    HW212849   5.284   0.956   4.352  0.5129  0.2398  0.6280
 4177SOL     OW12850   4.614   1.773   3.863  0.5117  0.3319 -0.0561
 4177SOL    HW112851   4.580   1.820   3.944 -1.4996  0.2429 -0.8122
 4177SOL    HW212852   4.547   1.779   3.789  1.4978 -1.1561 -1.1418
 4178SOL     OW12853   4.571   5.468   4.960  0.1570 -0.1440  0.2302
 4178SOL    HW112854   4.618   5.396   5.012  0.4766 -0.4204 -0.4392
 4178SOL    HW212855   4.590   5.557   5.002 -0.0860 -0.4244  0.9476
 4179SOL     OW12856   5.526   2.153   5.546 -0.0067 -0.1458  0.5508
 4179SOL    HW112857   5.453   2.085   5.556  0.9576 -1.1423  0.9596
 4179SOL    HW212858   5.575   2.163   5.632  2.6551 -2.1981 -0.5630
 4180SOL     OW12859   3.494   2.448   2.699  0.6170 -0.1079 -0.3840
 4180SOL    HW112860   3.522   2.508   2.773  1.1458 -1.1706  0.2957
 4180SOL    HW212861   3.430   2.496   2.639 -0.5427  0.4779  1.2715
 4181SOL     OW12862   5.018   1.099   4.222  0.6604 -0.0513  0.3572
 4181SOL    HW112863   5.053   1.035   4.153 -1.4641 -0.1217 -0.7723
 4181SOL    HW212864   5.091   1.125   4.284  2.5610 -0.4216 -1.5959
 4182SOL     OW12865   0.641   2.803   5.530  0.5890 -0.5725  0.0001
 4182SOL    HW112866   0.558   2.748   5.524  0.6584 -0.7776  0.7874
 4182SOL    HW212867   0.619   2.891   5.573  0.7054 -0.4589 -0.1697
 4183SOL     OW12868   3.930   0.805   4.976  0.3997  0.3306 -0.0193
 4183SOL    HW112869   3.897   0.730   4.918 -0.4683  0.1796  0.6454
 4183SOL    HW212870   3.880   0.888   4.954 -2.3428 -0.4248  2.6356
 4184SOL     OW12871   0.015   0.297   4.864  0.2740  0.4544  0.5331
 4184SOL    HW112872   0.087   0.330   4.924 -0.6641  0.8082  1.4799
 4184SOL    HW212873  -0.050   0.242   4.916 -1.9149  2.7741  0.4153
 4185SOL     OW12874   5.005   0.275   4.081 -0.0233  0.2114 -0.1497
 4185SOL    HW112875   5.074   0.346   4.094  0.7649 -0.0072 -2.6518
 4185SOL    HW212876   4.914   0.314   4.087  0.3212  0.8339  1.4577
 4186SOL     OW12877   0.381   2.339   2.795 -0.0339  0.3179  0.3229
 4186SOL    HW112878   0.433   2.425   2.792 -1.4505  1.1651 -0.8273
 4186SOL    HW212879   0.336   2.331   2.884 -0.0628  0.8785  0.3651
 4187SOL     OW12880   3.707   0.778   4.345  0.1615 -0.2600 -0.2742
 4187SOL    HW112881   3.774   0.713   4.308  1.6151  1.5772 -1.0532
 4187SOL    HW212882   3.617   0.760   4.306  1.0734 -0.1592 -2.5469
 4188SOL     OW12883   0.185   2.049   3.031 -1.0226 -0.3862 -0.3293
 4188SOL    HW112884   0.185   1.983   2.956 -1.4364 -0.5906 -0.1558
 4188SOL    HW212885   0.207   2.003   3.117  0.0926 -0.0346 -0.4096
 4189SOL     OW12886   0.335   2.244   4.737  0.0372 -0.2258  0.3917
 4189SOL    HW112887   0.289   2.213   4.820 -0.4279 -2.8153 -0.7226
 4189SOL    HW212888   0.434   2.227   4.746 -0.0979 -1.2018  0.1780
 4190SOL     OW12889   5.311   5.109   5.101 -0.4242  0.0069 -0.6756
 4190SOL    HW112890   5.304   5.011   5.119 -2.0812  0.1038 -0.5876
 4190SOL    HW212891   5.271   5.129   5.011 -2.0557  0.8295  0.1916
 4191SOL     OW12892   0.121   2.432   5.250  0.0520 -0.5178 -0.2776
 4191SOL    HW112893   0.104   2.523   5.289  0.7506 -0.7805  0.6876
 4191SOL    HW212894   0.176   2.441   5.167  2.5789 -0.1675  1.3352
 4192SOL     OW12895   3.830   2.115   5.271 -0.0735 -0.8440 -0.1600
 4192SOL    HW112896   3.806   2.162   5.185  0.0806 -0.0528  0.2185
 4192SOL    HW212897   3.758   2.130   5.338  0.6365  0.0884  0.4253
 4193SOL     OW12898   3.202   0.760   4.394  0.1965  0.3219 -0.3470
 4193SOL    HW112899   3.242   0.851   4.395  0.8464  0.0490 -0.8830
 4193SOL    HW212900   3.252   0.701   4.456  0.3810  0.0784 -0.7271
 4194SOL     OW12901   1.184   4.286   0.771  0.5214  0.2267 -0.1741
 4194SOL    HW112902   1.246   4.335   0.832  1.2463 -0.3050 -0.4649
 4194SOL    HW212903   1.112   4.242   0.824  0.4465  0.7629  0.1779
 4195SOL     OW12904   4.474   5.231   5.335 -0.3427  0.4452 -0.2373
 4195SOL    HW112905   4.492   5.164   5.263  0.6759  0.7722 -0.3001
 4195SOL    HW212906   4.386   5.276   5.317 -0.5996 -0.2179 -0.6892
 4196SOL     OW12907   5.254   0.483   5.201 -0.7066  0.2215 -0.5023
 4196SOL    HW112908   5.246   0.561   5.139  0.4050  0.6294 -0.1429
 4196SOL    HW212909   5.238   0.513   5.295  1.6241  0.4423 -0.1284
 4197SOL     OW12910   5.311   1.474   5.503  0.1055 -0.5560 -0.1356
 4197SOL    HW112911   5.323   1.407   5.429  1.5451  1.5144 -1.8833
 4197SOL    HW212912   5.233   1.446   5.560 -2.3393 -1.3046 -3.5204
 4198SOL     OW12913   3.802   1.257   5.328  0.1072  0.5350  0.1717
 4198SOL    HW112914   3.801   1.170   5.277  1.5763  0.5783  0.0179
 4198SOL    HW212915   3.721   1.310   5.304 -0.7936 -0.7667  0.2253
 4199SOL     OW12916   5.445   1.604   3.758  0.4819  0.0496  0.0594
 4199SOL    HW112917   5.516   1.635   3.822  1.2181 -1.0330 -0.2220
 4199SOL    HW212918   5.355   1.626   3.796  0.9454  1.4141  0.4369
 4200SOL     OW12919   4.728   0.520   3.865 -0.3724  0.2255 -0.2140
 4200SOL    HW112920   4.698   0.460   3.791  0.2939 -1.2938  0.6890
 4200SOL    HW212921   4.658   0.590   3.882 -1.6097 -0.8486 -0.7119
 4201SOL     OW12922   4.808   0.502   4.336 -0.3182  0.4523  0.2839
 4201SOL    HW112923   4.803   0.478   4.238 -0.1170  1.2813  0.0679
 4201SOL    HW212924   4.839   0.422   4.387 -1.4849 -0.3242 -0.1895
 4202SOL     OW12925   0.075   1.825   4.856  0.1286 -0.6540 -0.0968
 4202SOL    HW112926  -0.024   1.816   4.842  0.1468 -0.5908 -0.2636
 4202SOL    HW212927   0.095   1.819   4.954 -0.2113  0.9206  0.0987
 4203SOL     OW12928   4.860   0.552   3.500 -0.5585  0.7934 -0.2843
 4203SOL    HW112929   4.894   0.590   3.586 -1.7755  0.3248  0.4146
 4203SOL    HW212930   4.798   0.476   3.519  0.9919 -0.9057 -1.6298
 4204SOL     OW12931   5.043   1.921   4.043 -0.2836 -0.0011  0.0017
 4204SOL    HW112932   5.112   1.989   4.017  2.2379 -2.4399 -0.1442
 4204SOL    HW212933   4.965   1.926   3.980 -0.9704  3.6523  0.9046
 4205SOL     OW12934   3.566   0.444   4.413 -0.1335 -0.1841 -0.1742
 4205SOL    HW112935   3.551   0.347   4.434  0.6925  0.0067  1.4439
 4205SOL    HW212936   3.604   0.452   4.321 -1.9106 -1.2357 -1.0730
 4206SOL     OW12937   4.599   2.321   4.971  0.4843  0.0526  0.0769
 4206SOL    HW112938   4.601   2.270   5.057 -1.0129 -1.4847 -0.7432
 4206SOL    HW212939   4.681   2.300   4.917  0.2962 -0.8136  0.1253
 4207SOL     OW12940   3.504   1.393   4.526 -0.2885 -0.2391 -0.0792
 4207SOL    HW112941   3.507   1.464   4.456 -0.0232 -0.9786 -0.8293
 4207SOL    HW212942   3.454   1.427   4.605  0.0230  0.8588 -0.3368
 4208SOL     OW12943   5.422   1.714   5.085  0.0580  0.1113  0.3084
 4208SOL    HW112944   5.377   1.671   5.006  0.0683 -0.1003  0.4158
 4208SOL    HW212945   5.354   1.733   5.156 -0.1349  1.2976 -0.1754
 4209SOL     OW12946   4.736   1.240   2.809 -0.1889 -0.3558 -0.2404
 4209SOL    HW112947   4.774   1.309   2.872 -0.8748 -0.0671 -0.1343
 4209SOL    HW212948   4.791   1.157   2.814  0.4255  0.0525 -0.0831
 4210SOL     OW12949   3.993   0.177   4.903 -0.6910 -0.1115  0.1055
 4210SOL    HW112950   3.930   0.255   4.897 -0.6662 -0.0959  0.0438
 4210SOL    HW212951   4.074   0.204   4.957 -0.2674  0.1894 -0.6612
 4211SOL     OW12952   4.446   5.075   0.213 -0.3577 -0.0763 -0.0054
 4211SOL    HW112953   4.429   5.015   0.135 -0.1359 -0.1557  0.0053
 4211SOL    HW212954   4.462   5.168   0.181 -0.6900 -0.0237 -0.0234
 4212SOL     OW12955   5.355   0.769   5.092  0.5067  0.3133  0.2040
 4212SOL    HW112956   5.370   0.765   4.993  1.0370  2.3236  0.1599
 4212SOL    HW212957   5.279   0.831   5.112  0.8562  0.4681  1.1022
 4213SOL     OW12958   4.432   1.876   4.043  0.0164 -0.3137 -0.0981
 4213SOL    HW112959   4.456   1.934   4.120  0.9748 -0.5031 -0.2428
 4213SOL    HW212960   4.333   1.880   4.028 -0.2386 -0.5292  1.3403
 4214SOL     OW12961   3.448   1.419   4.909 -0.1042 -0.1408 -0.0747
 4214SOL    HW112962   3.458   1.324   4.879  0.0779 -0.0023 -0.4637
 4214SOL    HW212963   3.494   1.431   4.997  2.3703  0.2104 -1.2986
 4215SOL     OW12964   4.962   0.227   4.854  0.2678  0.3691  0.4317
 4215SOL    HW112965   4.893   0.267   4.914 -0.5983 -0.3138 -0.0812
 4215SOL    HW212966   5.001   0.298   4.796 -1.2197  0.5375 -0.4369
 4216SOL     OW12967   0.213   5.108   3.856  0.0232  0.1665  0.0564
 4216SOL    HW112968   0.196   5.184   3.919  2.0633 -0.1262  1.0579
 4216SOL    HW212969   0.150   5.033   3.876 -1.2669  1.1540 -0.1980
 4217SOL     OW12970   2.816   1.136   4.084 -0.0896 -0.2206  0.2784
 4217SOL    HW112971   2.856   1.178   4.166 -0.6430  2.0277 -0.5288
 4217SOL    HW212972   2.765   1.206   4.033  0.1055 -1.6145 -1.9129
 4218SOL     OW12973   0.367   0.612   4.242  0.0161 -0.2485 -0.2065
 4218SOL    HW112974   0.320   0.665   4.313  0.3759  0.2223 -0.3148
 4218SOL    HW212975   0.320   0.524   4.230 -0.1454 -0.2696  0.4975
 4219SOL     OW12976   4.845   1.914   3.848  0.0076  0.1774 -0.0042
 4219SOL    HW112977   4.783   1.835   3.843 -0.6543  0.6942 -0.1347
 4219SOL    HW212978   4.799   1.994   3.811  0.3409  0.8363  0.9735
 4220SOL     OW12979   5.130   1.040   4.496  0.6740  0.1592 -0.1303
 4220SOL    HW112980   5.061   0.974   4.524 -0.0354  0.7583 -0.4365
 4220SOL    HW212981   5.122   1.122   4.552 -0.3493  1.1212 -1.6030
 4221SOL     OW12982   0.140   2.009   4.644  0.6265  0.2484  0.2612
 4221SOL    HW112983   0.105   1.956   4.721  0.2581  0.9441  0.5756
 4221SOL    HW212984   0.187   2.090   4.678 -1.0732  1.5177 -0.2668
 4222SOL     OW12985   3.658   2.473   4.842  0.4834 -0.2629  0.0787
 4222SOL    HW112986   3.596   2.437   4.772 -0.2993 -1.0318  1.1399
 4222SOL    HW212987   3.736   2.516   4.798 -0.1531 -0.4372 -1.2745
 4223SOL     OW12988   4.502   3.134   1.124 -0.0310  0.2390  0.2556
 4223SOL    HW112989   4.592   3.150   1.165 -0.0632 -0.7360  0.7194
 4223SOL    HW212990   4.507   3.149   1.025  0.7845 -0.3623  0.1974
 4224SOL     OW12991   4.654   1.917   4.940  0.2608 -0.2419 -0.2231
 4224SOL    HW112992   4.575   1.977   4.956  2.1091  2.1096  0.7463
 4224SOL    HW212993   4.649   1.839   5.002 -0.2260  1.0543  1.4603
 4225SOL     OW12994   5.029   1.266   4.648  0.5597 -0.2202  0.3007
 4225SOL    HW112995   5.072   1.324   4.716 -0.9314  2.6793 -1.0552
 4225SOL    HW212996   4.945   1.226   4.685  0.3437  0.4438  0.5357
 4226SOL     OW12997   4.686   0.859   4.664 -0.4243 -0.0106 -0.4550
 4226SOL    HW112998   4.641   0.860   4.753  0.0044 -1.5955 -0.2061
 4226SOL    HW212999   4.618   0.841   4.593 -0.6051  0.2842 -0.3598
 4227SOL     OW13000   3.177   0.995   4.799 -0.0955 -0.1290 -0.7275
 4227SOL    HW113001   3.120   0.913   4.800  1.2208 -1.0871 -1.4219
 4227SOL    HW213002   3.144   1.058   4.729  0.0383 -0.9422 -1.5429
 4228SOL     OW13003   4.683   2.948   4.111  0.1747  0.1787  0.1168
 4228SOL    HW113004   4.586   2.971   4.117 -0.2901 -1.9204  2.3765
 4228SOL    HW213005   4.737   3.032   4.106 -1.6343  1.5419  1.7363
 4229SOL     OW13006   4.263   0.302   0.087  0.3601 -0.1136 -0.3399
 4229SOL    HW113007   4.350   0.256   0.106  0.2388  0.5018  1.9587
 4229SOL    HW213008   4.194   0.270   0.151 -0.3443  1.5414 -0.2332
 4230SOL     OW13009   4.774   0.862   5.288  0.2613  0.1300  0.5714
 4230SOL    HW113010   4.769   0.762   5.289 -1.1141  0.1826  1.8547
 4230SOL    HW213011   4.812   0.892   5.200 -1.9722 -1.4010 -1.0288
 4231SOL     OW13012   3.459   2.162   0.505  0.2719 -0.2042  0.3145
 4231SOL    HW113013   3.382   2.225   0.515  0.9003  0.6099  0.0478
 4231SOL    HW213014   3.447   2.110   0.420  0.9182  1.2030 -0.6645
 4232SOL     OW13015   0.183   2.366   4.538  0.2056 -0.4928  0.3838
 4232SOL    HW113016   0.100   2.373   4.593  0.7186 -0.5022  1.1753
 4232SOL    HW213017   0.248   2.305   4.584  1.0278  0.2680  0.2574
 4233SOL     OW13018   3.379   0.633   0.435 -0.2923 -0.2082 -0.4160
 4233SOL    HW113019   3.436   0.701   0.480  3.3596 -2.4587 -1.2129
 4233SOL    HW213020   3.362   0.661   0.340  0.9654 -0.2042 -0.6626
 4234SOL     OW13021   4.415   0.495   4.378 -0.2571  0.2172  0.2241
 4234SOL    HW113022   4.480   0.548   4.322 -0.9298 -0.1044 -0.8968
 4234SOL    HW213023   4.340   0.464   4.320 -0.0158 -1.7500  0.8896
 4235SOL     OW13024   0.459   1.850   4.582 -0.2634 -0.4623  0.5544
 4235SOL    HW113025   0.523   1.905   4.635 -0.7046  1.1803 -0.5254
 4235SOL    HW213026   0.374   1.839   4.633  0.5140 -1.9086  1.6220
 4236SOL     OW13027   5.482   1.440   4.914  0.5488  0.1643 -0.1858
 4236SOL    HW113028   5.503   1.503   4.989  0.9928 -0.3206  0.1005
 4236SOL    HW213029   5.542   1.459   4.836 -1.1824  1.9506 -1.1736
 4237SOL     OW13030   3.774   1.481   4.940 -0.8048 -0.2919  0.7321
 4237SOL    HW113031   3.790   1.446   4.848 -0.0553 -1.0944  1.1402
 4237SOL    HW213032   3.721   1.414   4.992 -0.7980 -0.0672  1.0292
 4238SOL     OW13033   5.130   0.719   4.454 -0.2554  0.0167 -0.3135
 4238SOL    HW113034   5.076   0.779   4.513  1.7072  0.3322  1.2474
 4238SOL    HW213035   5.212   0.767   4.423 -0.1634 -0.8837 -1.5360
 4239SOL     OW13036   0.343   1.751   0.518 -0.7402 -0.0809 -0.1381
 4239SOL    HW113037   0.293   1.665   0.532  1.1991 -0.8232  3.3574
 4239SOL    HW213038   0.305   1.821   0.578  0.1988  0.3234 -0.0035
 4240SOL     OW13039   4.847   0.215  -0.004  0.1657  0.7370  0.1596
 4240SOL    HW113040   4.813   0.222   0.090 -1.0215  2.1593 -0.3396
 4240SOL    HW213041   4.858   0.119  -0.029 -0.1111  0.3282  1.5316
 4241SOL     OW13042   3.757   0.948   0.280 -0.8052 -0.1303 -1.0862
 4241SOL    HW113043   3.841   0.898   0.257  0.7076  0.9905  1.6041
 4241SOL    HW213044   3.763   1.040   0.243  0.4967  0.8529  1.3745
 4242SOL     OW13045   3.873   1.080   4.678 -0.1882  0.4224  0.3585
 4242SOL    HW113046   3.810   1.012   4.640 -0.5178  0.5291  0.7052
 4242SOL    HW213047   3.967   1.052   4.661 -0.3294  0.1803 -0.0277
 4243SOL     OW13048   4.771   1.512   4.170 -0.1310  0.0183  0.1176
 4243SOL    HW113049   4.699   1.498   4.237  2.0936 -1.7722  2.3448
 4243SOL    HW213050   4.821   1.596   4.190 -0.7627  0.5910 -0.6445
 4244SOL     OW13051   3.786   0.953   0.567  0.0843  0.0481 -0.1067
 4244SOL    HW113052   3.776   0.942   0.468  0.9647 -0.0682 -0.1896
 4244SOL    HW213053   3.822   0.868   0.606  0.8908  0.4892  0.1364
 4245SOL     OW13054   2.410   0.468   5.325  0.1640 -0.1313  0.0517
 4245SOL    HW113055   2.442   0.393   5.268  0.3174 -1.4395  1.7901
 4245SOL    HW213056   2.415   0.554   5.274  1.6433 -1.0356 -1.3964
 4246SOL     OW13057   4.729   5.023   1.210 -0.1260  0.5581  0.4346
 4246SOL    HW113058   4.694   4.940   1.253  1.3514  0.1278  0.8529
 4246SOL    HW213059   4.756   5.088   1.281 -0.8300  1.2220  0.1105
 4247SOL     OW13060   4.503   1.278   3.647 -0.1469 -0.4253  0.0696
 4247SOL    HW113061   4.579   1.322   3.599 -0.8292  4.0989  2.5477
 4247SOL    HW213062   4.538   1.230   3.727  0.3017  0.4255  0.4063
 4248SOL     OW13063   3.865   0.455   0.227  0.3341  0.2667  1.0282
 4248SOL    HW113064   3.786   0.471   0.286  0.6767  0.1850  1.5175
 4248SOL    HW213065   3.848   0.495   0.137 -1.4025 -2.1007  0.1970
 4249SOL     OW13066   1.322   0.554   3.937 -0.2666 -0.7724 -0.1109
 4249SOL    HW113067   1.226   0.579   3.949  0.0715  0.3101  0.4894
 4249SOL    HW213068   1.341   0.543   3.839 -1.0904 -1.3885 -0.2077
 4250SOL     OW13069   5.073   0.910   3.757 -0.1535  0.2487 -0.6517
 4250SOL    HW113070   5.029   0.820   3.761  1.3922 -0.5003  0.1966
 4250SOL    HW213071   5.106   0.935   3.848 -0.7907  1.8091 -0.8286
 4251SOL     OW13072   4.169   2.607   4.148 -0.2813  0.1728  0.6545
 4251SOL    HW113073   4.235   2.535   4.127  0.9673  1.3539  0.3945
 4251SOL    HW213074   4.112   2.625   4.068 -0.1522 -0.0721  0.5058
 4252SOL     OW13075   0.213   1.386   0.194 -0.4822  0.1034 -0.2224
 4252SOL    HW113076   0.119   1.385   0.228 -0.2294 -0.4196  0.4882
 4252SOL    HW213077   0.217   1.345   0.103 -0.7355 -1.2430  0.3452
 4253SOL     OW13078   2.703   0.088   1.117  0.7850 -0.0602 -0.0478
 4253SOL    HW113079   2.674   0.147   1.041 -0.9765  0.5311  1.0230
 4253SOL    HW213080   2.722   0.144   1.198  3.9234 -0.5486 -0.3113
 4254SOL     OW13081   0.443   1.387   3.822  0.2628 -0.1580 -0.0451
 4254SOL    HW113082   0.399   1.302   3.795 -0.1020  0.1399 -0.4096
 4254SOL    HW213083   0.453   1.446   3.742  0.8842 -0.0212  0.1259
 4255SOL     OW13084   5.587   1.008   3.859  0.2684  0.7388  0.2628
 4255SOL    HW113085   5.602   1.025   3.956 -0.9768  0.1115  0.5744
 4255SOL    HW213086   5.513   0.942   3.847  0.0728  1.1777 -1.1286
 4256SOL     OW13087   4.152   0.202   3.959  0.3247 -0.5862 -0.1119
 4256SOL    HW113088   4.088   0.137   4.000 -0.0928 -0.1761 -0.0948
 4256SOL    HW213089   4.100   0.270   3.906  0.9300 -2.3442 -3.1884
 4257SOL     OW13090   3.008   0.572   4.531 -0.4913  0.7157  0.2823
 4257SOL    HW113091   3.032   0.651   4.475 -1.1214 -0.0540 -1.1532
 4257SOL    HW213092   3.026   0.488   4.479 -2.1555 -0.0022  0.7722
 4258SOL     OW13093   3.477   4.398   0.015  0.0692  0.4689 -0.7189
 4258SOL    HW113094   3.433   4.318   0.055  0.2089  0.7223 -0.0483
 4258SOL    HW213095   3.558   4.422   0.069 -0.3250  1.4436 -0.5520
 4259SOL     OW13096   0.417   5.409   4.049  0.0476  0.7256  0.0009
 4259SOL    HW113097   0.350   5.347   4.008 -0.6296  1.2384  0.2937
 4259SOL    HW213098   0.387   5.504   4.034 -0.2214  0.9279  1.6484
 4260SOL     OW13099   3.493   1.629   4.724 -0.1618 -0.0085  0.4327
 4260SOL    HW113100   3.493   1.545   4.779 -0.2659 -0.8020 -0.7302
 4260SOL    HW213101   3.466   1.707   4.781  1.6442 -0.4469  2.0010
 4261SOL     OW13102   4.058   1.315   4.811  0.0636  0.0056  0.0202
 4261SOL    HW113103   4.110   1.252   4.869 -0.9469 -1.0685 -0.1989
 4261SOL    HW213104   3.997   1.263   4.752 -0.3849  1.1843 -0.5930
 4262SOL     OW13105   5.461   2.069   4.585 -0.1937 -0.3338  0.5963
 4262SOL    HW113106   5.422   2.080   4.677 -0.1985 -2.5716  0.9086
 4262SOL    HW213107   5.559   2.051   4.592 -0.1013 -0.0355  0.1255
 4263SOL     OW13108   4.269   0.485   3.925 -0.2891  0.2590  0.3246
 4263SOL    HW113109   4.291   0.581   3.907 -1.4743  0.5574  0.4193
 4263SOL    HW213110   4.354   0.433   3.932  0.3453  1.0776 -0.8838
 4264SOL     OW13111   3.092   1.987   4.838 -0.2556  0.2891  0.3536
 4264SOL    HW113112   3.011   1.944   4.877 -0.2885  0.0047 -0.0251
 4264SOL    HW213113   3.082   1.994   4.739  0.1021  0.4214  0.3251
 4265SOL     OW13114   4.583   4.090   5.238 -0.6153  0.7006  0.5144
 4265SOL    HW113115   4.655   4.084   5.169 -0.2079  1.1679  0.8990
 4265SOL    HW213116   4.494   4.094   5.191 -0.8326 -3.9181  0.0093
 4266SOL     OW13117   5.476   1.241   5.363  0.3030 -1.1462  0.0155
 4266SOL    HW113118   5.487   1.200   5.453  0.3719 -1.5583 -0.1790
 4266SOL    HW213119   5.565   1.266   5.325  0.1830  0.6990  0.8132
 4267SOL     OW13120   4.497   0.371   4.589  0.2873  0.1229 -0.1366
 4267SOL    HW113121   4.406   0.331   4.604  1.2706 -2.4120 -0.3721
 4267SOL    HW213122   4.497   0.423   4.503 -1.0304  0.5069  0.0757
 4268SOL     OW13123   5.058   0.366   0.638  0.5011  1.0091 -0.4068
 4268SOL    HW113124   5.091   0.314   0.716 -0.8346 -1.6707 -1.5054
 4268SOL    HW213125   5.128   0.433   0.611  2.7430 -0.7902  0.5559
 4269SOL     OW13126   3.666   1.090   1.121 -0.1591  0.4655 -0.3506
 4269SOL    HW113127   3.583   1.049   1.160 -0.4789 -0.1702 -1.6071
 4269SOL    HW213128   3.737   1.094   1.190  0.0753 -2.7702 -0.2328
 4270SOL     OW13129   4.872   4.985   5.188 -0.3984  0.1659 -0.6859
 4270SOL    HW113130   4.900   5.016   5.097  0.2769  2.1416  0.1345
 4270SOL    HW213131   4.773   4.971   5.189 -0.2424 -1.3841 -2.0976
 4271SOL     OW13132   4.851   2.265   5.214 -0.0358  0.0644  0.2190
 4271SOL    HW113133   4.773   2.202   5.207  0.8506 -1.0390 -0.0295
 4271SOL    HW213134   4.821   2.357   5.190 -0.9465 -0.5883 -1.3364
 4272SOL     OW13135   4.359   1.091   4.150  0.3808 -0.0352  0.3408
 4272SOL    HW113136   4.378   1.078   4.247  1.6601  0.5530  0.1884
 4272SOL    HW213137   4.437   1.136   4.106  0.3495 -1.3470 -1.1931
 4273SOL     OW13138   2.533   0.425   1.103 -0.1527 -0.0026 -0.1153
 4273SOL    HW113139   2.584   0.469   1.029  0.8192  1.9182  1.5958
 4273SOL    HW213140   2.443   0.467   1.111 -0.4414 -0.5369 -0.4793
 4274SOL     OW13141   0.188   0.368   5.108 -0.0664 -0.4855  0.5977
 4274SOL    HW113142   0.196   0.272   5.134 -0.1198 -0.6899 -0.1213
 4274SOL    HW213143   0.105   0.407   5.148  0.9298 -0.1933  2.4921
 4275SOL     OW13144   5.329   2.091   4.816 -0.4897 -0.1754  0.1798
 4275SOL    HW113145   5.232   2.108   4.799 -0.4115 -0.3516 -0.4942
 4275SOL    HW213146   5.347   1.993   4.808 -0.2523 -0.1401  0.2770
 4276SOL     OW13147   4.325   1.842   4.414  0.1467  0.2609  1.0717
 4276SOL    HW113148   4.286   1.916   4.470 -0.1643  0.6914  0.3074
 4276SOL    HW213149   4.324   1.757   4.466 -2.3115  0.1325  0.9280
 4277SOL     OW13150   3.013   0.344   5.564  0.1525 -0.8025 -0.0728
 4277SOL    HW113151   3.092   0.329   5.624  0.6409 -0.4056 -0.6064
 4277SOL    HW213152   2.976   0.435   5.579 -0.3553 -1.0625  0.3299
 4278SOL     OW13153   0.141   1.309   5.243 -0.0141  0.1990  0.5432
 4278SOL    HW113154   0.127   1.246   5.166 -1.4023 -0.6567  1.4590
 4278SOL    HW213155   0.124   1.403   5.214  0.5297  0.0017 -0.4497
 4279SOL     OW13156   4.610   1.327   3.154  0.3608  0.0651  0.2917
 4279SOL    HW113157   4.587   1.389   3.079 -0.0177  0.2044  0.5173
 4279SOL    HW213158   4.707   1.304   3.151  0.0000 -1.4905 -1.4338
 4280SOL     OW13159   5.242   1.402   2.763  0.4181  0.2980  0.4818
 4280SOL    HW113160   5.151   1.395   2.721  0.5871  0.2141  0.1272
 4280SOL    HW213161   5.259   1.497   2.788 -0.0747  0.1942  1.2446
 4281SOL     OW13162   5.228   1.193   5.270 -0.0475 -0.3884 -0.3765
 4281SOL    HW113163   5.321   1.211   5.302 -0.9344  0.5841  1.7997
 4281SOL    HW213164   5.221   1.097   5.241  0.7553 -1.5557  2.8846
 4282SOL     OW13165   0.061   1.694   3.930 -0.0327  0.7047  0.4695
 4282SOL    HW113166   0.152   1.714   3.965 -0.4226  0.8591  1.4207
 4282SOL    HW213167  -0.007   1.740   3.986 -0.7173  0.3897 -0.0832
 4283SOL     OW13168   3.226   1.458   5.198  0.1557 -0.4847 -0.1416
 4283SOL    HW113169   3.174   1.372   5.196 -0.1012 -0.3516  0.5152
 4283SOL    HW213170   3.236   1.492   5.105 -0.0748 -1.0295 -0.3749
 4284SOL     OW13171   0.774   1.454   3.649 -0.1071 -0.2449 -0.7023
 4284SOL    HW113172   0.821   1.499   3.725  0.0436 -0.4105 -0.6960
 4284SOL    HW213173   0.824   1.472   3.564 -1.0067  1.0703 -0.9916
 4285SOL     OW13174   0.730   1.270   4.849  0.2953  0.0736  0.4414
 4285SOL    HW113175   0.644   1.315   4.825 -0.1571 -1.6491 -1.4119
 4285SOL    HW213176   0.725   1.238   4.943 -1.8867 -1.6092 -0.1522
 4286SOL     OW13177   0.233   0.051   4.233  0.0380  0.5319  0.7608
 4286SOL    HW113178   0.284   0.075   4.150 -0.8682 -1.2577 -0.3754
 4286SOL    HW213179   0.297   0.038   4.309  1.0663  0.4382 -0.0926
 4287SOL     OW13180   0.034   0.430   5.514  0.1090 -0.0485 -0.4647
 4287SOL    HW113181   0.098   0.380   5.456 -0.9971 -1.2245 -0.7266
 4287SOL    HW213182   0.017   0.520   5.474  0.1309 -0.4638 -1.4463
 4288SOL     OW13183   5.406   1.467   3.250  0.3683 -0.0754 -0.2420
 4288SOL    HW113184   5.435   1.444   3.157  0.9055  0.6067 -0.2562
 4288SOL    HW213185   5.326   1.526   3.247  0.0275 -0.5345 -0.2518
 4289SOL     OW13186   4.911   0.896   5.044  0.1938  0.3467  1.2037
 4289SOL    HW113187   4.826   0.945   5.028  1.0942  1.8512  0.8679
 4289SOL    HW213188   4.916   0.817   4.982 -0.6846  0.5876  0.8103
 4290SOL     OW13189   4.987   2.278   3.638  0.6215 -0.0040 -0.2119
 4290SOL    HW113190   5.045   2.298   3.559 -0.8306  0.3746 -1.2187
 4290SOL    HW213191   4.990   2.180   3.658 -0.4927 -0.4499 -1.9913
 4291SOL     OW13192   5.325   1.155   2.884 -0.5376  0.1368 -0.4617
 4291SOL    HW113193   5.252   1.087   2.888  0.1765 -0.7465 -1.8200
 4291SOL    HW213194   5.312   1.213   2.804  0.1005  0.1387 -0.5675
 4292SOL     OW13195   4.365   1.057   0.744 -0.0440 -0.9334 -0.2692
 4292SOL    HW113196   4.280   1.031   0.789 -0.0634  0.1147  0.3325
 4292SOL    HW213197   4.344   1.102   0.657  0.0150 -4.0568 -2.0562
 4293SOL     OW13198   4.545   0.556   0.270  0.0810  0.0577 -0.1267
 4293SOL    HW113199   4.635   0.538   0.309  0.6113  2.6003 -0.0468
 4293SOL    HW213200   4.548   0.543   0.171  0.5505  0.1794 -0.1286
 4294SOL     OW13201   3.925   1.692   4.881  0.1776 -0.2144 -0.0394
 4294SOL    HW113202   3.860   1.626   4.919  1.5476 -0.6756  1.6247
 4294SOL    HW213203   4.004   1.643   4.844  0.0053  0.3907 -1.2766
 4295SOL     OW13204   0.333   4.775   0.142  0.2924  0.0255 -0.2735
 4295SOL    HW113205   0.414   4.717   0.144  0.2204 -0.2802 -2.8205
 4295SOL    HW213206   0.347   4.849   0.077 -0.8787  0.9251  0.4595
 4296SOL     OW13207   2.122  -0.007   4.213  0.3937 -0.5577  0.4584
 4296SOL    HW113208   2.031   0.006   4.250  0.4425 -0.8719  0.6954
 4296SOL    HW213209   2.172   0.080   4.214  0.0270 -0.3399  0.1263
 4297SOL     OW13210   0.771   0.451   0.012 -0.5985 -0.1290  0.4502
 4297SOL    HW113211   0.765   0.490   0.104 -2.3384  0.6113  0.0564
 4297SOL    HW213212   0.737   0.357   0.013 -0.5978 -0.1281  0.5505
 4298SOL     OW13213   4.579   1.622   3.528 -0.6490  0.0363 -0.2789
 4298SOL    HW113214   4.481   1.639   3.532 -1.0966 -1.4401 -2.9299
 4298SOL    HW213215   4.596   1.525   3.515  1.2765  0.0800  1.3005
 4299SOL     OW13216   4.012   0.772   5.372  0.4760  0.0316 -0.1056
 4299SOL    HW113217   4.109   0.755   5.352  0.8431  1.8520 -0.0583
 4299SOL    HW213218   4.004   0.826   5.456 -0.5901 -0.1106 -0.0968
 4300SOL     OW13219   4.013   0.105   0.499  0.1566  0.0567 -0.1041
 4300SOL    HW113220   3.930   0.136   0.545 -0.6918 -0.6543 -1.0970
 4300SOL    HW213221   4.088   0.101   0.564 -0.3370  1.6447  0.6074
 4301SOL     OW13222   3.348   1.218   4.186 -0.1527 -0.3350  0.2612
 4301SOL    HW113223   3.444   1.245   4.178 -0.4160  0.6906  0.5321
 4301SOL    HW213224   3.329   1.143   4.122  1.3372 -2.0063  1.6629
 4302SOL     OW13225   4.934   1.743   4.219  0.6597  0.0764 -0.2957
 4302SOL    HW113226   4.903   1.792   4.301 -2.4081  0.1498 -1.3643
 4302SOL    HW213227   4.959   1.809   4.148 -2.2447  0.2331 -1.2963
 4303SOL     OW13228   3.580   0.174   4.888  0.5722  0.3690 -0.1251
 4303SOL    HW113229   3.643   0.118   4.941 -0.2262 -1.8705 -1.4058
 4303SOL    HW213230   3.631   0.237   4.830  1.5447  0.1199  0.4479
 4304SOL     OW13231   5.164   2.426   4.700 -0.2121  0.5299  0.0344
 4304SOL    HW113232   5.133   2.337   4.734 -0.2991  0.4212 -0.3207
 4304SOL    HW213233   5.235   2.411   4.631  1.0926  0.7913  1.2902
 4305SOL     OW13234   3.240   5.548   0.525  0.2293 -0.0525 -0.4301
 4305SOL    HW113235   3.219   5.638   0.563  0.9646 -0.3998  0.8719
 4305SOL    HW213236   3.168   5.483   0.552 -0.0963  0.0410 -1.0405
 4306SOL     OW13237   0.545   2.188   5.559 -0.1273  0.1261  0.2857
 4306SOL    HW113238   0.489   2.121   5.609  0.0692  0.5478  1.0882
 4306SOL    HW213239   0.536   2.278   5.602  0.9798  0.2504  0.2891
 4307SOL     OW13240   5.446   0.488   4.735 -0.0748  0.2648  0.2193
 4307SOL    HW113241   5.476   0.393   4.737 -0.8780  0.0100  0.6297
 4307SOL    HW213242   5.525   0.548   4.754  0.3014 -0.3496  0.6588
 4308SOL     OW13243   1.060   0.829   0.017 -0.4374 -0.1643  0.0192
 4308SOL    HW113244   1.013   0.836  -0.071 -0.7762  1.4223  0.2961
 4308SOL    HW213245   0.999   0.860   0.090  0.4660  0.3582  0.5745
 4309SOL     OW13246   2.871   1.647   0.243 -0.4804  0.4656  0.1025
 4309SOL    HW113247   2.889   1.739   0.209 -1.5008  0.7286  0.2365
 4309SOL    HW213248   2.946   1.586   0.217  0.7627  1.5705  0.9917
 4310SOL     OW13249   4.949   0.094   5.193 -0.7412 -0.0359 -0.3533
 4310SOL    HW113250   5.004   0.173   5.221  1.2104 -1.7434  0.9031
 4310SOL    HW213251   4.991   0.050   5.114  0.7294 -2.2556  1.5349
 4311SOL     OW13252   5.427   1.131   3.306 -0.1096  0.5796  0.2250
 4311SOL    HW113253   5.345   1.083   3.338 -0.0436 -0.9043 -1.6393
 4311SOL    HW213254   5.485   1.067   3.256  1.3877  2.0042  0.0642
 4312SOL     OW13255   5.198   1.323   4.881  1.0687 -0.0715  0.5832
 4312SOL    HW113256   5.286   1.362   4.855  1.2317  0.0824  1.3252
 4312SOL    HW213257   5.164   1.370   4.963  0.3431 -0.1944  0.3653
 4313SOL     OW13258   5.140   0.931   5.460 -0.6749  0.1398 -0.3200
 4313SOL    HW113259   5.053   0.963   5.497  0.1215  0.3850  1.4289
 4313SOL    HW213260   5.170   0.850   5.510 -0.2707 -0.4431 -1.4497
 4314SOL     OW13261   5.430   1.183   4.463  0.0093  0.0021  0.0045
 4314SOL    HW113262   5.399   1.187   4.368  1.9461 -0.5740 -0.6918
 4314SOL    HW213263   5.361   1.136   4.518 -2.2082  2.2958 -0.5840
 4315SOL     OW13264   5.043   1.995   3.699  0.2944  0.3785  0.0463
 4315SOL    HW113265   4.963   1.960   3.748  0.7632 -1.1545 -0.2201
 4315SOL    HW213266   5.126   1.971   3.749  0.6842  0.2611 -0.6404
 4316SOL     OW13267   4.949   2.920   5.110 -0.6543  0.1847 -0.0683
 4316SOL    HW113268   4.924   3.004   5.159 -1.0347 -0.3677  0.6979
 4316SOL    HW213269   4.868   2.862   5.100 -0.0491 -0.8729  0.9595
 4317SOL     OW13270   3.455   1.180   4.759 -0.6263  0.6392  0.2031
 4317SOL    HW113271   3.483   1.088   4.729  0.6417  1.1145 -0.1243
 4317SOL    HW213272   3.484   1.247   4.691 -2.5239  1.2052 -0.1136
 4318SOL     OW13273   4.209   1.876   3.381 -0.4466  0.7429  0.2967
 4318SOL    HW113274   4.253   1.811   3.443 -1.2764  0.5796  0.7424
 4318SOL    HW213275   4.272   1.951   3.360  0.6100 -0.3372 -0.4492
 4319SOL     OW13276   1.035   1.992   5.011 -0.4687 -0.2983  0.2911
 4319SOL    HW113277   1.119   1.941   4.994 -1.0650 -2.0989  2.2807
 4319SOL    HW213278   0.961   1.927   5.031 -1.8478  1.3164  0.6015
 4320SOL     OW13279   3.019   1.784   4.213 -0.3655 -0.4007 -0.0362
 4320SOL    HW113280   2.967   1.702   4.189  0.0056 -0.9720  1.0076
 4320SOL    HW213281   2.958   1.850   4.258 -0.9766  0.5186 -2.0975
 4321SOL     OW13282   3.893   1.267   5.589 -0.5877  0.2891  0.3189
 4321SOL    HW113283   3.949   1.350   5.597  1.4578 -0.9077 -0.6872
 4321SOL    HW213284   3.832   1.277   5.511 -0.1892  0.7693  0.0574
 4322SOL     OW13285   4.823   0.138   0.904  0.0418 -0.3800  0.7339
 4322SOL    HW113286   4.878   0.129   0.987  1.4721  0.2665 -0.1018
 4322SOL    HW213287   4.726   0.139   0.928  0.4206  2.2738  2.7094
 4323SOL     OW13288   5.207   0.504   3.858 -0.0111 -0.2204 -0.3278
 4323SOL    HW113289   5.237   0.542   3.946 -1.0133 -0.0879 -0.0362
 4323SOL    HW213290   5.187   0.407   3.870 -0.8622 -0.0397 -0.2206
 4324SOL     OW13291   3.677   1.572   5.464  0.1958  0.5277  0.0132
 4324SOL    HW113292   3.592   1.534   5.501  0.4290  1.5812  1.7246
 4324SOL    HW213293   3.745   1.579   5.536  1.0022  1.7675 -0.8153
 4325SOL     OW13294   4.933   0.657   0.211  0.5094  0.4322 -0.3191
 4325SOL    HW113295   4.877   0.593   0.263  0.9825  0.0968 -0.2169
 4325SOL    HW213296   4.896   0.665   0.118  0.7587 -0.4154 -0.5051
 4326SOL     OW13297   4.349   1.562   4.072 -0.0985  0.5252  0.1189
 4326SOL    HW113298   4.376   1.657   4.056 -0.4755  0.4884 -0.7933
 4326SOL    HW213299   4.266   1.542   4.019  0.9697 -0.8212 -1.1285
 4327SOL     OW13300   5.207   0.762   0.056 -0.4000  0.4277  0.0910
 4327SOL    HW113301   5.156   0.741   0.139 -0.1337  3.8926  1.2949
 4327SOL    HW213302   5.305   0.752   0.074 -0.3494  1.0486  0.1980
 4328SOL     OW13303   5.556   1.044   4.134 -0.6583  0.3158  0.7672
 4328SOL    HW113304   5.580   0.948   4.152 -1.0061 -0.0561 -0.6025
 4328SOL    HW213305   5.626   1.104   4.172 -0.5710 -0.4699  1.8754
 4329SOL     OW13306   4.866   1.552   4.779  0.0873  0.9240 -0.1505
 4329SOL    HW113307   4.951   1.530   4.732 -1.2178 -1.4725 -1.6630
 4329SOL    HW213308   4.802   1.593   4.714 -0.8974 -0.1083  0.1245
 4330SOL     OW13309   3.422   2.727   0.690  0.1684  0.0225  0.0489
 4330SOL    HW113310   3.380   2.701   0.603  1.6805 -1.3042 -0.3179
 4330SOL    HW213311   3.484   2.655   0.720 -1.2873 -0.1727  2.9286
 4331SOL     OW13312   3.616   5.363   3.618 -0.8832 -0.2994 -0.6358
 4331SOL    HW113313   3.564   5.281   3.591 -0.5725 -1.0515  0.9217
 4331SOL    HW213314   3.646   5.353   3.713  3.1959 -0.4925 -1.7517
 4332SOL     OW13315   5.257   1.714   5.302  0.1285 -0.2397 -0.6686
 4332SOL    HW113316   5.280   1.638   5.362 -0.6507  0.2546  0.2887
 4332SOL    HW213317   5.221   1.790   5.356 -2.6534 -0.5256 -1.9158
 4333SOL     OW13318   5.208   1.049   4.924  0.1600 -0.0302  0.3394
 4333SOL    HW113319   5.179   1.024   5.016  0.5904  0.4212  0.6008
 4333SOL    HW213320   5.173   1.140   4.901 -1.1493 -0.6985 -0.4966
 4334SOL     OW13321   2.935   1.375   4.989  0.3277 -0.1866  0.5497
 4334SOL    HW113322   3.001   1.356   4.917  0.7302 -0.7834  1.0677
 4334SOL    HW213323   2.969   1.338   5.076 -0.0232  0.7400  1.1004
 4335SOL     OW13324   0.288   0.598   4.698 -0.4166  0.5121 -0.6123
 4335SOL    HW113325   0.238   0.514   4.676 -0.6876  0.8415 -1.2659
 4335SOL    HW213326   0.385   0.586   4.675  0.1195 -0.6034  1.8835
 4336SOL     OW13327   0.061   1.802   0.432  0.2786  0.0002  0.0740
 4336SOL    HW113328   0.157   1.776   0.426  0.7936  1.1996  2.3020
 4336SOL    HW213329   0.013   1.739   0.492  0.2927  0.9255  1.0764
 4337SOL     OW13330   4.151   3.770   0.027  0.4266  0.2063  0.7151
 4337SOL    HW113331   4.204   3.692   0.060 -0.2088 -0.2457  0.6806
 4337SOL    HW213332   4.212   3.836  -0.016  0.8036 -0.8874 -0.4664
 4338SOL     OW13333   4.937   2.149   1.303  0.0589 -0.0277 -0.3745
 4338SOL    HW113334   4.968   2.083   1.235  1.7408  0.9726 -0.6291
 4338SOL    HW213335   4.994   2.231   1.299 -0.3650  0.4284  1.6354
 4339SOL     OW13336   0.250   4.052   5.292 -0.1772 -0.1256  0.0139
 4339SOL    HW113337   0.166   4.032   5.342 -1.0836  0.3637 -1.2537
 4339SOL    HW213338   0.228   4.105   5.210  1.6598  2.3512  1.0072
 4340SOL     OW13339   0.836   4.202   5.541 -0.4014  0.2672  0.1305
 4340SOL    HW113340   0.918   4.259   5.538 -0.4444  0.3586  0.6037
 4340SOL    HW213341   0.837   4.147   5.625  0.5486 -1.8097 -1.1812
 4341SOL     OW13342   4.440   4.400   0.647  0.1961  0.3027  0.2145
 4341SOL    HW113343   4.488   4.431   0.565  0.9333 -0.1015  0.4815
 4341SOL    HW213344   4.407   4.478   0.699  1.5636  0.6458  0.6088
 4342SOL     OW13345   5.070   3.036   0.368  0.4372 -0.3725 -0.5846
 4342SOL    HW113346   4.972   3.048   0.385  0.8604  0.8445  1.3443
 4342SOL    HW213347   5.103   2.955   0.417  0.7061  0.2103  0.2120
 4343SOL     OW13348   4.083   4.594   1.500 -0.3078 -0.0919 -0.6474
 4343SOL    HW113349   4.024   4.675   1.504 -1.5231 -0.9871  1.6570
 4343SOL    HW213350   4.176   4.620   1.523 -0.9340  0.5267  1.4002
 4344SOL     OW13351   3.765   1.992   2.976  0.1562 -0.6889 -0.0297
 4344SOL    HW113352   3.752   2.091   2.967 -1.7823 -0.8332  0.6324
 4344SOL    HW213353   3.774   1.968   3.073 -0.7400 -1.2813 -0.0816
 4345SOL     OW13354   4.589   3.134   0.838 -0.1651  0.2007 -0.0781
 4345SOL    HW113355   4.590   3.040   0.804 -2.2988 -0.2713  0.9820
 4345SOL    HW213356   4.558   3.195   0.765  0.3612 -0.0462 -0.5120
 4346SOL     OW13357   4.836   3.970   2.838 -0.9126 -0.3738  0.2888
 4346SOL    HW113358   4.900   3.895   2.851  2.1438  2.2106  1.4870
 4346SOL    HW213359   4.782   3.983   2.921  0.4849  0.3604  1.1143
 4347SOL     OW13360   4.333   2.495   0.376 -0.0128 -0.4001 -0.6513
 4347SOL    HW113361   4.421   2.536   0.352  1.0463 -2.6793 -0.9429
 4347SOL    HW213362   4.338   2.459   0.469 -0.8490 -0.0377 -0.4614
 4348SOL     OW13363   0.491   3.529   1.880 -0.8575 -0.6213 -0.4281
 4348SOL    HW113364   0.492   3.627   1.900 -0.5845 -0.9739  1.4796
 4348SOL    HW213365   0.397   3.499   1.867 -1.0695 -0.3320  0.3533
 4349SOL     OW13366   3.738   2.367   1.779  0.1838  0.0172 -0.5581
 4349SOL    HW113367   3.696   2.443   1.828 -0.9463 -0.3445 -0.9256
 4349SOL    HW213368   3.835   2.386   1.763 -0.0048  1.2110 -0.3331
 4350SOL     OW13369   4.862   3.367   0.226  0.0504  0.3392 -0.3841
 4350SOL    HW113370   4.792   3.437   0.214 -0.8847 -0.5458 -0.2335
 4350SOL    HW213371   4.869   3.343   0.323 -1.4063 -1.5029 -0.6745
 4351SOL     OW13372   0.013   3.666   0.731 -0.1152  0.2130  0.0248
 4351SOL    HW113373  -0.009   3.599   0.660 -0.4378  1.0927 -0.7282
 4351SOL    HW213374   0.097   3.715   0.707  0.4430 -0.3093  0.8590
 4352SOL     OW13375   5.146   3.738   1.438 -0.2107 -0.6936  0.3392
 4352SOL    HW113376   5.159   3.822   1.490  0.6169  0.0050 -0.9473
 4352SOL    HW213377   5.092   3.757   1.356  1.6842 -0.9430 -1.0359
 4353SOL     OW13378   4.503   2.592   1.070 -0.5986 -0.5764 -0.3472
 4353SOL    HW113379   4.593   2.621   1.037 -0.7528 -1.4351 -1.5947
 4353SOL    HW213380   4.461   2.666   1.123  0.7847 -0.1237  0.1575
 4354SOL     OW13381   4.377   3.660   0.687 -0.6017  0.2361 -0.3442
 4354SOL    HW113382   4.471   3.631   0.709 -0.2500  0.7524 -1.1221
 4354SOL    HW213383   4.316   3.633   0.762  0.0845 -0.5161 -0.0312
 4355SOL     OW13384   3.615   3.910   0.870 -0.6588  0.0105 -0.0662
 4355SOL    HW113385   3.584   4.002   0.849  0.4003  0.4768  0.3482
 4355SOL    HW213386   3.646   3.865   0.786  0.7447  0.7878  0.0036
 4356SOL     OW13387   3.760   3.494   0.914  0.5303  0.0866  0.1347
 4356SOL    HW113388   3.785   3.571   0.855  0.8646 -1.7700 -2.3101
 4356SOL    HW213389   3.679   3.448   0.876  1.1135 -1.5336  0.7756
 4357SOL     OW13390   0.222   1.615   0.889  0.0411  0.1876 -0.5641
 4357SOL    HW113391   0.137   1.666   0.879  0.4404  0.9068 -0.4076
 4357SOL    HW213392   0.204   1.517   0.883 -0.8002  0.3321 -0.4812
 4358SOL     OW13393   4.732   2.776   1.811  0.2927  0.0038 -0.0330
 4358SOL    HW113394   4.691   2.861   1.844 -0.5717 -0.8809  1.2641
 4358SOL    HW213395   4.704   2.759   1.717 -0.2338  0.7094 -0.0082
 4359SOL     OW13396   0.487   3.749   5.158 -0.1854 -0.6854 -0.1995
 4359SOL    HW113397   0.394   3.754   5.120  0.5500  0.8044 -1.9223
 4359SOL    HW213398   0.495   3.812   5.235 -0.6581 -1.0272  0.1392
 4360SOL     OW13399   3.470   3.569   5.207  0.3014 -0.2496  0.2878
 4360SOL    HW113400   3.534   3.645   5.217  0.4251 -0.3350  0.1390
 4360SOL    HW213401   3.463   3.520   5.294  0.7050 -0.4520  0.2090
 4361SOL     OW13402   0.335   3.505   5.526 -0.0639  0.0535 -0.4789
 4361SOL    HW113403   0.264   3.435   5.518 -0.7184  0.5614  0.4781
 4361SOL    HW213404   0.408   3.487   5.461  0.4916 -2.3272  0.6922
 4362SOL     OW13405   5.443   3.216   1.200  0.1008 -0.5594  0.0024
 4362SOL    HW113406   5.437   3.197   1.298  0.6334  0.6020  0.2836
 4362SOL    HW213407   5.511   3.288   1.184 -1.0769  0.3713 -1.0600
 4363SOL     OW13408   4.572   2.348   2.305 -0.3282  0.2390  0.6306
 4363SOL    HW113409   4.505   2.338   2.379 -1.3505 -1.2015 -0.4114
 4363SOL    HW213410   4.538   2.413   2.238 -0.3164  0.1055  0.4942
 4364SOL     OW13411   4.966   4.319   0.661  0.0785 -0.2016  0.1036
 4364SOL    HW113412   4.968   4.326   0.761 -1.8147  0.3954  0.1523
 4364SOL    HW213413   4.952   4.410   0.623 -2.4096 -0.7565 -0.4986
 4365SOL     OW13414   4.742   4.595   1.281 -0.1248  0.3748 -0.7264
 4365SOL    HW113415   4.734   4.518   1.217 -0.6540 -0.1785 -0.0062
 4365SOL    HW213416   4.838   4.623   1.286  0.1720 -0.6321 -0.5492
 4366SOL     OW13417   5.109   2.496   1.420 -0.2960  0.0244  0.0977
 4366SOL    HW113418   5.031   2.558   1.413 -0.6644 -0.2715  1.2777
 4366SOL    HW213419   5.162   2.518   1.501  0.3468 -0.3456 -0.2137
 4367SOL     OW13420   3.874   3.233   1.184 -0.1915  0.7509 -0.2287
 4367SOL    HW113421   3.846   3.146   1.225  1.4546 -0.2727 -1.1342
 4367SOL    HW213422   3.830   3.243   1.095 -0.2496  0.7511 -0.1998
 4368SOL     OW13423   0.125   2.178   0.800  0.0496 -0.1230  0.2460
 4368SOL    HW113424   0.145   2.170   0.898 -0.0104  1.8095  0.4465
 4368SOL    HW213425   0.207   2.210   0.753 -1.0300  3.1680  0.3602
 4369SOL     OW13426   4.453   3.821   1.056  0.0895  0.5534 -0.0545
 4369SOL    HW113427   4.417   3.888   0.991  1.5477  1.6403  0.2088
 4369SOL    HW213428   4.403   3.827   1.142 -0.7115  0.3106 -0.4963
 4370SOL     OW13429   4.182   1.060   2.433  0.1277  0.7649  0.2371
 4370SOL    HW113430   4.266   1.006   2.435  0.2241  0.9127  0.1769
 4370SOL    HW213431   4.128   1.041   2.515  0.6258  1.3275  0.7039
 4371SOL     OW13432   5.307   3.526   1.374  0.4381  0.2561  0.0253
 4371SOL    HW113433   5.251   3.603   1.405  1.7257  1.1158  0.2650
 4371SOL    HW213434   5.403   3.544   1.394  0.8706 -0.9812 -0.8292
 4372SOL     OW13435   4.248   4.416   1.701 -0.0210  0.0847 -1.1930
 4372SOL    HW113436   4.262   4.507   1.741  0.0742 -0.3752 -0.1293
 4372SOL    HW213437   4.193   4.424   1.618  2.9738  1.4925 -3.2111
 4373SOL     OW13438   3.911   3.833   5.349  0.2478 -0.0009  0.0813
 4373SOL    HW113439   3.922   3.849   5.447  1.1964  1.2439 -0.2135
 4373SOL    HW213440   3.991   3.785   5.314 -0.0698 -0.4035 -0.1152
 4374SOL     OW13441   5.350   1.878   0.587 -0.3938 -0.3444  0.3694
 4374SOL    HW113442   5.395   1.789   0.582  0.1833 -0.0946  0.9588
 4374SOL    HW213443   5.289   1.889   0.508 -0.8159 -1.4366  0.5189
 4375SOL     OW13444   5.374   4.253   4.595  0.0517  0.2704 -0.8709
 4375SOL    HW113445   5.297   4.200   4.629 -0.9193  0.1670 -3.0762
 4375SOL    HW213446   5.458   4.201   4.608 -0.0757  0.6467  2.1380
 4376SOL     OW13447   5.203   2.266   1.904  0.2438 -0.2761 -0.3731
 4376SOL    HW113448   5.302   2.256   1.897  0.2766  0.3104 -0.8309
 4376SOL    HW213449   5.160   2.234   1.819 -0.1060 -2.1845  0.4753
 4377SOL     OW13450   5.227   3.428   2.317  0.0253  0.3751 -0.0086
 4377SOL    HW113451   5.270   3.504   2.267  1.4725  0.7400  1.7025
 4377SOL    HW213452   5.297   3.362   2.344 -0.8806 -0.3760  0.5578
 4378SOL     OW13453   4.458   1.935   3.085 -0.0276 -0.4630  0.2731
 4378SOL    HW113454   4.412   1.850   3.110  1.1274 -1.1934 -0.0221
 4378SOL    HW213455   4.394   1.993   3.033 -1.0066 -0.8773  0.9863
 4379SOL     OW13456   3.773   1.857   1.203 -0.2668  0.0012 -0.4817
 4379SOL    HW113457   3.762   1.768   1.157 -0.4615 -0.0301 -0.3730
 4379SOL    HW213458   3.837   1.847   1.279 -0.1241  0.0006 -0.6020
 4380SOL     OW13459   4.092   2.327   0.375  0.0687  0.4988  0.2191
 4380SOL    HW113460   4.016   2.386   0.401 -0.2021  1.6621 -2.7975
 4380SOL    HW213461   4.164   2.383   0.332  1.5959 -0.8868  0.8684
 4381SOL     OW13462   3.775   3.205   0.922 -0.4456 -0.0888  0.2112
 4381SOL    HW113463   3.822   3.153   0.850 -0.7175 -0.6187  0.4077
 4381SOL    HW213464   3.770   3.301   0.896 -1.1091 -0.3740 -0.7966
 4382SOL     OW13465   5.134   2.254   5.571  0.2380 -0.3980 -0.1798
 4382SOL    HW113466   5.119   2.330   5.634  1.8121 -0.3459  0.1638
 4382SOL    HW213467   5.050   2.201   5.563 -0.2648  0.1276  1.2562
 4383SOL     OW13468   5.509   3.328   2.271 -0.3293  0.2059  0.1533
 4383SOL    HW113469   5.523   3.297   2.365 -0.9412  2.0479  0.8982
 4383SOL    HW213470   5.562   3.412   2.256  0.0234 -0.2436 -1.2775
 4384SOL     OW13471   4.005   4.236   1.167  0.4817 -0.3864  0.0526
 4384SOL    HW113472   3.938   4.251   1.095  2.6110  0.3038 -1.9120
 4384SOL    HW213473   4.010   4.138   1.188 -0.7189 -0.5081 -0.1533
 4385SOL     OW13474   4.784   2.540   0.412  0.0417 -0.2904 -0.2301
 4385SOL    HW113475   4.834   2.459   0.381 -0.5836 -0.8769  0.2823
 4385SOL    HW213476   4.706   2.556   0.351  1.4619  1.3241 -1.7654
 4386SOL     OW13477   5.394   4.499   4.730  0.0698 -0.2251 -0.2964
 4386SOL    HW113478   5.327   4.471   4.798  1.0555 -2.5590 -0.2110
 4386SOL    HW213479   5.415   4.423   4.669  1.4751  0.9128 -1.3140
 4387SOL     OW13480   3.613   3.183   0.644 -0.1333  0.0898 -0.4881
 4387SOL    HW113481   3.609   3.095   0.690 -1.3789  0.1455 -0.4373
 4387SOL    HW213482   3.708   3.210   0.630  0.2582 -1.4128 -0.8201
 4388SOL     OW13483   5.024   3.314   1.826 -0.7704 -0.4381 -0.1483
 4388SOL    HW113484   5.002   3.382   1.756  0.8181 -1.0647 -1.3233
 4388SOL    HW213485   5.046   3.360   1.912 -0.3633  0.5079 -0.7428
 4389SOL     OW13486   3.555   3.926   1.870 -0.0102  0.2114  0.3637
 4389SOL    HW113487   3.457   3.910   1.863  0.1024 -0.0618 -0.7447
 4389SOL    HW213488   3.594   3.863   1.938 -0.2978 -1.0827 -0.6332
 4390SOL     OW13489   3.544   3.111   1.051 -0.3709 -0.1817 -0.1957
 4390SOL    HW113490   3.626   3.126   0.996 -0.7266  0.9594 -0.4358
 4390SOL    HW213491   3.478   3.184   1.034 -0.8776 -0.3237  1.0364
 4391SOL     OW13492   4.513   2.560   5.080 -0.1572  0.3900  0.1541
 4391SOL    HW113493   4.526   2.465   5.051 -1.4695  0.1827  0.1810
 4391SOL    HW213494   4.514   2.565   5.180  0.4767  0.5026  0.1471
 4392SOL     OW13495   4.038   3.805   0.896  0.3961 -0.0672 -0.1600
 4392SOL    HW113496   3.968   3.810   0.967  1.8484  1.1991  1.2662
 4392SOL    HW213497   4.054   3.895   0.857  1.6984 -0.1751  0.0555
 4393SOL     OW13498   4.458   3.993   4.598  0.2913  0.1507 -0.1227
 4393SOL    HW113499   4.359   3.981   4.606  0.3869  0.2985  1.6974
 4393SOL    HW213500   4.492   3.936   4.524 -0.8855 -1.6159  0.6220
 4394SOL     OW13501   3.873   3.336   3.095  0.4716 -0.2387 -0.1077
 4394SOL    HW113502   3.923   3.302   3.015 -0.5476 -0.7761 -0.5248
 4394SOL    HW213503   3.924   3.413   3.135  0.3665  0.9049 -2.0429
 4395SOL     OW13504   0.830   2.339   0.485  0.4851  0.5929 -0.3000
 4395SOL    HW113505   0.788   2.273   0.547  1.5493  0.9646  0.8531
 4395SOL    HW213506   0.789   2.429   0.499  0.7582  0.6866 -0.0994
 4396SOL     OW13507   4.252   3.472   0.016 -0.3377 -0.3242  0.0889
 4396SOL    HW113508   4.185   3.496   0.086 -1.9687 -0.2698 -1.4140
 4396SOL    HW213509   4.303   3.391   0.044  0.6841  1.0077  2.3342
 4397SOL     OW13510   5.464   2.561   4.963  0.0277 -0.4007 -0.1669
 4397SOL    HW113511   5.546   2.587   4.912  0.5716 -0.5780  0.5902
 4397SOL    HW213512   5.383   2.595   4.916  0.5476 -0.0296 -0.8136
 4398SOL     OW13513   4.244   4.260   0.522 -0.4698 -0.0124 -0.6288
 4398SOL    HW113514   4.301   4.316   0.582 -1.4130 -0.9292  1.2065
 4398SOL    HW213515   4.182   4.319   0.469  0.8072  0.8498 -1.2199
 4399SOL     OW13516   3.642   4.517   0.211  0.3103 -0.2209 -0.1073
 4399SOL    HW113517   3.739   4.542   0.206  0.0867  0.7689  0.3758
 4399SOL    HW213518   3.586   4.596   0.189 -0.4066 -0.6260  0.2291
 4400SOL     OW13519   3.879   2.582   5.420 -0.5598 -0.2779 -0.0133
 4400SOL    HW113520   3.944   2.519   5.377 -0.7302 -2.0505  2.1380
 4400SOL    HW213521   3.789   2.538   5.426 -1.1294  0.8565  0.0457
 4401SOL     OW13522   0.556   2.754   1.781  0.3873  0.1284  0.3507
 4401SOL    HW113523   0.625   2.716   1.720 -1.3914 -2.0058 -0.4491
 4401SOL    HW213524   0.523   2.841   1.745  1.1231  0.1039 -0.3957
 4402SOL     OW13525   4.681   3.387   0.009 -0.5495  0.0115  0.1333
 4402SOL    HW113526   4.714   3.294   0.021  0.8263  0.7509  3.1381
 4402SOL    HW213527   4.593   3.398   0.056 -1.2451  0.0086 -1.1236
 4403SOL     OW13528   4.754   1.780   0.764  0.5094  0.4446 -0.2505
 4403SOL    HW113529   4.710   1.842   0.699 -0.7236 -1.6214 -1.4499
 4403SOL    HW213530   4.847   1.760   0.733  1.0941  1.9832  0.3916
 4404SOL     OW13531   3.806   2.447   0.441  0.0597  0.3296  0.3019
 4404SOL    HW113532   3.751   2.507   0.383  2.7707  1.0065 -1.7554
 4404SOL    HW213533   3.878   2.499   0.486  1.7641 -1.1316 -0.6010
 4405SOL     OW13534   4.264   3.435   1.094  0.1232 -0.1360  0.3684
 4405SOL    HW113535   4.275   3.345   1.137 -1.5773 -0.6747 -0.2333
 4405SOL    HW213536   4.187   3.482   1.137  1.0905  1.1375  0.7800
 4406SOL     OW13537   3.207   3.756   1.050 -0.6210 -0.0521  0.4958
 4406SOL    HW113538   3.137   3.822   1.077  0.2246  0.6414  1.0563
 4406SOL    HW213539   3.203   3.741   0.951 -1.4141  0.1360  0.4936
 4407SOL     OW13540   4.545   2.142   0.410  0.2015 -0.1982  0.4027
 4407SOL    HW113541   4.476   2.070   0.402 -0.1344  0.2201 -0.5719
 4407SOL    HW213542   4.523   2.199   0.489 -1.4302  0.7931 -0.6991
 4408SOL     OW13543   4.201   2.195   5.222  0.6491 -0.8036 -0.1080
 4408SOL    HW113544   4.157   2.111   5.254 -0.6176  0.2951  1.1556
 4408SOL    HW213545   4.278   2.218   5.281  1.0142 -1.0844 -0.4718
 4409SOL     OW13546   4.280   2.559   1.299  0.1356  0.1174 -0.3126
 4409SOL    HW113547   4.231   2.531   1.216  0.1794  0.4765 -0.4638
 4409SOL    HW213548   4.278   2.659   1.305  1.2368  0.1622 -0.5555
 4410SOL     OW13549   4.098   1.820   1.097 -0.8623 -0.1840 -0.1093
 4410SOL    HW113550   4.050   1.848   1.013  1.0850  1.1576 -0.8646
 4410SOL    HW213551   4.176   1.763   1.073 -0.2705  0.2296  0.7864
 4411SOL     OW13552   4.612   3.564   5.189  0.2534 -0.3437 -0.3704
 4411SOL    HW113553   4.675   3.521   5.253 -0.7779  0.9064  1.5597
 4411SOL    HW213554   4.610   3.663   5.205 -1.0482 -0.1705 -1.4217
 4412SOL     OW13555   4.356   2.553   0.814  0.7077  0.2424  0.0399
 4412SOL    HW113556   4.393   2.536   0.905  2.3046 -0.8518 -0.7592
 4412SOL    HW213557   4.430   2.580   0.753 -0.2856  0.6801 -1.0037
 4413SOL     OW13558   0.208   3.666   4.401 -0.4352  0.1480 -0.4480
 4413SOL    HW113559   0.156   3.582   4.415 -1.6420  1.0599  0.8149
 4413SOL    HW213560   0.223   3.680   4.303 -2.7995 -0.0363 -0.8954
 4414SOL     OW13561   4.247   2.852   1.353  0.3422  0.4436 -0.2806
 4414SOL    HW113562   4.274   2.829   1.446  2.7432  1.6817 -0.5782
 4414SOL    HW213563   4.159   2.898   1.353  0.2536  0.3063  1.3527
 4415SOL     OW13564   4.676   4.376   0.861  0.1949  0.0696 -0.6099
 4415SOL    HW113565   4.723   4.463   0.850 -0.8586  0.4918 -2.1121
 4415SOL    HW213566   4.583   4.384   0.826  0.5071 -2.0425 -2.0771
 4416SOL     OW13567   4.701   2.181   0.191 -0.1767  0.3865  0.3288
 4416SOL    HW113568   4.661   2.259   0.142 -0.5124  0.3703  0.5736
 4416SOL    HW213569   4.632   2.139   0.250 -0.0105 -0.1309  0.1602
 4417SOL     OW13570   4.595   2.422   0.039  0.5017  0.9451  0.3427
 4417SOL    HW113571   4.497   2.404   0.030  0.1700  2.5959  0.4112
 4417SOL    HW213572   4.636   2.428  -0.052  0.3273  1.3087  0.2861
 4418SOL     OW13573   4.706   2.756   2.151  0.2551 -0.1127  0.3860
 4418SOL    HW113574   4.737   2.827   2.214 -1.0274  0.5050  0.3618
 4418SOL    HW213575   4.760   2.760   2.067  1.2056 -0.1798  0.9782
 4419SOL     OW13576   5.279   3.795   0.118  0.5672  0.0547 -0.1505
 4419SOL    HW113577   5.221   3.827   0.192 -0.7101  0.7199 -1.3813
 4419SOL    HW213578   5.357   3.855   0.107 -0.0541  0.8463 -0.3079
 4420SOL     OW13579   4.690   2.263   1.413  0.3233 -0.6240 -0.2290
 4420SOL    HW113580   4.634   2.185   1.442 -0.6720  0.3145  0.4286
 4420SOL    HW213581   4.781   2.230   1.385  0.2289 -1.9177  0.8872
 4421SOL     OW13582   4.691   4.718   5.240  0.1985 -0.0421 -0.1221
 4421SOL    HW113583   4.776   4.684   5.200  1.5169  1.8143  0.9555
 4421SOL    HW213584   4.708   4.804   5.287 -2.1343 -0.0399  0.8726
 4422SOL     OW13585   4.811   3.346   5.140  0.7545 -0.3153  0.1315
 4422SOL    HW113586   4.781   3.264   5.190  1.3348 -0.3372  0.4588
 4422SOL    HW213587   4.911   3.350   5.141  0.7549 -0.1094 -0.7116
 4423SOL     OW13588   4.993   3.095   0.721  0.1230  0.2306 -0.7306
 4423SOL    HW113589   4.925   3.021   0.717 -0.2918  0.6387 -1.3721
 4423SOL    HW213590   4.970   3.157   0.795  0.1039  0.0722 -0.6028
 4424SOL     OW13591   4.133   2.728   0.809 -0.6059 -0.0827  0.3141
 4424SOL    HW113592   4.070   2.694   0.878  1.0514 -1.8157  1.0534
 4424SOL    HW213593   4.213   2.667   0.803 -0.6236  0.0217 -3.0552
 4425SOL     OW13594   0.260   3.514   4.939  0.0777  0.2628  0.1037
 4425SOL    HW113595   0.204   3.549   4.864  2.4577  0.4434 -1.7120
 4425SOL    HW213596   0.238   3.564   5.023 -1.2645  1.4645 -0.9089
 4426SOL     OW13597   4.907   2.297   0.337 -0.5943  0.1616  0.1698
 4426SOL    HW113598   4.959   2.216   0.365 -0.8366 -0.0600 -0.0186
 4426SOL    HW213599   4.834   2.270   0.274 -1.2284  0.4073  0.7895
 4427SOL     OW13600   4.349   1.486   0.253 -0.2323 -0.2769 -0.7360
 4427SOL    HW113601   4.391   1.565   0.209  0.0349 -0.6119 -1.0874
 4427SOL    HW213602   4.375   1.483   0.350 -0.1397 -0.0132 -0.7525
 4428SOL     OW13603   5.389   2.156   0.945 -0.8818 -0.2181 -0.2520
 4428SOL    HW113604   5.471   2.140   0.999 -0.8873 -0.2740 -0.2603
 4428SOL    HW213605   5.378   2.255   0.929 -1.6542 -0.0615  1.0860
 4429SOL     OW13606   3.947   4.477   0.901 -0.1792 -0.3662  0.6465
 4429SOL    HW113607   3.896   4.437   0.977  1.8893 -1.4658  1.5421
 4429SOL    HW213608   3.954   4.411   0.827 -1.7582  0.5248 -0.3385
 4430SOL     OW13609   0.071   2.815   1.255 -0.1716  0.4766  0.2682
 4430SOL    HW113610   0.164   2.826   1.291 -0.4351  0.7464  0.8748
 4430SOL    HW213611   0.071   2.835   1.158  0.3683  0.6896  0.3064
 4431SOL     OW13612   0.176   3.714   5.465  0.5611 -0.4621  0.3346
 4431SOL    HW113613   0.231   3.641   5.506  0.4811 -0.6412  0.1207
 4431SOL    HW213614   0.214   3.803   5.492  1.2579 -0.5850 -0.2288
 4432SOL     OW13615   0.020   3.481   0.543 -0.0208  0.1508  0.4148
 4432SOL    HW113616   0.101   3.421   0.544  0.5448  0.7211 -2.1514
 4432SOL    HW213617  -0.007   3.498   0.448 -2.1579  1.3599  1.1734
 4433SOL     OW13618   3.421   0.362   0.533 -0.2599  0.2277 -0.5372
 4433SOL    HW113619   3.462   0.288   0.479  2.5137 -0.0945  1.7534
 4433SOL    HW213620   3.429   0.448   0.483  1.2741 -0.2092 -1.1156
 4434SOL     OW13621   4.878   3.326   2.741  0.4030  0.0407 -0.7700
 4434SOL    HW113622   4.797   3.377   2.712 -1.0278 -1.1787  0.9372
 4434SOL    HW213623   4.954   3.348   2.679 -0.9194  1.9817 -1.8192
 4435SOL     OW13624   4.648   1.949   1.521 -0.2550  0.1443  0.4906
 4435SOL    HW113625   4.621   1.901   1.437 -0.6109  2.2825 -0.7123
 4435SOL    HW213626   4.566   1.980   1.568 -0.0234 -0.0327  1.0110
 4436SOL     OW13627   3.967   4.287   0.704 -0.1660 -0.4262 -0.1592
 4436SOL    HW113628   3.870   4.294   0.680 -0.0001  3.3454 -0.3593
 4436SOL    HW213629   4.019   4.261   0.623 -0.6277  2.4851 -1.5271
 4437SOL     OW13630   4.931   3.165   1.157 -0.2512 -0.2986 -0.0757
 4437SOL    HW113631   4.922   3.200   1.063 -0.2622 -0.5474 -0.1674
 4437SOL    HW213632   4.987   3.228   1.210  2.1233 -1.5015 -0.9906
 4438SOL     OW13633   2.611   4.069   0.485  0.1088 -0.2717  0.0337
 4438SOL    HW113634   2.634   4.092   0.579  0.5660  0.2506 -0.2055
 4438SOL    HW213635   2.694   4.045   0.434 -0.1144 -0.3856 -0.2856
 4439SOL     OW13636   4.738   4.128   0.902 -0.4726 -0.1305  0.2303
 4439SOL    HW113637   4.725   4.227   0.906 -1.0340 -0.1813 -0.2555
 4439SOL    HW213638   4.668   4.087   0.843  0.4869 -0.6851 -0.5567
 4440SOL     OW13639   4.033   2.199   0.968 -0.2174  0.5416 -0.2004
 4440SOL    HW113640   3.992   2.195   1.059  0.4544  1.3294  0.1432
 4440SOL    HW213641   3.963   2.179   0.899 -0.9368  0.8452  0.4304
 4441SOL     OW13642   5.496   4.091   4.929 -0.3600 -0.7308 -0.3010
 4441SOL    HW113643   5.402   4.114   4.950 -0.7810 -1.2333 -1.5318
 4441SOL    HW213644   5.511   4.099   4.830  0.9854 -0.3048 -0.0911
 4442SOL     OW13645   5.396   2.886   1.381  0.9962  0.3075  0.0909
 4442SOL    HW113646   5.367   2.972   1.424  1.2184  1.5629 -2.1180
 4442SOL    HW213647   5.491   2.895   1.350  0.6039 -0.2327 -1.3335
 4443SOL     OW13648   5.465   3.791   0.361  0.3674 -0.4733 -1.0111
 4443SOL    HW113649   5.533   3.864   0.372 -0.7122  0.1367  3.0100
 4443SOL    HW213650   5.511   3.707   0.333  2.6376  0.1780  0.4618
 4444SOL     OW13651   4.021   3.619   0.668  0.1570  0.0111  0.0666
 4444SOL    HW113652   4.098   3.664   0.713 -0.2063  1.2681 -0.5309
 4444SOL    HW213653   4.027   3.520   0.683  1.5158  0.1485  0.5789
 4445SOL     OW13654   5.149   2.044   0.944  0.0170 -0.2081 -0.0783
 4445SOL    HW113655   5.243   2.072   0.930 -0.1656  0.4408 -0.0322
 4445SOL    HW213656   5.092   2.124   0.963 -0.1430 -0.7739  2.1828
 4446SOL     OW13657   4.315   3.358   2.448  0.3102 -0.4647  0.6417
 4446SOL    HW113658   4.216   3.358   2.460  0.2725  1.5866  0.6335
 4446SOL    HW213659   4.337   3.360   2.350  0.4271 -2.1976  0.5882
 4447SOL     OW13660   5.083   3.389   2.070 -0.0916  0.5228 -0.4243
 4447SOL    HW113661   4.997   3.345   2.093 -0.9719  1.9715 -0.8351
 4447SOL    HW213662   5.144   3.388   2.150 -0.8963  0.4115  0.1921
 4448SOL     OW13663   4.160   1.463   1.112 -0.3834  0.0391  0.1829
 4448SOL    HW113664   4.185   1.458   1.015  1.7024  0.7923  0.6215
 4448SOL    HW213665   4.166   1.372   1.153 -0.4618 -0.1464 -0.2123
 4449SOL     OW13666   4.345   2.365   5.566  0.3971 -0.1596  0.5498
 4449SOL    HW113667   4.281   2.441   5.554 -0.3589 -0.7278  0.8863
 4449SOL    HW213668   4.294   2.279   5.570  1.2924 -0.7551 -0.4941
 4450SOL     OW13669   4.157   3.455   5.360 -0.4271  0.1579 -0.4127
 4450SOL    HW113670   4.100   3.375   5.346  1.4880 -1.4077  0.2364
 4450SOL    HW213671   4.158   3.480   5.457 -2.1383  1.9214 -0.7867
 4451SOL     OW13672   4.357   0.915   1.077  0.0391  0.4762 -0.5600
 4451SOL    HW113673   4.311   0.832   1.046  0.0193 -0.8307  2.5595
 4451SOL    HW213674   4.299   0.962   1.144  1.1089  1.6633 -0.4302
 4452SOL     OW13675   3.036   1.580   1.589  0.0289  0.1644 -0.3523
 4452SOL    HW113676   2.986   1.581   1.503 -0.2307 -1.8282 -0.2584
 4452SOL    HW213677   3.014   1.663   1.641  0.7223  1.7600 -2.4334
 4453SOL     OW13678   4.352   3.095   1.568  0.0001  0.1392 -0.4587
 4453SOL    HW113679   4.389   3.003   1.560  0.4079  0.2078  0.4779
 4453SOL    HW213680   4.270   3.094   1.625 -0.9592  0.1314 -1.7706
 4454SOL     OW13681   4.413   2.907   2.957  0.4650 -0.2926  0.2117
 4454SOL    HW113682   4.488   2.909   2.891  1.6854  0.6764  1.5871
 4454SOL    HW213683   4.447   2.876   3.046 -0.5948  0.8572  1.0424
 4455SOL     OW13684   5.100   1.288   0.043  0.2254  0.1627 -0.5615
 4455SOL    HW113685   5.029   1.356   0.022  0.9441  1.3486  0.6772
 4455SOL    HW213686   5.059   1.214   0.096  0.2031  1.7887  1.8407
 4456SOL     OW13687   1.180   1.913   5.396 -0.6414 -0.1848 -0.0307
 4456SOL    HW113688   1.278   1.929   5.395 -0.8622  1.4964  1.0483
 4456SOL    HW213689   1.162   1.817   5.417  0.7457 -0.5209 -0.2659
 4457SOL     OW13690   4.544   3.510   1.616 -0.2521 -0.4403  0.1129
 4457SOL    HW113691   4.557   3.568   1.535 -1.4347 -1.7862 -1.1013
 4457SOL    HW213692   4.617   3.527   1.681  0.5922  0.8902 -1.1253
 4458SOL     OW13693   5.305   4.582   1.673  0.2231 -0.4579 -0.4193
 4458SOL    HW113694   5.404   4.579   1.681  0.2237 -1.2446 -0.6099
 4458SOL    HW213695   5.267   4.635   1.748  0.7401 -0.8711  0.1445
 4459SOL     OW13696   5.480   2.471   1.339  0.6332  0.3188  0.3731
 4459SOL    HW113697   5.402   2.533   1.341 -0.3753 -0.9433  1.8785
 4459SOL    HW213698   5.546   2.498   1.409  0.2530 -0.2109  0.9441
 4460SOL     OW13699   3.583   3.710   2.045  0.5201  0.6091  0.0008
 4460SOL    HW113700   3.618   3.631   1.995  0.5530 -0.0783  1.0551
 4460SOL    HW213701   3.540   3.679   2.130 -1.0253  1.5884 -0.3835
 4461SOL     OW13702   0.036   1.116   5.090  0.1208 -0.1354 -0.1111
 4461SOL    HW113703  -0.011   1.110   5.002 -0.6715  1.4466  0.1694
 4461SOL    HW213704   0.003   1.044   5.151 -1.0788  0.2161 -0.3225
 4462SOL     OW13705   5.230   2.786   0.008  0.4413  0.0737  0.4217
 4462SOL    HW113706   5.270   2.833   0.087  1.9499 -0.5666  0.0859
 4462SOL    HW213707   5.299   2.778  -0.064 -0.7873  0.2851 -0.8238
 4463SOL     OW13708   3.970   3.914   1.994 -0.0271 -0.2824  0.0871
 4463SOL    HW113709   3.945   3.986   2.058  0.8878  0.2221 -0.1144
 4463SOL    HW213710   4.045   3.860   2.031  0.8463  0.3232 -0.7609
 4464SOL     OW13711   4.665   2.549   1.369 -0.1290 -0.5145 -0.0779
 4464SOL    HW113712   4.688   2.455   1.394 -0.2762 -0.7849 -0.9214
 4464SOL    HW213713   4.610   2.548   1.286 -1.3220  0.2489  0.6884
 4465SOL     OW13714   0.490   2.686   0.242  0.2538  0.2976 -0.1655
 4465SOL    HW113715   0.541   2.772   0.251 -0.0934  0.4314  0.5443
 4465SOL    HW213716   0.446   2.683   0.152 -2.6190  2.4575  1.0380
 4466SOL     OW13717   5.587   3.283   1.681  0.5574 -0.5597  0.0313
 4466SOL    HW113718   5.595   3.184   1.673 -0.3374 -0.9800  3.1104
 4466SOL    HW213719   5.517   3.306   1.748  0.1916  2.2108 -1.1503
 4467SOL     OW13720   3.153   2.534   1.805  0.6035  0.5233  0.2971
 4467SOL    HW113721   3.091   2.460   1.830  0.8895  1.1671  3.2856
 4467SOL    HW213722   3.101   2.617   1.788  0.4613  0.2455 -0.7366
 4468SOL     OW13723   3.089   2.238   1.231 -0.6883 -0.9691  0.2896
 4468SOL    HW113724   3.126   2.202   1.145  1.7888 -1.9792  1.6813
 4468SOL    HW213725   2.990   2.223   1.232 -0.6307 -1.9847 -1.8795
 4469SOL     OW13726   3.879   3.120   1.568  0.1423 -0.3655  0.0251
 4469SOL    HW113727   3.906   3.216   1.581 -2.1915  0.3566 -0.0969
 4469SOL    HW213728   3.882   3.073   1.656  0.6081 -0.0016  0.2097
 4470SOL     OW13729   5.221   4.773   0.864  0.7472  0.2036  0.1882
 4470SOL    HW113730   5.266   4.710   0.800  0.0771  0.6048 -0.7023
 4470SOL    HW213731   5.189   4.721   0.944  2.4213 -0.1464  0.6696
 4471SOL     OW13732   4.872   2.118   2.133  0.6330  0.3211 -0.3443
 4471SOL    HW113733   4.832   2.193   2.081 -1.0046  1.0493  1.7961
 4471SOL    HW213734   4.968   2.140   2.154  0.6628  1.0213 -1.1711
 4472SOL     OW13735   3.992   2.025   0.569 -0.3087  0.4475 -0.1945
 4472SOL    HW113736   4.073   2.083   0.579  0.8839 -1.0274 -0.8956
 4472SOL    HW213737   3.970   1.983   0.657 -0.5238  1.1104  0.0734
 4473SOL     OW13738   3.777   1.374   1.401 -0.0122 -0.6239  0.1028
 4473SOL    HW113739   3.730   1.433   1.335 -0.5833 -2.1037 -0.8674
 4473SOL    HW213740   3.709   1.320   1.452  0.5379 -1.2339  0.1979
 4474SOL     OW13741   4.329   3.424   2.170  0.4040 -0.3276  0.2852
 4474SOL    HW113742   4.233   3.399   2.185  0.5871 -1.8324 -0.7839
 4474SOL    HW213743   4.334   3.507   2.115 -0.3213 -0.7799 -0.4971
 4475SOL     OW13744   4.152   3.772   2.140 -0.8152 -0.5360 -0.0962
 4475SOL    HW113745   4.106   3.695   2.185 -0.6866 -0.3630  0.3408
 4475SOL    HW213746   4.234   3.738   2.093  0.7369 -0.3538  2.2608
 4476SOL     OW13747   5.199   2.342   0.548  0.1219 -0.6205 -0.0114
 4476SOL    HW113748   5.122   2.365   0.607  0.8856  0.0324  0.7460
 4476SOL    HW213749   5.254   2.270   0.590  0.2955 -0.6195 -0.2312
 4477SOL     OW13750   3.842   3.110   1.934  0.0455  0.1601 -0.1846
 4477SOL    HW113751   3.786   3.186   1.967  1.9082  0.7036  2.0664
 4477SOL    HW213752   3.872   3.054   2.012  0.3780 -1.7214 -1.5808
 4478SOL     OW13753   4.404   3.744   1.759 -0.2478 -0.3121 -0.1817
 4478SOL    HW113754   4.487   3.784   1.719 -2.0880  3.7198 -0.5706
 4478SOL    HW213755   4.377   3.663   1.706  3.0429 -1.4438 -0.3408
 4479SOL     OW13756   0.858   3.872   0.974  0.7328 -0.5817  0.3819
 4479SOL    HW113757   0.900   3.804   0.914  0.1953 -0.1701 -0.4810
 4479SOL    HW213758   0.860   3.839   1.068  0.6704 -1.7001  0.0074
 4480SOL     OW13759   4.336   2.642   1.947 -0.5936 -0.6592  0.4797
 4480SOL    HW113760   4.358   2.730   1.905 -0.7092  0.0343  1.8201
 4480SOL    HW213761   4.352   2.569   1.881  0.7312  0.2533 -0.2579
 4481SOL     OW13762   3.713   3.086   2.204  0.1852 -0.1504  0.0815
 4481SOL    HW113763   3.670   3.038   2.128  0.7778 -0.1322 -0.2740
 4481SOL    HW213764   3.725   3.024   2.281 -0.6893 -0.0900  0.2705
 4482SOL     OW13765   4.820   3.971   0.546 -0.3008  0.2071 -0.6527
 4482SOL    HW113766   4.850   3.894   0.603  0.1304  0.7882 -0.0844
 4482SOL    HW213767   4.757   3.938   0.476 -2.0759 -0.2820  1.0963
 4483SOL     OW13768   4.105   3.350   0.651  0.2883 -0.2784  0.1144
 4483SOL    HW113769   4.141   3.375   0.562 -2.2706  0.0227 -0.9323
 4483SOL    HW213770   4.179   3.317   0.709  2.0739 -0.2013 -1.9865
 4484SOL     OW13771   5.085   4.497   0.069  0.5691 -0.0545  0.1453
 4484SOL    HW113772   5.075   4.496   0.168  0.1525  1.1537  0.1306
 4484SOL    HW213773   5.182   4.508   0.046  0.5183  1.1672  0.4515
 4485SOL     OW13774   5.457   3.193   0.883  0.2879  0.1884  0.1552
 4485SOL    HW113775   5.417   3.220   0.971 -0.1371 -0.8516  0.2944
 4485SOL    HW213776   5.400   3.122   0.842  0.4421  0.7234 -1.0081
 4486SOL     OW13777   3.227   3.114   1.481  0.4281 -0.2712 -0.6798
 4486SOL    HW113778   3.141   3.084   1.439 -0.4282  0.1636  0.7217
 4486SOL    HW213779   3.297   3.045   1.464  0.4516  0.3522 -3.7206
 4487SOL     OW13780   5.490   3.817   1.870  0.0856 -0.1058  0.1855
 4487SOL    HW113781   5.499   3.836   1.773  0.5782 -1.7487 -0.1170
 4487SOL    HW213782   5.492   3.903   1.921  0.5588  0.7289 -1.1901
 4488SOL     OW13783   4.843   1.957   0.246  0.6467  0.4344  0.3239
 4488SOL    HW113784   4.812   2.034   0.189  1.9754  0.1945 -0.7723
 4488SOL    HW213785   4.896   1.992   0.323  1.7595  0.6227 -0.5020
 4489SOL     OW13786   0.429   0.517   1.006  0.5659  0.5537  0.0194
 4489SOL    HW113787   0.441   0.537   1.103 -2.5854  2.6260  0.1250
 4489SOL    HW213788   0.487   0.578   0.952  2.9393 -1.1290  0.4462
 4490SOL     OW13789   4.977   3.065   5.541  0.2289 -0.4130 -0.0483
 4490SOL    HW113790   5.033   3.102   5.615  0.2072  1.0182 -0.7159
 4490SOL    HW213791   4.881   3.066   5.569  0.3509 -1.1705  0.4146
 4491SOL     OW13792   3.088   2.462   1.381 -0.0167 -0.0922  0.6047
 4491SOL    HW113793   3.146   2.445   1.460  1.3626 -1.1817 -0.5984
 4491SOL    HW213794   3.086   2.381   1.322  0.5109  1.2815 -1.4202
 4492SOL     OW13795   4.829   3.260   0.893  0.1238 -0.5198  0.3555
 4492SOL    HW113796   4.825   3.357   0.918 -0.2289 -0.6404  0.7834
 4492SOL    HW213797   4.738   3.229   0.864  0.8836  0.1391 -3.1882
 4493SOL     OW13798   4.061   3.512   2.195 -0.0445  0.6872 -0.3078
 4493SOL    HW113799   4.007   3.437   2.155  1.1322 -1.0315  1.1877
 4493SOL    HW213800   4.013   3.549   2.275 -0.1738  0.9021 -0.4819
 4494SOL     OW13801   5.127   3.162   0.142  0.4929  0.7447 -0.0745
 4494SOL    HW113802   5.210   3.213   0.124 -0.7022  3.0608  0.6200
 4494SOL    HW213803   5.126   3.130   0.236 -0.3930  2.8214  0.6759
 4495SOL     OW13804   4.159   4.248   0.193 -0.2566  0.2612  0.1334
 4495SOL    HW113805   4.128   4.155   0.172  1.6607 -0.3295 -0.3100
 4495SOL    HW213806   4.240   4.270   0.137  0.3862  1.5343  1.4821
 4496SOL     OW13807   0.975   1.597   1.041 -0.0343  0.3511  0.3284
 4496SOL    HW113808   0.992   1.619   1.137  0.9244  0.3152  0.1777
 4496SOL    HW213809   1.062   1.595   0.992 -0.6686  2.2580 -0.9617
 4497SOL     OW13810   3.564   1.388   0.103 -0.5129 -0.3334 -0.0450
 4497SOL    HW113811   3.648   1.440   0.119 -0.6622  0.6474 -2.1057
 4497SOL    HW213812   3.491   1.451   0.075 -1.6723 -1.2803  0.7626
 4498SOL     OW13813   5.157   2.731   0.420  0.0896 -0.7784 -0.4333
 4498SOL    HW113814   5.218   2.660   0.383  0.8115 -0.6060  0.4020
 4498SOL    HW213815   5.121   2.702   0.508 -0.4309 -0.5415 -0.5643
 4499SOL     OW13816   4.747   2.359   2.009 -0.2560  0.1187 -0.3749
 4499SOL    HW113817   4.691   2.411   2.074  2.1211 -0.4569  2.4003
 4499SOL    HW213818   4.839   2.399   2.006  0.4570 -1.4961 -1.3583
 4500SOL     OW13819   4.014   3.228   0.289  0.0008  0.3561  0.2067
 4500SOL    HW113820   4.102   3.243   0.333 -0.1534 -0.1716  0.7058
 4500SOL    HW213821   3.951   3.302   0.313 -0.0137  0.1879  0.6956
 4501SOL     OW13822   5.429   3.724   4.455 -0.3070  0.3004  0.0549
 4501SOL    HW113823   5.397   3.722   4.549 -0.8882  0.2972 -0.1371
 4501SOL    HW213824   5.362   3.772   4.398 -1.0195 -1.5098 -0.7312
 4502SOL     OW13825   4.019   2.567   0.542 -0.0065  0.4404 -0.4938
 4502SOL    HW113826   4.061   2.629   0.477  2.7263 -0.9339 -0.1800
 4502SOL    HW213827   4.032   2.602   0.635  0.5018  0.0103 -0.3954
 4503SOL     OW13828   5.333   4.030   1.191  0.2127 -0.2214 -0.2649
 4503SOL    HW113829   5.325   4.097   1.118  1.5352 -0.4148 -0.6064
 4503SOL    HW213830   5.310   4.073   1.279 -1.7084 -0.0735 -0.7915
 4504SOL     OW13831   4.915   3.351   0.504 -0.1325 -0.0657  0.0962
 4504SOL    HW113832   5.005   3.353   0.547  1.0679  0.7686 -2.2941
 4504SOL    HW213833   4.853   3.296   0.560  1.6456 -0.1175  2.1449
 4505SOL     OW13834   5.243   0.769   1.170  0.1267  0.6643 -0.4418
 4505SOL    HW113835   5.226   0.803   1.077  0.6727  1.2177 -0.3467
 4505SOL    HW213836   5.311   0.696   1.166 -0.6084 -0.0360 -0.5792
 4506SOL     OW13837   3.637   2.540   0.743  0.2405  0.1522  0.4868
 4506SOL    HW113838   3.649   2.455   0.692  0.6247  1.3781 -1.5819
 4506SOL    HW213839   3.636   2.520   0.841  0.1806 -2.2267  0.0610
 4507SOL     OW13840   3.015   2.740   1.036  0.1075 -0.1121  0.3689
 4507SOL    HW113841   2.967   2.767   0.953 -0.3745 -0.7256  0.4397
 4507SOL    HW213842   3.110   2.769   1.031  0.2492 -0.7135 -0.6788
 4508SOL     OW13843   4.101   3.237   2.014  0.2775  0.0991 -0.5137
 4508SOL    HW113844   4.164   3.307   1.980 -1.7520  1.6307 -1.3489
 4508SOL    HW213845   4.023   3.230   1.952 -0.1092 -2.1633  0.1630
 4509SOL     OW13846   3.365   1.347   1.467  0.0693  0.2049  0.3785
 4509SOL    HW113847   3.349   1.316   1.374 -1.4045  0.3589  0.5617
 4509SOL    HW213848   3.283   1.330   1.523 -0.6102  3.7319  0.6530
 4510SOL     OW13849   4.331   3.908   0.783 -0.0401  0.0921  0.1276
 4510SOL    HW113850   4.341   3.815   0.748 -2.4889 -0.3023  0.3073
 4510SOL    HW213851   4.235   3.935   0.779  0.6531  2.7836 -0.2873
 4511SOL     OW13852   4.555   3.245   1.663 -0.2118 -0.1001 -0.2850
 4511SOL    HW113853   4.537   3.343   1.662 -0.4899 -0.1174  1.1634
 4511SOL    HW213854   4.487   3.198   1.607 -0.6969  0.4439 -0.1575
 4512SOL     OW13855   4.206   2.172   0.589 -0.2441 -0.1699  0.1035
 4512SOL    HW113856   4.182   2.248   0.529 -1.2264 -1.6079 -1.4289
 4512SOL    HW213857   4.246   2.207   0.673  2.1553  1.9331 -1.7586
 4513SOL     OW13858   4.790   3.554   0.911 -0.0940  0.4954  0.1752
 4513SOL    HW113859   4.849   3.533   0.989 -0.0409 -1.2779 -0.2986
 4513SOL    HW213860   4.695   3.538   0.937 -0.3834  2.8311  0.7701
 4514SOL     OW13861   3.567   2.095   2.271 -0.4428 -0.6668 -0.3549
 4514SOL    HW113862   3.649   2.055   2.230 -0.2979 -0.8565  0.1179
 4514SOL    HW213863   3.544   2.180   2.224  1.2807  0.5384  0.9066
 4515SOL     OW13864   0.643   4.654   0.904 -0.1546 -0.3538  0.2131
 4515SOL    HW113865   0.562   4.661   0.846 -0.2174  1.5336  0.4800
 4515SOL    HW213866   0.615   4.647   1.000 -0.0118  0.1855  0.2961
 4516SOL     OW13867   3.850   2.189   1.181  0.1309  0.1394  0.0235
 4516SOL    HW113868   3.832   2.091   1.197  4.5787 -0.8411  0.3855
 4516SOL    HW213869   3.799   2.243   1.248 -0.2887 -2.1789  1.7090
 4517SOL     OW13870   3.626   3.339   2.870  0.3365  0.1057 -0.0550
 4517SOL    HW113871   3.541   3.332   2.921  1.3178 -0.7809  1.5163
 4517SOL    HW213872   3.685   3.261   2.891  1.9364  1.1761 -0.3644
 4518SOL     OW13873   3.966   2.842   1.023  0.1100  0.2175  0.4403
 4518SOL    HW113874   4.005   2.877   1.108 -1.9847  1.0610  1.1128
 4518SOL    HW213875   4.000   2.897   0.946  2.0429 -0.5748  0.6806
 4519SOL     OW13876   0.955   3.007   0.191  0.4057 -0.1181  0.0394
 4519SOL    HW113877   0.914   2.937   0.132  1.7048 -0.5807 -0.3278
 4519SOL    HW213878   0.998   2.964   0.270  0.7566  0.3218  0.0930
 4520SOL     OW13879   5.372   1.819   4.774 -0.0489 -0.2146  0.0315
 4520SOL    HW113880   5.297   1.770   4.819 -0.6727 -0.4852 -1.2522
 4520SOL    HW213881   5.389   1.778   4.684  1.4715  0.0155  0.1951
 4521SOL     OW13882   5.003   4.101   5.463  0.3850  0.3599 -0.1394
 4521SOL    HW113883   5.098   4.132   5.460  0.8334 -0.9258  0.1210
 4521SOL    HW213884   4.977   4.083   5.558 -0.2403  1.0352 -0.1752
 4522SOL     OW13885   5.043   2.143   1.692  0.6652 -0.2192  0.0658
 4522SOL    HW113886   4.978   2.217   1.674  0.4846 -0.2319  0.6591
 4522SOL    HW213887   4.994   2.056   1.696  0.7390 -0.2468  0.3663
 4523SOL     OW13888   3.664   2.545   0.084 -0.4237 -0.1365  0.0532
 4523SOL    HW113889   3.641   2.585   0.173 -0.4874 -0.9301  0.4079
 4523SOL    HW213890   3.752   2.497   0.091 -0.4006 -0.1527 -0.3246
 4524SOL     OW13891   4.684   2.473   0.660 -0.3135 -0.0626  0.2069
 4524SOL    HW113892   4.713   2.487   0.566 -2.8441  2.5616 -0.3186
 4524SOL    HW213893   4.725   2.543   0.719 -0.8795  0.0102  0.5271
 4525SOL     OW13894   5.257   4.195   5.480  0.0092 -0.3560  0.8441
 4525SOL    HW113895   5.290   4.214   5.573 -0.1669 -2.0596  1.2985
 4525SOL    HW213896   5.335   4.170   5.423 -0.0878 -1.3223  1.1038
 4526SOL     OW13897   4.165   2.526   4.903 -0.0720 -0.5302 -0.0385
 4526SOL    HW113898   4.146   2.505   4.999 -0.3916  1.8618  0.4789
 4526SOL    HW213899   4.240   2.468   4.871  0.6204 -0.7815  1.9072
 4527SOL     OW13900   4.995   2.981   3.906 -0.5233  0.1391 -0.6653
 4527SOL    HW113901   5.021   2.911   3.973  1.7607 -0.9436 -2.5225
 4527SOL    HW213902   4.922   2.946   3.848 -1.8374  0.7163  0.5742
 4528SOL     OW13903   5.492   3.948   0.769 -0.1068 -0.2858 -0.0599
 4528SOL    HW113904   5.479   3.955   0.868  0.7678  0.4858  0.0145
 4528SOL    HW213905   5.479   3.853   0.740 -0.3180 -0.5259  0.8034
 4529SOL     OW13906   4.797   2.477   2.348 -0.0197 -0.0862  0.0358
 4529SOL    HW113907   4.750   2.560   2.380 -1.1964 -0.9085  0.5294
 4529SOL    HW213908   4.728   2.409   2.322  0.9335 -0.7872 -0.7010
 4530SOL     OW13909   3.417   2.476   4.394  0.0001 -0.3074 -0.6569
 4530SOL    HW113910   3.328   2.504   4.431  0.6702 -0.6878  1.3284
 4530SOL    HW213911   3.470   2.558   4.370 -0.4496 -0.0591 -0.8275
 4531SOL     OW13912   3.797   3.727   1.874 -0.1602 -0.2408 -0.7299
 4531SOL    HW113913   3.866   3.790   1.909 -0.9597  0.0746  0.3609
 4531SOL    HW213914   3.732   3.776   1.816 -1.4726  0.2610  1.0681
 4532SOL     OW13915   0.054   1.988   1.916 -0.0641  0.4384 -0.0619
 4532SOL    HW113916   0.008   1.941   1.841  2.1791 -0.9500 -0.6668
 4532SOL    HW213917   0.053   1.931   1.998  1.7857 -0.3138 -0.5107
 4533SOL     OW13918   3.588   2.941   0.743 -0.6315  0.0507  0.6888
 4533SOL    HW113919   3.531   2.874   0.696 -1.3626  0.9491  0.2519
 4533SOL    HW213920   3.665   2.895   0.786 -1.2307 -1.0906  0.5856
 4534SOL     OW13921   5.386   2.807   1.047 -0.1384  0.2472 -0.2375
 4534SOL    HW113922   5.374   2.747   1.127  0.4439 -0.0884 -0.3935
 4534SOL    HW213923   5.343   2.895   1.065 -2.9781 -0.8895 -0.8330
 4535SOL     OW13924   4.396   1.839   0.573 -0.2205 -0.4190 -0.1993
 4535SOL    HW113925   4.475   1.861   0.515  0.4769 -1.7716  0.1967
 4535SOL    HW213926   4.424   1.840   0.669 -1.1773  1.0190  0.1007
 4536SOL     OW13927   4.587   4.657   1.023 -0.0472 -0.4739 -0.1445
 4536SOL    HW113928   4.671   4.666   0.970  0.0379  0.0389  0.0735
 4536SOL    HW213929   4.579   4.733   1.087 -0.4637 -0.7483  0.1395
 4537SOL     OW13930   5.308   2.484   0.351  0.0500 -0.0257 -0.3700
 4537SOL    HW113931   5.250   2.472   0.270 -2.1616  1.4295  0.8972
 4537SOL    HW213932   5.266   2.439   0.429  0.6993  0.9128  0.5522
 4538SOL     OW13933   4.516   0.677   1.145 -0.3547 -0.3756 -0.2626
 4538SOL    HW113934   4.433   0.727   1.170 -1.3745 -1.7833 -0.6963
 4538SOL    HW213935   4.590   0.702   1.208 -1.1234  0.8294  0.1987
 4539SOL     OW13936   3.774   3.776   0.686 -0.1304 -0.1659 -0.5728
 4539SOL    HW113937   3.724   3.728   0.614 -0.3234  0.0229 -0.5673
 4539SOL    HW213938   3.872   3.764   0.673 -0.1559  0.0781 -1.0116
 4540SOL     OW13939   4.429   4.312   0.129 -0.2502  0.2271 -0.1241
 4540SOL    HW113940   4.482   4.269   0.055 -0.4280 -0.3333  0.0724
 4540SOL    HW213941   4.439   4.258   0.212 -0.3247  0.6756  0.1784
 4541SOL     OW13942   5.029   1.651   5.194 -0.0882  0.0019 -0.7792
 4541SOL    HW113943   5.112   1.682   5.240 -0.2933 -0.2078 -0.2600
 4541SOL    HW213944   5.004   1.717   5.123 -0.4116  0.9281  0.1691
 4542SOL     OW13945   4.316   3.319   0.840  0.2927 -0.8669  0.4045
 4542SOL    HW113946   4.318   3.406   0.889  0.4558  0.2394 -1.5043
 4542SOL    HW213947   4.260   3.254   0.892  1.7447 -0.3024  2.8543
 4543SOL     OW13948   5.604   3.270   0.273 -0.2347 -0.3282 -0.0487
 4543SOL    HW113949   5.507   3.247   0.274 -0.6300  1.0653  2.4287
 4543SOL    HW213950   5.657   3.191   0.305 -0.7043 -0.6475 -0.0462
 4544SOL     OW13951   3.832   4.025   1.038  0.6415 -0.3606  0.2774
 4544SOL    HW113952   3.773   3.955   0.997  0.0867  0.1576  0.1687
 4544SOL    HW213953   3.858   3.996   1.130 -1.5117  0.3106  1.1641
 4545SOL     OW13954   5.340   0.250   5.572  0.0492 -0.4268 -0.0506
 4545SOL    HW113955   5.359   0.212   5.481  0.5566  0.3082 -0.2555
 4545SOL    HW213956   5.425   0.253   5.624 -0.1515 -0.3644  0.2721
 4546SOL     OW13957   4.141   3.126   1.743 -0.4058 -0.2261  0.0145
 4546SOL    HW113958   4.081   3.206   1.741  0.4775  0.4741  0.7224
 4546SOL    HW213959   4.085   3.043   1.756 -1.0951  0.6842  4.6625
 4547SOL     OW13960   4.580   0.741   3.954 -0.2212 -0.0809  0.2769
 4547SOL    HW113961   4.487   0.745   3.918 -0.2398 -0.6894  0.2531
 4547SOL    HW213962   4.619   0.833   3.955 -0.8532  0.1913  0.3750
 4548SOL     OW13963   3.793   2.108   2.106  0.3834  0.1999  0.3495
 4548SOL    HW113964   3.881   2.102   2.153  0.0600 -1.7367  0.8055
 4548SOL    HW213965   3.805   2.087   2.009  0.5441  0.7577  0.2486
 4549SOL     OW13966   4.602   5.148   2.748 -0.0371  0.3897  0.6235
 4549SOL    HW113967   4.582   5.180   2.840  0.9656 -0.5348  1.1915
 4549SOL    HW213968   4.659   5.066   2.753 -1.1135 -0.4895 -0.7996
 4550SOL     OW13969   5.128   3.160   3.619 -0.3601 -0.4616  0.3181
 4550SOL    HW113970   5.141   3.221   3.697  2.5574  0.0573 -0.4541
 4550SOL    HW213971   5.094   3.213   3.540 -0.4868 -0.4110  0.4057
 4551SOL     OW13972   5.141   1.571   2.976 -0.1607 -0.1865 -0.5867
 4551SOL    HW113973   5.146   1.580   3.075  0.9506 -0.4168 -0.6177
 4551SOL    HW213974   5.115   1.478   2.952 -0.0814 -0.2241 -0.5245
 4552SOL     OW13975   4.459   3.312   2.652 -0.7892 -0.2330  0.4000
 4552SOL    HW113976   4.397   3.325   2.575 -0.0063 -1.5887 -0.4860
 4552SOL    HW213977   4.407   3.282   2.732 -1.4081 -0.3716 -0.0502
 4553SOL     OW13978   3.502   2.003   2.519 -0.3027 -0.2648 -0.3649
 4553SOL    HW113979   3.513   2.058   2.601  1.7018 -0.0287 -0.7486
 4553SOL    HW213980   3.532   2.054   2.439 -2.3304 -0.4455 -1.3245
 4554SOL     OW13981   0.155   1.533   3.755  0.0682 -0.1932 -0.1943
 4554SOL    HW113982   0.121   1.600   3.821 -2.5485  0.6126 -2.2132
 4554SOL    HW213983   0.212   1.466   3.803  1.2345  2.3202  2.2262
 4555SOL     OW13984   4.173   2.423   2.605 -0.0958  0.3808 -0.5077
 4555SOL    HW113985   4.186   2.437   2.507 -0.7375 -2.7201 -1.1364
 4555SOL    HW213986   4.244   2.362   2.640 -1.9553 -1.5626  0.0746
 4556SOL     OW13987   4.327   2.699   2.693  0.1581  0.1183 -0.2415
 4556SOL    HW113988   4.336   2.671   2.598 -0.6558  1.6155 -0.7713
 4556SOL    HW213989   4.279   2.786   2.699  1.3821  0.7270  1.4601
 4557SOL     OW13990   4.845   3.003   3.618  0.5480  0.0135 -0.1079
 4557SOL    HW113991   4.877   3.095   3.599 -1.4128  0.0956 -3.9440
 4557SOL    HW213992   4.771   3.007   3.686  0.1490  1.3375 -0.5913
 4558SOL     OW13993   4.997   2.679   2.647  0.2630  0.4158  0.5616
 4558SOL    HW113994   4.953   2.589   2.651 -1.3179  1.2180  2.4701
 4558SOL    HW213995   5.096   2.667   2.636  0.1323 -1.5661  1.1645
 4559SOL     OW13996   4.627   1.489   4.389  0.0245 -0.2175 -0.8139
 4559SOL    HW113997   4.527   1.489   4.379  0.0490  0.5001 -1.0811
 4559SOL    HW213998   4.655   1.562   4.450  0.3344 -0.9461 -0.0616
 4560SOL     OW13999   5.382   3.609   2.128 -0.0448 -0.2235  0.7342
 4560SOL    HW114000   5.375   3.564   2.039 -0.6698 -3.1564  2.1440
 4560SOL    HW214001   5.478   3.622   2.151  0.1335  0.1124 -0.1524
 4561SOL     OW14002   3.341   3.201   3.227  0.3417 -0.0796 -0.4173
 4561SOL    HW114003   3.276   3.244   3.289 -0.2890  0.5881 -1.5101
 4561SOL    HW214004   3.343   3.103   3.244  0.0783  0.0741  0.5536
 4562SOL     OW14005   5.016   2.811   4.186  0.8199  0.2281  0.3020
 4562SOL    HW114006   5.024   2.715   4.212  1.5588 -0.0472 -0.8636
 4562SOL    HW214007   5.105   2.855   4.193  1.1761  0.0179 -2.1053
 4563SOL     OW14008   4.451   1.991   1.709 -0.0298  0.1666  0.0666
 4563SOL    HW114009   4.478   1.901   1.742  0.3885 -0.0921 -0.9409
 4563SOL    HW214010   4.480   2.061   1.774  0.1853 -0.3721  0.5574
 4564SOL     OW14011   3.302   2.604   2.505 -0.1306  0.0375  0.5009
 4564SOL    HW114012   3.225   2.664   2.529 -0.1457 -0.3888  1.6035
 4564SOL    HW214013   3.337   2.628   2.415 -1.2856  0.5225  0.1675
 4565SOL     OW14014   4.853   4.035   3.497  0.4090  0.4481 -0.3938
 4565SOL    HW114015   4.838   4.132   3.518  1.3357  0.7880 -1.2040
 4565SOL    HW214016   4.766   3.990   3.482 -0.0693  1.0313  0.5185
 4566SOL     OW14017   4.435   3.248   3.156 -0.0864  0.1380 -0.2456
 4566SOL    HW114018   4.398   3.319   3.215 -0.0026  1.3941 -1.6494
 4566SOL    HW214019   4.381   3.242   3.072 -0.4488 -1.8815  0.0701
 4567SOL     OW14020   3.454   1.714   2.072 -0.4237  0.0921 -0.7271
 4567SOL    HW114021   3.406   1.678   2.151  0.7384  0.5142  0.2019
 4567SOL    HW214022   3.456   1.645   2.000  1.3024 -1.5886  0.8161
 4568SOL     OW14023   3.313   3.786   2.662 -0.0610 -0.6464 -0.1655
 4568SOL    HW114024   3.406   3.750   2.663  0.0130 -0.4474  1.0645
 4568SOL    HW214025   3.269   3.769   2.750 -0.5880  0.7921 -0.1141
 4569SOL     OW14026   4.528   4.226   2.059  0.1069  0.0528 -0.2465
 4569SOL    HW114027   4.495   4.288   2.131  1.8089  0.5973  0.1153
 4569SOL    HW214028   4.520   4.132   2.091 -0.4048  0.2070  0.1033
 4570SOL     OW14029   5.577   4.291   3.082 -0.2144 -0.1574  0.2723
 4570SOL    HW114030   5.538   4.314   2.994 -0.0105 -1.6552 -0.2393
 4570SOL    HW214031   5.619   4.200   3.078  3.4749  1.3298  0.7194
 4571SOL     OW14032   5.345   2.726   3.363  0.1059  0.0578  0.0735
 4571SOL    HW114033   5.387   2.752   3.276  1.2137  0.0014  0.5880
 4571SOL    HW214034   5.276   2.794   3.388 -0.9727 -0.4392 -1.3358
 4572SOL     OW14035   1.348   3.559   0.997 -0.3811 -0.4608  0.3625
 4572SOL    HW114036   1.398   3.491   0.942  0.0694 -0.8615  1.2379
 4572SOL    HW214037   1.412   3.603   1.061 -0.0620  2.7093 -1.9036
 4573SOL     OW14038   3.011   1.149   3.887  0.0913  0.6956  0.4600
 4573SOL    HW114039   3.101   1.137   3.928  0.7341  1.9889 -0.4972
 4573SOL    HW214040   2.941   1.138   3.957  0.8457 -2.0673  0.8894
 4574SOL     OW14041   4.018   3.525   2.903  0.0550  0.5679  0.5163
 4574SOL    HW114042   3.984   3.436   2.872  0.2903 -0.2481  2.4904
 4574SOL    HW214043   4.112   3.516   2.936  0.5259  1.8293 -0.3824
 4575SOL     OW14044   5.446   2.765   4.131  0.2391  0.0992  0.0234
 4575SOL    HW114045   5.535   2.774   4.088  0.2644  0.1410  0.0857
 4575SOL    HW214046   5.453   2.785   4.229  0.0019  0.9515 -0.1257
 4576SOL     OW14047   4.394   2.823   1.616 -0.8123 -0.1843 -0.6152
 4576SOL    HW114048   4.479   2.784   1.580 -0.7809  1.0539 -1.9607
 4576SOL    HW214049   4.413   2.874   1.699 -0.3572 -0.4533 -0.5497
 4577SOL     OW14050   3.700   3.043   2.893 -0.3267  0.3590 -0.3893
 4577SOL    HW114051   3.638   2.998   2.828 -1.5406 -0.6237  1.3814
 4577SOL    HW214052   3.744   2.975   2.950  0.5098  1.2224  0.0157
 4578SOL     OW14053   4.773   3.180   1.805 -0.5376  0.3540 -0.0688
 4578SOL    HW114054   4.713   3.223   1.738  0.3809  0.4809 -0.8397
 4578SOL    HW214055   4.858   3.233   1.812 -0.4185  0.0618  0.8323
 4579SOL     OW14056   4.277   3.544   2.937  0.3747  0.5790 -0.6160
 4579SOL    HW114057   4.361   3.574   2.982  0.8118  0.5077 -1.3846
 4579SOL    HW214058   4.283   3.560   2.839 -0.6124  0.8006 -0.6522
 4580SOL     OW14059   5.161   2.337   3.829 -0.4138  0.2901  0.6169
 4580SOL    HW114060   5.237   2.320   3.766  0.2541  1.2008  1.1637
 4580SOL    HW214061   5.075   2.333   3.778  0.1429  1.5470 -0.4769
 4581SOL     OW14062   3.081   3.950   3.248 -0.1947  0.4771  0.5258
 4581SOL    HW114063   3.158   3.939   3.311 -0.4932 -2.5825  0.5064
 4581SOL    HW214064   3.113   3.939   3.154 -0.6514 -1.5130  0.5482
 4582SOL     OW14065   0.763   4.533   2.453 -0.2190  0.2817  0.3874
 4582SOL    HW114066   0.850   4.503   2.492  0.6760  0.1308 -1.5904
 4582SOL    HW214067   0.771   4.628   2.423  0.2718 -0.5168 -2.3254
 4583SOL     OW14068   4.543   3.675   1.400  0.7982 -0.0050  0.0300
 4583SOL    HW114069   4.461   3.672   1.342 -0.0356 -0.0904  1.1826
 4583SOL    HW214070   4.582   3.767   1.396  0.3506  0.1826 -0.1223
 4584SOL     OW14071   4.759   2.825   2.645  0.1197  0.2913 -0.7171
 4584SOL    HW114072   4.701   2.787   2.573  0.1308 -1.9447  0.3625
 4584SOL    HW214073   4.832   2.760   2.667  0.2929  1.0392  1.0787
 4585SOL     OW14074   4.541   2.537   2.118  0.3008  0.1554 -0.1497
 4585SOL    HW114075   4.579   2.627   2.137 -1.7852  0.7716  1.5387
 4585SOL    HW214076   4.460   2.546   2.059  1.4715 -0.9041 -2.0084
 4586SOL     OW14077   3.925   1.602   4.199  0.6534 -0.2337  0.3108
 4586SOL    HW114078   3.934   1.584   4.297  0.1473 -1.5261  0.1375
 4586SOL    HW214079   3.847   1.662   4.183  1.2626  0.6947  0.7621
 4587SOL     OW14080   4.566   2.392   3.323  0.4016 -0.5007 -0.0307
 4587SOL    HW114081   4.506   2.466   3.351  0.6737 -0.2539 -0.0937
 4587SOL    HW214082   4.641   2.384   3.389 -0.7137 -2.0531  1.1303
 4588SOL     OW14083   3.802   2.559   2.960  0.2481 -0.4573  0.1647
 4588SOL    HW114084   3.858   2.559   3.043 -0.3576 -0.4742  0.5826
 4588SOL    HW214085   3.860   2.544   2.880  1.1390  1.3950  0.3924
 4589SOL     OW14086   0.293   1.104   2.689 -0.3580  0.2134  0.0520
 4589SOL    HW114087   0.370   1.162   2.716 -0.5874  1.0076 -0.9555
 4589SOL    HW214088   0.316   1.008   2.708  0.7453  0.4684  0.0910
 4590SOL     OW14089   4.033   1.668   3.792 -0.1406  0.0214  0.2529
 4590SOL    HW114090   4.052   1.610   3.872  1.9540 -0.0984 -0.2840
 4590SOL    HW214091   4.110   1.729   3.776 -0.3487 -0.2045 -1.8981
 4591SOL     OW14092   3.716   2.372   2.524 -0.5951  0.6723 -0.4596
 4591SOL    HW114093   3.623   2.362   2.558 -0.6044  0.6586 -0.4894
 4591SOL    HW214094   3.779   2.323   2.585 -0.9061 -1.8411 -2.0217
 4592SOL     OW14095   3.905   2.804   4.145 -0.2233 -0.5990  0.1890
 4592SOL    HW114096   3.998   2.837   4.158  0.3567 -1.6037 -1.0816
 4592SOL    HW214097   3.859   2.860   4.077 -0.5694 -0.0772  0.8475
 4593SOL     OW14098   3.176   3.471   2.879  0.2796  0.0067  0.3947
 4593SOL    HW114099   3.184   3.570   2.866  1.9363 -0.1430  0.0050
 4593SOL    HW214100   3.175   3.426   2.790  0.1173 -0.3609  0.5826
 4594SOL     OW14101   4.697   2.598   3.675  0.3571  0.4219 -0.2010
 4594SOL    HW114102   4.758   2.578   3.752  0.3820 -0.1061 -0.3576
 4594SOL    HW214103   4.606   2.618   3.710 -0.0673 -1.4922 -0.1094
 4595SOL     OW14104   4.206   2.946   2.674 -0.6836 -0.0868  0.0707
 4595SOL    HW114105   4.194   3.010   2.750 -0.5869  0.8791 -0.6935
 4595SOL    HW214106   4.259   2.991   2.601 -0.1035 -1.2522 -0.2487
 4596SOL     OW14107   4.767   1.148   3.551 -0.5844  0.8378  0.8849
 4596SOL    HW114108   4.824   1.196   3.617  0.9142 -0.4585  0.5808
 4596SOL    HW214109   4.720   1.072   3.596  0.9077 -0.4255  0.4232
 4597SOL     OW14110   4.613   3.013   2.792 -0.2982  0.4749 -0.2594
 4597SOL    HW114111   4.660   2.931   2.759  0.5229 -0.0229  1.9455
 4597SOL    HW214112   4.597   3.076   2.716  0.6933 -0.9224 -1.6856
 4598SOL     OW14113   3.883   3.055   2.695 -0.0404 -0.1455 -0.3696
 4598SOL    HW114114   3.959   2.992   2.709  1.0461  0.6620 -2.1652
 4598SOL    HW214115   3.815   3.043   2.767 -0.0891 -3.6069 -0.8389
 4599SOL     OW14116   0.135   1.816   2.131 -0.4805  0.3985  0.5380
 4599SOL    HW114117   0.219   1.788   2.178 -0.3100 -2.0724 -1.0995
 4599SOL    HW214118   0.060   1.755   2.157 -0.8262  0.1574 -0.9769
 4600SOL     OW14119   5.198   3.151   4.437 -0.0153  0.5420  0.4690
 4600SOL    HW114120   5.126   3.105   4.488 -0.9017  3.0559  1.6790
 4600SOL    HW214121   5.287   3.119   4.467 -0.5800 -0.6599  0.9149
 4601SOL     OW14122   4.515   3.660   3.803 -0.1468 -0.1363  0.1402
 4601SOL    HW114123   4.465   3.611   3.874 -0.1696 -0.1733  0.0995
 4601SOL    HW214124   4.588   3.714   3.844  1.4107 -2.0215  0.0209
 4602SOL     OW14125   4.170   3.058   2.953 -0.2118  0.0812 -0.3534
 4602SOL    HW114126   4.256   3.008   2.951 -0.4348 -0.3023 -1.8364
 4602SOL    HW214127   4.147   3.083   3.047  1.6180  0.3972  0.0305
 4603SOL     OW14128   4.137   4.256   3.964 -0.0026 -0.2434 -0.5045
 4603SOL    HW114129   4.047   4.294   3.939  0.4687  0.2752 -1.4645
 4603SOL    HW214130   4.134   4.157   3.955 -1.0170 -0.4026  1.2698
 4604SOL     OW14131   4.708   4.344   3.690 -0.7502 -0.7027  0.1268
 4604SOL    HW114132   4.734   4.363   3.784 -0.6983 -0.6789  0.1078
 4604SOL    HW214133   4.635   4.408   3.662  0.5545  0.5888 -0.4640
 4605SOL     OW14134   3.492   1.471   3.540  0.0099 -0.2301 -0.4001
 4605SOL    HW114135   3.562   1.424   3.487  0.4117 -0.5185  0.3637
 4605SOL    HW214136   3.429   1.518   3.478 -0.2670 -1.5719 -1.1969
 4606SOL     OW14137   5.114   2.075   2.449  0.7973 -0.0352  0.5383
 4606SOL    HW114138   5.171   2.134   2.506  0.5191  0.5040  0.2668
 4606SOL    HW214139   5.113   2.110   2.355  2.0344 -1.4526 -0.0465
 4607SOL     OW14140   4.690   4.480   2.723  0.3869 -0.3160 -0.4522
 4607SOL    HW114141   4.596   4.505   2.701  0.2890 -0.8394 -0.6444
 4607SOL    HW214142   4.692   4.436   2.813  0.5233  0.1504 -0.2230
 4608SOL     OW14143   4.927   3.612   2.603  0.2554 -0.3282  0.4080
 4608SOL    HW114144   4.979   3.647   2.681 -0.3657  1.1873  0.1759
 4608SOL    HW214145   4.829   3.628   2.618  0.0386 -1.0155 -0.2052
 4609SOL     OW14146   3.518   3.295   1.270  0.2412  0.0779  0.2881
 4609SOL    HW114147   3.509   3.196   1.258  0.0302  0.0859  0.3617
 4609SOL    HW214148   3.601   3.328   1.225  0.9453 -0.3132  1.2835
 4610SOL     OW14149   4.026   2.226   3.186 -0.5299  0.3075  0.5671
 4610SOL    HW114150   3.982   2.136   3.196  0.6496 -0.4430 -0.6811
 4610SOL    HW214151   4.074   2.249   3.271 -0.5901 -0.3716  0.7939
 4611SOL     OW14152   4.454   1.989   3.355  0.0436 -0.1483 -0.6267
 4611SOL    HW114153   4.463   1.939   3.269 -1.8503  0.2869 -1.1242
 4611SOL    HW214154   4.545   2.007   3.393  0.9172 -0.4325 -2.4724
 4612SOL     OW14155   0.435   1.739   3.635  0.3775  0.0438 -0.0061
 4612SOL    HW114156   0.369   1.749   3.561  1.3725 -1.0339 -1.0633
 4612SOL    HW214157   0.491   1.657   3.621  1.9277  0.8880  0.8655
 4613SOL     OW14158   4.595   3.756   2.202  0.2979  0.2961  0.0730
 4613SOL    HW114159   4.688   3.743   2.167  0.8561  0.7141  1.3086
 4613SOL    HW214160   4.589   3.716   2.294 -1.1157 -0.8329 -0.4859
 4614SOL     OW14161   4.168   1.833   4.204  0.1435  0.0903 -0.2033
 4614SOL    HW114162   4.132   1.740   4.204 -0.4522  0.2924  0.8866
 4614SOL    HW214163   4.238   1.842   4.275  0.1782  0.4740 -0.2823
 4615SOL     OW14164   5.314   3.857   3.697  0.6986  0.0968  0.5214
 4615SOL    HW114165   5.269   3.946   3.698  0.4410 -0.0189  1.8216
 4615SOL    HW214166   5.248   3.786   3.723  1.3725 -0.2063  1.4590
 4616SOL     OW14167   5.395   2.328   3.685 -0.3762  0.0949  0.0913
 4616SOL    HW114168   5.436   2.237   3.676 -0.7478 -0.3169  2.0934
 4616SOL    HW214169   5.389   2.371   3.594  4.2089  0.1442 -0.4032
 4617SOL     OW14170   5.345   3.526   3.533 -0.0920  0.6553 -0.2661
 4617SOL    HW114171   5.257   3.564   3.504 -0.9401 -1.0768 -0.0681
 4617SOL    HW214172   5.344   3.514   3.632  0.2172  0.2401 -0.3168
 4618SOL     OW14173   4.167   3.793   3.028 -0.0110 -0.1645  0.4327
 4618SOL    HW114174   4.184   3.705   2.984  1.5109  0.2724  0.0863
 4618SOL    HW214175   4.238   3.858   3.001 -1.3677  1.3225  0.3006
 4619SOL     OW14176   3.684   2.752   3.228 -0.0030 -0.3488  0.6933
 4619SOL    HW114177   3.756   2.765   3.159  1.6567  1.4575  2.6170
 4619SOL    HW214178   3.645   2.841   3.253 -2.3037 -1.2113  0.4045
 4620SOL     OW14179   0.271   2.746   1.879  0.0698  0.0536  0.2150
 4620SOL    HW114180   0.364   2.743   1.842  0.4021  1.7998  0.8240
 4620SOL    HW214181   0.261   2.826   1.938 -1.5938 -0.5526  0.8149
 4621SOL     OW14182   4.996   1.111   2.732 -0.3146  0.5043  0.2168
 4621SOL    HW114183   5.036   1.074   2.816 -2.2937  0.7503  1.3397
 4621SOL    HW214184   4.977   1.037   2.668 -0.5823  0.0560  0.8059
 4622SOL     OW14185   4.617   2.700   2.460 -0.2489 -0.2272  0.3340
 4622SOL    HW114186   4.577   2.725   2.372  2.0605  2.3317 -0.1386
 4622SOL    HW214187   4.550   2.651   2.515 -2.5939  0.3236 -1.8551
 4623SOL     OW14188   3.987   1.765   3.296 -0.0319  0.4436  0.0988
 4623SOL    HW114189   4.072   1.810   3.322 -0.3926  0.2420  1.7304
 4623SOL    HW214190   4.007   1.673   3.261  0.3955  0.1319  1.1255
 4624SOL     OW14191   4.508   4.169   3.107  0.2827  0.4046  0.0629
 4624SOL    HW114192   4.462   4.205   3.188 -1.2610  1.9279 -1.3862
 4624SOL    HW214193   4.559   4.243   3.062  0.1412 -0.1003 -0.9704
 4625SOL     OW14194   4.910   3.030   2.785  0.5941  0.0613  0.6224
 4625SOL    HW114195   4.861   2.953   2.743  0.3050  0.1756  0.7510
 4625SOL    HW214196   4.853   3.112   2.783  1.3618  0.6012 -0.6283
 4626SOL     OW14197   5.044   3.907   3.368 -0.5749  0.2401  0.4295
 4626SOL    HW114198   4.980   3.960   3.423 -1.1015 -1.2165  1.3030
 4626SOL    HW214199   5.040   3.937   3.273 -1.2479  1.3671  0.8013
 4627SOL     OW14200   3.778   4.670   2.233  0.6023  0.9676  0.3479
 4627SOL    HW114201   3.721   4.649   2.153  2.4292  1.3834 -1.1430
 4627SOL    HW214202   3.815   4.585   2.271 -1.4605  0.6287  1.7563
 4628SOL     OW14203   2.620   1.599   3.579  0.1910 -0.1635  0.2022
 4628SOL    HW114204   2.533   1.586   3.532  0.3353  0.8897 -0.4031
 4628SOL    HW214205   2.603   1.627   3.674 -0.1057 -1.6100  0.5893
 4629SOL     OW14206   4.356   1.755   2.501  0.2708  0.0884 -0.3725
 4629SOL    HW114207   4.385   1.810   2.422 -0.5404  0.8756 -0.1397
 4629SOL    HW214208   4.371   1.658   2.481  0.0360  0.2747 -1.5137
 4630SOL     OW14209   5.217   2.671   2.001 -0.1592 -0.1838 -0.2347
 4630SOL    HW114210   5.204   2.722   2.086 -0.1830  0.3612 -0.5536
 4630SOL    HW214211   5.129   2.633   1.971 -0.2924  0.2319 -0.3844
 4631SOL     OW14212   5.352   2.717   2.543  0.1787  0.8097  0.0052
 4631SOL    HW114213   5.335   2.689   2.637  2.6830  1.2280  0.6673
 4631SOL    HW214214   5.299   2.799   2.522 -0.1882  0.8746  1.1305
 4632SOL     OW14215   4.661   3.663   2.903 -0.0276  0.1800  0.7980
 4632SOL    HW114216   4.609   3.632   2.983  1.2295 -2.0885  0.8180
 4632SOL    HW214217   4.724   3.735   2.930 -1.7351  1.6080  1.1644
 4633SOL     OW14218   5.350   1.402   2.517 -0.0021 -0.2232  1.0711
 4633SOL    HW114219   5.439   1.362   2.496  1.5573  3.4599 -0.3111
 4633SOL    HW214220   5.332   1.395   2.615  1.0332 -2.3625  1.1653
 4634SOL     OW14221   4.924   3.039   2.047 -0.6605 -0.3601  0.4727
 4634SOL    HW114222   4.846   3.064   1.990 -0.7508  1.5526  1.3579
 4634SOL    HW214223   5.007   3.078   2.008 -0.0840 -2.3461 -0.4409
 4635SOL     OW14224   4.337   3.267   2.896  0.2172 -0.2854 -0.1078
 4635SOL    HW114225   4.270   3.194   2.917 -0.5538  1.0044  2.3198
 4635SOL    HW214226   4.292   3.356   2.904  1.2804  0.5365 -2.5097
 4636SOL     OW14227   0.202   4.328   2.645  0.4672 -0.3957  0.7929
 4636SOL    HW114228   0.123   4.267   2.655  1.5703 -1.9778  0.1998
 4636SOL    HW214229   0.239   4.349   2.735  0.7930 -1.6010  0.9533
 4637SOL     OW14230   5.594   1.786   0.795  0.2629 -0.4478 -0.2587
 4637SOL    HW114231   5.495   1.780   0.779  0.2081 -1.9175  0.3949
 4637SOL    HW214232   5.610   1.824   0.886  0.4150  2.2778 -1.3299
 4638SOL     OW14233   5.398   2.458   3.396 -0.4681  0.1568 -0.6417
 4638SOL    HW114234   5.466   2.407   3.344 -0.4809 -1.1510  0.5598
 4638SOL    HW214235   5.402   2.554   3.370  1.1128 -0.0630 -1.3636
 4639SOL     OW14236   0.705   2.547   3.274 -0.5038 -0.5508  0.2133
 4639SOL    HW114237   0.668   2.501   3.194 -0.0651 -0.8714  0.1905
 4639SOL    HW214238   0.691   2.490   3.355 -2.4817  0.5044  0.6838
 4640SOL     OW14239   4.146   2.241   1.630 -0.4786 -0.3629  0.5603
 4640SOL    HW114240   4.210   2.281   1.564 -0.2625  1.3593  1.7215
 4640SOL    HW214241   4.154   2.142   1.630  2.0599 -0.2099  0.5087
 4641SOL     OW14242   5.248   3.767   2.855 -0.5422 -0.1606  0.8092
 4641SOL    HW114243   5.289   3.751   2.766 -1.0453  0.9363  0.3499
 4641SOL    HW214244   5.277   3.856   2.890  0.6222 -1.0893  2.3300
 4642SOL     OW14245   4.694   3.707   3.515  0.4575  0.3847 -0.1082
 4642SOL    HW114246   4.730   3.703   3.608 -0.4717 -1.3632  0.2287
 4642SOL    HW214247   4.651   3.796   3.499  0.4186  0.6217  1.2068
 4643SOL     OW14248   4.184   2.668   3.295 -0.4112  0.0464 -0.2631
 4643SOL    HW114249   4.212   2.610   3.218 -1.0410  0.9380 -1.1981
 4643SOL    HW214250   4.251   2.661   3.368  0.7852 -0.0067 -1.3241
 4644SOL     OW14251   5.196   1.699   3.855 -0.4701  0.1917 -0.7927
 4644SOL    HW114252   5.100   1.680   3.834 -0.5287 -2.0598  1.0145
 4644SOL    HW214253   5.203   1.741   3.945  0.2934 -2.4910  0.5027
 4645SOL     OW14254   1.608   2.582   3.300 -0.3050 -0.0832  0.1666
 4645SOL    HW114255   1.633   2.511   3.233  0.3544 -0.0894  0.4129
 4645SOL    HW214256   1.508   2.582   3.312 -0.4989  0.2686 -1.1978
 4646SOL     OW14257   4.946   4.346   3.007  0.0546 -0.6459 -0.1418
 4646SOL    HW114258   4.991   4.434   3.021  0.5260 -0.5212 -2.1207
 4646SOL    HW214259   4.996   4.295   2.937 -2.8301 -0.5073 -2.4497
 4647SOL     OW14260   3.973   2.564   2.720  0.0442  0.3115 -0.4477
 4647SOL    HW114261   4.063   2.536   2.690  0.1100 -1.8540  1.5225
 4647SOL    HW214262   3.905   2.538   2.651  0.4304 -2.3931  0.1076
 4648SOL     OW14263   4.210   1.847   2.713  0.1037  0.5424 -0.0589
 4648SOL    HW114264   4.121   1.890   2.695  0.6275  1.4532 -0.5540
 4648SOL    HW214265   4.248   1.811   2.628 -0.3096 -0.9020  0.3482
 4649SOL     OW14266   4.278   3.084   3.690 -0.7101  0.4045 -0.6438
 4649SOL    HW114267   4.180   3.103   3.685 -0.5103  1.3604 -1.2056
 4649SOL    HW214268   4.296   2.989   3.663 -1.7495 -0.7149  2.2260
 4650SOL     OW14269   4.388   2.776   2.236 -0.0167 -0.5662 -0.2135
 4650SOL    HW114270   4.450   2.776   2.157 -0.2460 -2.0338 -0.4148
 4650SOL    HW214271   4.293   2.781   2.204 -0.0717  0.1773  0.0379
 4651SOL     OW14272   4.045   3.103   3.195 -0.1179  0.3159  0.4137
 4651SOL    HW114273   3.955   3.134   3.227  0.5722  0.8045  1.9832
 4651SOL    HW214274   4.087   3.046   3.266  0.8766  0.1988 -0.2556
 4652SOL     OW14275   0.257   2.449   3.286  0.1439  0.1517 -0.0661
 4652SOL    HW114276   0.161   2.419   3.281  0.3022 -0.2582 -0.7504
 4652SOL    HW214277   0.296   2.421   3.374  0.4017 -2.0455 -0.8274
 4653SOL     OW14278   0.062   4.914   3.346 -0.3138 -0.3009 -0.2271
 4653SOL    HW114279   0.024   4.857   3.419 -0.7011  1.2637  0.8640
 4653SOL    HW214280   0.159   4.931   3.364 -0.8004  1.5277  0.9764
 4654SOL     OW14281   4.349   4.244   3.315 -0.0768 -0.2176 -0.0672
 4654SOL    HW114282   4.279   4.186   3.358  0.8302  0.5355  2.6385
 4654SOL    HW214283   4.353   4.332   3.363  1.9040  0.2031 -0.9240
 4655SOL     OW14284   2.559   3.694   2.154 -0.7713  0.7812 -0.1409
 4655SOL    HW114285   2.503   3.735   2.082 -0.0339  0.5337 -0.8616
 4655SOL    HW214286   2.639   3.650   2.114 -0.0183  1.1764  0.8767
 4656SOL     OW14287   4.001   1.217   3.487 -0.5965  0.2084 -0.0085
 4656SOL    HW114288   3.981   1.149   3.416  0.2064 -0.3087  0.2514
 4656SOL    HW214289   3.938   1.204   3.563 -2.3568  1.6198 -1.1515
 4657SOL     OW14290   0.512   2.313   3.184  0.3194  0.3089 -0.3056
 4657SOL    HW114291   0.442   2.343   3.248  2.3786  2.3952  1.1683
 4657SOL    HW214292   0.543   2.221   3.209 -2.5055 -1.1595 -1.6839
 4658SOL     OW14293   0.120   2.602   3.886 -0.5605  0.5488  0.0522
 4658SOL    HW114294   0.113   2.674   3.954  0.4726 -0.8738  1.7549
 4658SOL    HW214295   0.053   2.531   3.905 -1.9008  1.2220 -1.8957
 4659SOL     OW14296   0.117   3.253   4.804  0.0269  0.5635 -0.1178
 4659SOL    HW114297   0.052   3.326   4.825  0.1103  1.0143 -1.3496
 4659SOL    HW214298   0.185   3.246   4.877 -0.3515  1.2966  0.3117
 4660SOL     OW14299   3.548   2.624   2.910  0.5124 -0.3845  0.3620
 4660SOL    HW114300   3.647   2.611   2.922  0.7564 -0.1490 -1.2334
 4660SOL    HW214301   3.506   2.643   2.999  1.9380 -0.2112  1.0217
 4661SOL     OW14302   4.423   2.629   3.414 -0.3464 -1.0235 -0.4550
 4661SOL    HW114303   4.436   2.674   3.503 -3.9603 -0.2665 -0.1416
 4661SOL    HW214304   4.468   2.682   3.343  0.1021  0.0484  0.5883
 4662SOL     OW14305   4.723   2.182   2.797 -0.2499 -0.3851  0.3354
 4662SOL    HW114306   4.756   2.089   2.815 -0.0933 -0.4230 -0.1253
 4662SOL    HW214307   4.712   2.231   2.883 -1.5777 -1.2453  0.6957
 4663SOL     OW14308   3.386   1.974   2.048 -0.1445 -0.0363  0.4747
 4663SOL    HW114309   3.402   1.876   2.054 -1.1921 -0.2041  0.7734
 4663SOL    HW214310   3.459   2.023   2.096  1.4060 -0.5553 -1.2569
 4664SOL     OW14311   3.519   3.394   3.306  0.6190  0.7977 -0.0316
 4664SOL    HW114312   3.457   3.323   3.273 -3.0326  3.0934  1.2089
 4664SOL    HW214313   3.565   3.362   3.389  0.0448 -0.5386 -0.2005
 4665SOL     OW14314   3.805   2.400   2.247 -0.1039  0.1985  0.1719
 4665SOL    HW114315   3.790   2.379   2.344 -0.1512 -0.6325 -0.0061
 4665SOL    HW214316   3.747   2.341   2.191  1.2607 -0.6281 -0.4183
 4666SOL     OW14317   0.926   1.938   4.664 -0.0458 -0.5031  0.4838
 4666SOL    HW114318   0.836   1.954   4.703 -0.7256  1.2338 -1.5999
 4666SOL    HW214319   0.966   2.026   4.636  0.5665 -1.5308 -2.1740
 4667SOL     OW14320   4.450   4.635   2.707  0.6109 -0.2677 -0.4313
 4667SOL    HW114321   4.455   4.694   2.787  0.5081 -0.4023 -0.3257
 4667SOL    HW214322   4.414   4.546   2.733 -0.0776 -0.0918 -0.7507
 4668SOL     OW14323   4.942   2.390   3.226  0.0630  0.5507  0.6107
 4668SOL    HW114324   4.849   2.354   3.229  0.1377  0.2398 -0.4959
 4668SOL    HW214325   4.997   2.337   3.161  1.2631  0.1657  1.8765
 4669SOL     OW14326   4.026   2.938   2.425  0.0234 -0.6631 -0.6251
 4669SOL    HW114327   4.078   2.919   2.508  1.7745 -2.3087 -2.0152
 4669SOL    HW214328   4.063   3.019   2.380 -0.9595  0.2603  0.1598
 4670SOL     OW14329   4.070   4.064   3.103 -0.0723  0.1593  0.0950
 4670SOL    HW114330   4.113   3.974   3.091  1.7074  1.0319 -0.3991
 4670SOL    HW214331   4.082   4.094   3.197  0.5350  0.4470 -0.0676
 4671SOL     OW14332   4.986   3.756   2.381  0.1747  0.6984  0.4623
 4671SOL    HW114333   5.003   3.693   2.457 -1.4435  0.8470  0.9825
 4671SOL    HW214334   4.960   3.846   2.417  0.0961  0.9720 -0.2623
 4672SOL     OW14335   4.344   2.404   3.607  0.0928 -0.6069  0.1943
 4672SOL    HW114336   4.286   2.477   3.642 -0.8479 -1.7957  1.1951
 4672SOL    HW214337   4.389   2.434   3.523  1.0489  1.7117  1.4529
 4673SOL     OW14338   4.068   2.385   2.157 -0.4910 -0.2623 -0.0384
 4673SOL    HW114339   4.053   2.328   2.076 -1.3805 -0.4416  0.2341
 4673SOL    HW214340   3.987   2.380   2.216  0.7488 -1.4259  1.6728
 4674SOL     OW14341   5.159   3.067   1.890  0.2835 -0.9245 -0.1858
 4674SOL    HW114342   5.154   3.160   1.852  0.0943 -0.7270  0.3160
 4674SOL    HW214343   5.162   3.001   1.815  2.4497 -0.4353 -0.5895
 4675SOL     OW14344   4.940   3.548   3.092  0.4259 -0.1214  0.2534
 4675SOL    HW114345   5.039   3.557   3.104  0.3128 -0.6350  1.8676
 4675SOL    HW214346   4.917   3.454   3.065  0.2902 -0.4574  1.4634
 4676SOL     OW14347   2.812   1.689   2.776 -0.1991  0.6077 -0.5288
 4676SOL    HW114348   2.841   1.646   2.690 -0.2008  0.9461 -0.7018
 4676SOL    HW214349   2.852   1.639   2.853 -2.2193 -1.2590 -0.5937
 4677SOL     OW14350   3.821   1.129   3.672  0.0963  0.1508  0.5085
 4677SOL    HW114351   3.792   1.209   3.725  1.3615 -0.2222  1.8264
 4677SOL    HW214352   3.740   1.080   3.641 -0.7174  0.5727  1.8486
 4678SOL     OW14353   0.798   1.866   3.190 -0.1560  0.2965  0.5649
 4678SOL    HW114354   0.850   1.879   3.274 -2.3934 -0.6456  2.1841
 4678SOL    HW214355   0.715   1.814   3.209 -0.7257 -0.0056 -2.2606
 4679SOL     OW14356   4.657   1.883   2.637  0.2149  0.2344 -0.4623
 4679SOL    HW114357   4.733   1.883   2.702  1.6144 -1.6148 -1.9566
 4679SOL    HW214358   4.575   1.848   2.682  0.6596  0.6684  0.7431
 4680SOL     OW14359   3.992   2.462   1.779 -0.3956 -0.6173 -0.0466
 4680SOL    HW114360   4.034   2.519   1.849 -3.9249  1.1058  0.8959
 4680SOL    HW214361   4.061   2.401   1.739  2.3464  0.3219  2.8745
 4681SOL     OW14362   3.797   3.939   3.350  0.1271  0.1569  0.0801
 4681SOL    HW114363   3.823   3.856   3.301  1.3857  1.7675 -2.1492
 4681SOL    HW214364   3.879   3.988   3.379 -0.5804  1.0927  0.5500
 4682SOL     OW14365   2.933   4.664   1.924 -0.2136  0.1961 -0.2043
 4682SOL    HW114366   3.029   4.640   1.933 -0.4044 -0.7673 -0.5379
 4682SOL    HW214367   2.918   4.758   1.955  1.4614  1.6577 -3.3574
 4683SOL     OW14368   5.308   2.389   2.143  0.2989 -0.0607  0.3780
 4683SOL    HW114369   5.316   2.488   2.138 -3.2167  0.3502  0.4041
 4683SOL    HW214370   5.271   2.354   2.056  1.9525 -1.4423  0.1797
 4684SOL     OW14371   2.881   1.568   3.499 -0.2524  0.4071  0.1934
 4684SOL    HW114372   2.786   1.537   3.508 -0.2637  0.9225  2.6397
 4684SOL    HW214373   2.911   1.606   3.586  1.3583  2.7132 -1.2688
 4685SOL     OW14374   2.926   1.928   2.782 -0.1290 -0.3287  0.6652
 4685SOL    HW114375   2.883   1.840   2.764  1.0154 -0.7805 -0.0133
 4685SOL    HW214376   2.968   1.927   2.872 -2.5795  0.5776  1.8993
 4686SOL     OW14377   0.111   2.008   2.665  0.3416 -0.2690  0.2559
 4686SOL    HW114378   0.079   2.043   2.576  1.3384  0.9394  0.3371
 4686SOL    HW214379   0.163   1.924   2.651 -0.5222 -0.7398 -0.1701
 4687SOL     OW14380   4.018   2.806   2.829  0.1860  0.3264  0.2968
 4687SOL    HW114381   3.997   2.716   2.791  0.8570  1.1709 -2.3051
 4687SOL    HW214382   4.106   2.838   2.794  0.6166  1.4757  2.2328
 4688SOL     OW14383   0.308   1.900   3.230 -0.1929  0.6666  0.3523
 4688SOL    HW114384   0.262   1.811   3.232 -0.8035  0.9882  1.3280
 4688SOL    HW214385   0.310   1.939   3.322 -0.8749  2.1166 -0.2035
 4689SOL     OW14386   5.085   3.700   3.714  0.5003 -0.0883  0.1959
 4689SOL    HW114387   5.094   3.666   3.808  0.2163  0.6633  0.5114
 4689SOL    HW214388   5.069   3.624   3.652 -0.0328 -0.5315  0.8605
 4690SOL     OW14389   4.596   2.183   2.555 -0.5184 -0.7595 -0.5290
 4690SOL    HW114390   4.580   2.104   2.496 -1.4434 -0.3919 -0.7901
 4690SOL    HW214391   4.656   2.157   2.630 -1.3632 -1.8974 -0.2165
 4691SOL     OW14392   5.206   3.719   3.306 -0.0498 -0.1073  0.5770
 4691SOL    HW114393   5.144   3.791   3.337 -1.1168 -0.4976 -0.5332
 4691SOL    HW214394   5.299   3.738   3.336 -0.4326  1.3786  0.8595
 4692SOL     OW14395   2.898   1.246   1.533 -0.3623 -0.6320  0.1447
 4692SOL    HW114396   2.979   1.298   1.560 -0.8807  0.9887 -1.2244
 4692SOL    HW214397   2.818   1.286   1.579 -0.7175 -0.4481 -0.6222
 4693SOL     OW14398   3.569   2.979   3.699  0.0212  0.2568  0.2707
 4693SOL    HW114399   3.560   2.901   3.636 -0.1454 -0.4663  1.1742
 4693SOL    HW214400   3.479   3.022   3.711 -0.1917 -0.3669  0.9637
 4694SOL     OW14401   5.583   4.204   3.394 -0.6007  0.1441 -0.6594
 4694SOL    HW114402   5.586   4.291   3.345 -0.5558  0.6430  0.2132
 4694SOL    HW214403   5.487   4.176   3.406 -0.5975 -0.2363 -1.4613
 4695SOL     OW14404   1.297   3.186   1.570  0.0632  0.9366 -0.3909
 4695SOL    HW114405   1.215   3.193   1.626  1.6542 -0.5462  2.3495
 4695SOL    HW214406   1.278   3.128   1.491 -1.0325 -1.2306  1.3521
 4696SOL     OW14407   4.790   3.103   3.296  0.1912  0.3356  0.0366
 4696SOL    HW114408   4.860   3.041   3.260 -0.0900 -0.1814  0.3676
 4696SOL    HW214409   4.731   3.132   3.222  1.3795  1.6222 -0.4513
 4697SOL     OW14410   4.513   0.206   2.822  0.7122 -0.0898 -0.0245
 4697SOL    HW114411   4.534   0.146   2.746  1.3778  0.3683 -0.2131
 4697SOL    HW214412   4.414   0.218   2.829  0.5077 -1.8709  0.5546
 4698SOL     OW14413   4.479   3.263   4.096  0.0263 -0.0805  0.0009
 4698SOL    HW114414   4.491   3.281   4.193  1.5289 -0.0618 -0.1667
 4698SOL    HW214415   4.435   3.174   4.084 -1.4863  0.5274  0.6944
 4699SOL     OW14416   5.130   3.398   4.344 -0.1120 -0.0976  0.0695
 4699SOL    HW114417   5.156   3.312   4.387  0.9474  1.2795  2.4146
 4699SOL    HW214418   5.212   3.450   4.319 -0.6216  1.4229  1.3537
 4700SOL     OW14419   5.289   2.179   2.737 -0.2332 -0.1545  0.1724
 4700SOL    HW114420   5.332   2.208   2.652  0.7028 -0.0810  0.6642
 4700SOL    HW214421   5.269   2.081   2.732  1.7144 -0.6034  0.6469
 4701SOL     OW14422   5.283   2.945   2.142 -0.0172 -0.1282  0.2671
 4701SOL    HW114423   5.380   2.923   2.149 -0.0185  0.0255  0.8181
 4701SOL    HW214424   5.263   2.975   2.048  0.4180 -0.3707  0.0898
 4702SOL     OW14425   4.406   4.276   4.034 -0.0385 -0.1266  0.2360
 4702SOL    HW114426   4.311   4.273   4.003 -0.0037  0.8684 -0.0071
 4702SOL    HW214427   4.409   4.311   4.128  0.2230  2.1470 -0.5601
 4703SOL     OW14428   4.300   3.056   2.045  0.0020 -0.3515 -0.3633
 4703SOL    HW114429   4.354   3.117   2.103  1.2374 -2.5638  0.9295
 4703SOL    HW214430   4.223   3.107   2.007  0.6783  1.8729  1.0170
 4704SOL     OW14431   4.366   2.250   2.690 -0.6766 -0.1708  0.0969
 4704SOL    HW114432   4.364   2.231   2.788 -0.3321  1.7706  0.5057
 4704SOL    HW214433   4.460   2.250   2.658 -0.7884 -0.7768 -0.2567
 4705SOL     OW14434   5.053   3.340   4.086  0.1699 -0.1568  0.2363
 4705SOL    HW114435   5.060   3.379   4.178  1.5776 -0.4025  0.2631
 4705SOL    HW214436   4.986   3.266   4.086 -0.9011  0.7917  0.7025
 4706SOL     OW14437   2.976   2.346   1.862  0.3207 -0.4802 -0.2277
 4706SOL    HW114438   3.007   2.312   1.951  1.6776 -0.0085 -0.4923
 4706SOL    HW214439   2.877   2.334   1.854  0.2026 -0.6858  1.2727
 4707SOL     OW14440   4.656   3.928   3.049  0.1132  0.2482 -0.3434
 4707SOL    HW114441   4.688   3.886   3.133 -1.2832 -1.1426 -0.4368
 4707SOL    HW214442   4.594   4.003   3.070 -1.6495 -1.2069 -0.0131
 4708SOL     OW14443   3.520   1.590   4.354 -0.0379  0.2105 -0.1457
 4708SOL    HW114444   3.617   1.584   4.330 -0.5206  1.2662 -2.6679
 4708SOL    HW214445   3.492   1.686   4.354 -1.6914 -0.1884 -2.4538
 4709SOL     OW14446   4.838   1.931   2.850  0.1053  0.1712 -0.0382
 4709SOL    HW114447   4.793   1.878   2.923 -0.6340 -0.4705 -0.9281
 4709SOL    HW214448   4.936   1.933   2.866 -0.0793  0.3157  1.1508
 4710SOL     OW14449   4.773   4.446   2.372  0.1772 -0.4960  0.2045
 4710SOL    HW114450   4.677   4.459   2.349  0.2453 -0.9727 -0.3813
 4710SOL    HW214451   4.815   4.534   2.393 -0.3007 -0.2478  0.1330
 4711SOL     OW14452   4.060   1.901   4.770  0.2692  0.0321  0.7613
 4711SOL    HW114453   3.987   1.967   4.789 -0.0279 -0.0670 -0.0046
 4711SOL    HW214454   4.029   1.809   4.795  0.4209  0.0820  1.1516
 4712SOL     OW14455   5.230   2.830   3.976 -0.5068 -0.2200  0.0487
 4712SOL    HW114456   5.189   2.740   3.958  0.1518 -0.5463  0.1637
 4712SOL    HW214457   5.324   2.818   4.006 -0.8394  0.4305  1.4662
 4713SOL     OW14458   3.620   3.426   2.596  0.3205 -0.4144 -0.5267
 4713SOL    HW114459   3.616   3.426   2.696  1.3293  2.0925 -0.4272
 4713SOL    HW214460   3.668   3.344   2.565 -0.8975 -1.7596  0.9381
 4714SOL     OW14461   4.314   1.760   1.488 -0.2072  1.0833  0.5829
 4714SOL    HW114462   4.404   1.767   1.531  1.0734 -2.3236 -1.1712
 4714SOL    HW214463   4.265   1.681   1.526 -0.4752  0.1091 -1.6057
 4715SOL     OW14464   4.811   3.718   2.019  0.2529 -0.1833 -0.5437
 4715SOL    HW114465   4.898   3.699   2.065 -1.2041 -1.7052  1.7539
 4715SOL    HW214466   4.790   3.643   1.956  0.3782 -0.0520 -0.7419
 4716SOL     OW14467   5.144   0.963   2.914 -0.1077 -0.2924 -0.6369
 4716SOL    HW114468   5.127   0.893   2.844  0.2076 -2.1347  1.0349
 4716SOL    HW214469   5.179   0.919   2.997 -0.5856  1.8005  0.7424
 4717SOL     OW14470   4.147   4.261   1.405 -0.3338 -0.4598 -0.4171
 4717SOL    HW114471   4.211   4.338   1.403  0.1469 -0.8610 -0.5455
 4717SOL    HW214472   4.089   4.265   1.323 -0.2458 -0.2907 -0.4730
 4718SOL     OW14473   4.018   1.974   3.579  0.2093 -0.6777 -0.0052
 4718SOL    HW114474   4.013   1.916   3.498  0.8733 -2.3588  1.1150
 4718SOL    HW214475   4.095   1.945   3.636  1.3347  2.0731  0.0489
 4719SOL     OW14476   5.401   1.716   1.934  0.2777 -0.0766 -0.4567
 4719SOL    HW114477   5.360   1.625   1.942 -0.4066  0.3584  1.6072
 4719SOL    HW214478   5.439   1.728   1.842  1.3077 -2.8354 -0.4823
 4720SOL     OW14479   4.147   2.637   2.135 -0.4675  0.1772 -0.3873
 4720SOL    HW114480   4.211   2.627   2.059 -0.0905 -0.9402  0.0572
 4720SOL    HW214481   4.115   2.547   2.164 -0.0530  0.5227  1.2540
 4721SOL     OW14482   3.524   2.326   3.136 -0.3202  0.2715 -0.3445
 4721SOL    HW114483   3.607   2.320   3.190 -0.1732  0.2461 -0.5715
 4721SOL    HW214484   3.491   2.421   3.136 -0.6630  0.1525  0.2955
 4722SOL     OW14485   3.599   2.299   2.087  0.3125 -0.2089 -0.1353
 4722SOL    HW114486   3.644   2.242   2.018  0.6339  2.3727 -2.2067
 4722SOL    HW214487   3.541   2.366   2.042  0.2072  1.3504  2.1504
 4723SOL     OW14488   3.863   1.865   2.766  0.3291  0.0259 -0.2217
 4723SOL    HW114489   3.876   1.929   2.691 -0.2154 -0.9034 -1.1397
 4723SOL    HW214490   3.819   1.911   2.843 -0.1981  0.7079 -0.9251
 4724SOL     OW14491   3.386   2.969   3.371  0.1885 -0.2691 -0.2572
 4724SOL    HW114492   3.468   2.987   3.317 -0.3625  0.0133 -1.0167
 4724SOL    HW214493   3.401   2.890   3.430  0.5485 -1.0478 -1.3650
 4725SOL     OW14494   4.607   4.139   2.714 -0.0395  0.0376  0.8317
 4725SOL    HW114495   4.538   4.070   2.695 -0.2049  0.2472  0.6691
 4725SOL    HW214496   4.689   4.095   2.751  0.2471 -0.3637 -0.2455
 4726SOL     OW14497   3.888   1.989   3.217  0.4100 -0.1896  0.0115
 4726SOL    HW114498   3.828   2.013   3.293 -0.4441 -0.0879 -0.6820
 4726SOL    HW214499   3.922   1.895   3.229  0.1570 -0.2240  0.4420
 4727SOL     OW14500   5.136   2.813   3.678  0.0645 -0.1987 -0.0158
 4727SOL    HW114501   5.051   2.789   3.630  0.0390 -0.0154 -0.0619
 4727SOL    HW214502   5.194   2.732   3.685 -0.6230 -0.6180  1.0681
 4728SOL     OW14503   4.933   3.307   4.751  0.3026  0.5368  0.2882
 4728SOL    HW114504   4.978   3.358   4.678 -0.5902 -0.2973 -0.8818
 4728SOL    HW214505   4.843   3.347   4.770  1.2682  1.9217  2.3060
 4729SOL     OW14506   3.462   3.681   2.307 -0.6372 -0.1975 -0.0418
 4729SOL    HW114507   3.419   3.613   2.367  0.4436 -0.4439  0.4684
 4729SOL    HW214508   3.412   3.767   2.315 -0.3243 -0.1235  1.4881
 4730SOL     OW14509   3.996   3.364   2.450  0.4292 -0.1950  0.0347
 4730SOL    HW114510   3.999   3.463   2.463  0.3619  0.1632 -2.1945
 4730SOL    HW214511   3.911   3.328   2.487 -0.1083  0.7826 -0.2087
 4731SOL     OW14512   5.041   1.610   1.997  0.2703 -0.1429  0.0401
 4731SOL    HW114513   5.063   1.669   2.075  1.2188  0.3132 -0.5469
 4731SOL    HW214514   4.943   1.613   1.979  0.0258 -0.3467  1.2847
 4732SOL     OW14515   0.107   2.811   4.069 -0.2122 -0.0403 -1.0119
 4732SOL    HW114516   0.114   2.909   4.082  0.9189 -0.0580 -1.4208
 4732SOL    HW214517   0.183   2.765   4.116 -0.8048 -0.7342 -0.7066
 4733SOL     OW14518   0.778   2.633   2.914 -0.0896  0.0310 -0.0492
 4733SOL    HW114519   0.767   2.684   2.999  2.2945 -1.4785  1.2912
 4733SOL    HW214520   0.740   2.541   2.925  3.5414 -1.5310  0.9244
 4734SOL     OW14521   4.141   4.007   0.439 -0.2750  0.0293  0.0484
 4734SOL    HW114522   4.225   4.061   0.436  0.4789 -1.1468 -1.5494
 4734SOL    HW214523   4.082   4.033   0.362 -0.4454 -0.5637 -0.0276
 4735SOL     OW14524   5.580   3.874   3.632  0.8334  0.0792 -0.1358
 4735SOL    HW114525   5.612   3.969   3.637  1.3712  0.0390 -1.9934
 4735SOL    HW214526   5.484   3.869   3.660  0.8411  1.1372  0.1084
 4736SOL     OW14527   4.740   4.665   4.688  0.0244  0.0400  0.8233
 4736SOL    HW114528   4.660   4.690   4.743 -0.5262 -2.2552  1.1713
 4736SOL    HW214529   4.726   4.575   4.648  1.3877  0.6790 -1.2665
 4737SOL     OW14530   3.509   3.769   3.089 -0.4882 -0.7942 -0.1642
 4737SOL    HW114531   3.552   3.679   3.081 -1.4066 -1.2188 -0.5086
 4737SOL    HW214532   3.575   3.840   3.066 -0.7449 -1.5596 -3.8600
 4738SOL     OW14533   0.239   3.832   2.845  0.1703  0.0552  0.3722
 4738SOL    HW114534   0.260   3.774   2.766 -1.9712 -0.0048 -0.2083
 4738SOL    HW214535   0.268   3.785   2.929 -1.6222 -2.0123 -0.0651
 4739SOL     OW14536   3.386   3.617   3.311 -0.1894  0.8668  0.5273
 4739SOL    HW114537   3.431   3.528   3.309  2.2163  2.0176  0.2381
 4739SOL    HW214538   3.387   3.658   3.220 -2.9706  0.4708  0.2257
 4740SOL     OW14539   3.630   1.237   4.171 -0.2523  0.4164 -0.2549
 4740SOL    HW114540   3.614   1.329   4.134 -1.2876  0.0598 -0.7357
 4740SOL    HW214541   3.653   1.244   4.268  0.9916  1.2636 -0.5807
 4741SOL     OW14542   3.967   2.528   3.181  0.3257  0.4864 -0.3173
 4741SOL    HW114543   4.005   2.589   3.251  0.0431  0.9746 -0.5817
 4741SOL    HW214544   4.040   2.496   3.122  0.3596  1.3313 -0.7551
 4742SOL     OW14545   0.837   2.405   2.416  1.0016 -0.5734 -0.1264
 4742SOL    HW114546   0.761   2.363   2.465 -0.5862  1.3093 -0.8265
 4742SOL    HW214547   0.803   2.454   2.335  2.9520  0.3407 -0.4786
 4743SOL     OW14548   4.168   2.189   3.439 -0.0027  0.0604 -0.0302
 4743SOL    HW114549   4.109   2.112   3.466  1.1638 -0.5871  0.7556
 4743SOL    HW214550   4.203   2.234   3.521  1.3905 -0.1991 -0.4551
 4744SOL     OW14551   4.222   2.462   3.090 -0.0145  0.1493 -0.4053
 4744SOL    HW114552   4.264   2.497   3.007 -0.2910  0.3582 -0.4593
 4744SOL    HW214553   4.276   2.386   3.125  0.9118  0.9694  0.0143
 4745SOL     OW14554   3.259   0.754   3.395 -0.1156 -0.4987 -0.5240
 4745SOL    HW114555   3.320   0.762   3.317  0.3311 -2.5188 -0.4570
 4745SOL    HW214556   3.197   0.832   3.398  0.8374  0.3599 -2.0147
 4746SOL     OW14557   3.955   2.925   1.764  0.3813  0.4160  0.6809
 4746SOL    HW114558   3.900   2.845   1.742  1.1479  0.3285 -1.0601
 4746SOL    HW214559   3.922   2.966   1.850 -1.8926 -0.0579  0.0910
 4747SOL     OW14560   5.456   1.821   2.756  0.4912  0.0913  0.3158
 4747SOL    HW114561   5.528   1.892   2.756  1.0878 -0.5052  0.3091
 4747SOL    HW214562   5.366   1.865   2.750  0.9204  0.7414 -3.2567
 4748SOL     OW14563   4.025   1.797   2.240  0.0587 -0.0601 -0.3880
 4748SOL    HW114564   3.939   1.790   2.189 -0.3565  0.4724  0.2225
 4748SOL    HW214565   4.057   1.706   2.264 -1.1934 -0.2167  0.7732
 4749SOL     OW14566   4.716   3.190   1.301  0.0694  0.0575 -0.1887
 4749SOL    HW114567   4.717   3.285   1.334  0.7539  0.0845 -0.2548
 4749SOL    HW214568   4.799   3.173   1.247 -0.3574 -0.3970 -0.7141
 4750SOL     OW14569   3.770   3.648   2.831  0.2481  0.2319  0.0113
 4750SOL    HW114570   3.727   3.601   2.908 -0.9733 -1.0942 -1.4111
 4750SOL    HW214571   3.851   3.597   2.802 -0.3615 -0.3528 -0.7302
 4751SOL     OW14572   4.228   1.812   2.019  0.1207  0.4523 -0.6760
 4751SOL    HW114573   4.187   1.757   1.948  0.5610 -1.0944  0.2103
 4751SOL    HW214574   4.178   1.800   2.105  1.6561 -0.5589  0.1342
 4752SOL     OW14575   4.522   2.787   3.196 -0.5275  0.5230  0.4938
 4752SOL    HW114576   4.580   2.866   3.215 -0.5006  0.6610 -0.1426
 4752SOL    HW214577   4.572   2.722   3.138 -0.8653  0.4570  0.2739
 4753SOL     OW14578   5.368   3.023   2.964 -0.2751  0.8114  0.2974
 4753SOL    HW114579   5.439   3.077   3.008  0.7939 -0.5921  0.3584
 4753SOL    HW214580   5.380   3.026   2.864 -0.5186  1.0776  0.2741
 4754SOL     OW14581   4.274   3.526   1.638 -0.0491 -0.9285  0.2445
 4754SOL    HW114582   4.236   3.519   1.546  1.5771  1.1628 -0.6768
 4754SOL    HW214583   4.371   3.501   1.636  0.2549  0.0844  1.1576
 4755SOL     OW14584   3.885   5.104   1.263  0.2188 -0.1398  0.0557
 4755SOL    HW114585   3.966   5.149   1.226  0.3434 -1.3374 -1.2004
 4755SOL    HW214586   3.899   5.005   1.264 -0.8499 -0.3008  0.7649
 4756SOL     OW14587   4.456   1.982   3.671  0.2883 -0.3016 -0.0944
 4756SOL    HW114588   4.454   1.994   3.571  1.2674  0.8273  0.0017
 4756SOL    HW214589   4.466   2.071   3.715 -0.5618 -0.7461  1.0463
 4757SOL     OW14590   3.639   2.778   4.513 -0.4587 -0.2955  0.4742
 4757SOL    HW114591   3.613   2.817   4.601 -0.3980  0.8637 -0.0077
 4757SOL    HW214592   3.710   2.709   4.527 -2.0834 -1.8289  1.5570
 4758SOL     OW14593   3.081   3.282   4.799 -0.4555 -0.4372 -0.3377
 4758SOL    HW114594   3.075   3.182   4.796 -2.4119 -0.4142  1.1100
 4758SOL    HW214595   3.159   3.309   4.855  0.0350 -1.1382 -0.6627
 4759SOL     OW14596   0.169   4.136   3.604 -0.1736  0.2210  0.5185
 4759SOL    HW114597   0.136   4.190   3.527  0.9010 -2.0460 -1.6910
 4759SOL    HW214598   0.256   4.094   3.580 -0.5074 -1.7341  2.4209
 4760SOL     OW14599   5.113   2.580   3.932  0.2813  0.4944  0.4943
 4760SOL    HW114600   5.158   2.497   3.899 -2.4898 -0.7077 -0.6650
 4760SOL    HW214601   5.089   2.568   4.029 -1.7988 -1.0050 -0.1246
 4761SOL     OW14602   1.273   2.508   2.164 -0.3304  0.3862  0.7729
 4761SOL    HW114603   1.254   2.597   2.123  2.0961 -0.3864 -2.4912
 4761SOL    HW214604   1.192   2.450   2.158 -0.9130  1.2727 -0.4069
 4762SOL     OW14605   4.376   3.795   5.202  0.4584 -0.2311  0.2122
 4762SOL    HW114606   4.444   3.829   5.268  1.1381  0.9284 -1.0269
 4762SOL    HW214607   4.390   3.841   5.114 -0.0740 -2.1302 -0.9085
 4763SOL     OW14608   4.239   2.531   5.166 -0.5400 -0.2827  0.1054
 4763SOL    HW114609   4.332   2.546   5.131 -0.2547 -0.8829  0.5828
 4763SOL    HW214610   4.204   2.617   5.204 -0.3913  0.0787 -0.5457
 4764SOL     OW14611   5.233   3.172   4.941 -0.3132  0.1735 -0.5560
 4764SOL    HW114612   5.202   3.168   5.036 -1.7063  0.2208 -0.9844
 4764SOL    HW214613   5.276   3.085   4.916 -0.9299 -0.2440 -0.2014
 4765SOL     OW14614   5.094   2.623   0.667  0.0208  0.0507  0.1339
 4765SOL    HW114615   5.137   2.643   0.755  1.0351 -0.4161 -0.2366
 4765SOL    HW214616   5.033   2.544   0.677 -0.3548  0.3880  0.5494
 4766SOL     OW14617   5.003   3.704   4.876 -0.6236 -0.0267  0.1357
 4766SOL    HW114618   5.062   3.631   4.841 -1.0096  0.3319 -1.3481
 4766SOL    HW214619   5.060   3.780   4.908 -0.1579  1.1410 -3.0591
 4767SOL     OW14620   4.526   3.138   0.419  0.0854  0.5840 -0.3579
 4767SOL    HW114621   4.513   3.220   0.364  1.3755  0.4177 -0.9585
 4767SOL    HW214622   4.535   3.164   0.515  3.0062  1.4947 -0.7743
 4768SOL     OW14623   4.944   3.490   4.567 -0.1298  0.0577 -0.0390
 4768SOL    HW114624   4.896   3.576   4.549  1.2102  0.4764 -1.8528
 4768SOL    HW214625   4.983   3.455   4.482  2.2524 -0.5744  1.2279
 4769SOL     OW14626   0.648   1.959   4.751 -0.3079  0.3500  0.7084
 4769SOL    HW114627   0.642   2.054   4.781 -1.3903  0.5129  0.0183
 4769SOL    HW214628   0.613   1.899   4.823  0.4776  0.4552  1.1887
 4770SOL     OW14629   4.076   2.263   3.979  0.2626  0.7892 -0.0963
 4770SOL    HW114630   4.145   2.319   4.024 -0.3876  1.1216  0.4931
 4770SOL    HW214631   4.008   2.322   3.936 -0.0836  0.4501 -0.0129
 4771SOL     OW14632   4.789   3.047   0.393 -0.1468  0.2613  0.7562
 4771SOL    HW114633   4.786   2.952   0.424 -0.3551 -0.5068 -1.4625
 4771SOL    HW214634   4.696   3.082   0.380 -0.0599  0.2062 -0.0326
 4772SOL     OW14635   3.232   2.907   4.970  0.1745  0.1100  0.0599
 4772SOL    HW114636   3.309   2.947   4.921 -0.2223  1.9152  0.8234
 4772SOL    HW214637   3.218   2.956   5.055 -1.4955 -0.5316  0.1903
 4773SOL     OW14638   3.882   2.842   5.387 -0.0211  0.6748  0.5917
 4773SOL    HW114639   3.879   2.744   5.407 -0.0430  0.4835 -0.2950
 4773SOL    HW214640   3.803   2.887   5.429  0.2999  0.4112  1.4865
 4774SOL     OW14641   4.275   5.514   5.574 -0.1528 -0.6133 -0.3168
 4774SOL    HW114642   4.284   5.597   5.520  1.5358 -0.0395  0.7866
 4774SOL    HW214643   4.262   5.436   5.513 -1.8766  0.4234 -1.3650
 4775SOL     OW14644   3.704   2.270   2.911 -0.4055  0.5999 -0.2293
 4775SOL    HW114645   3.639   2.304   2.980  0.5608 -0.1425  1.1032
 4775SOL    HW214646   3.759   2.347   2.877 -1.7456  1.1808 -1.1405
 4776SOL     OW14647   3.856   0.515   5.167 -0.2767 -0.6366  0.0005
 4776SOL    HW114648   3.946   0.472   5.155 -1.0005 -1.8065 -1.7524
 4776SOL    HW214649   3.863   0.613   5.150  0.6742 -0.6962 -0.0143
 4777SOL     OW14650   3.864   2.126   4.085  0.0592 -0.3949  0.5733
 4777SOL    HW114651   3.950   2.166   4.054  0.4077 -0.8964  0.8766
 4777SOL    HW214652   3.843   2.159   4.177  0.6809 -1.3825  1.0900
 4778SOL     OW14653   0.754   2.868   3.479  0.4401  0.3557 -0.2517
 4778SOL    HW114654   0.719   2.826   3.395  0.5891 -1.9426  0.7908
 4778SOL    HW214655   0.850   2.893   3.466  1.6753 -3.4909  0.3181
 4779SOL     OW14656   4.500   3.573   3.120  0.2243  0.4203 -0.1134
 4779SOL    HW114657   4.539   3.640   3.183 -3.1013  1.4899  1.0017
 4779SOL    HW214658   4.483   3.487   3.170 -1.2089  0.8415  0.1677
 4780SOL     OW14659   0.218   2.946   3.109  0.7410 -0.3558 -0.0964
 4780SOL    HW114660   0.218   2.999   3.025  1.1362 -0.3172 -0.0751
 4780SOL    HW214661   0.306   2.957   3.155  1.3892 -2.1338 -0.8066
 4781SOL     OW14662   1.460   2.769   3.522  0.4108 -0.1878 -0.4008
 4781SOL    HW114663   1.416   2.859   3.531  0.9310 -0.1013  1.9976
 4781SOL    HW214664   1.548   2.780   3.475  1.0801  0.8099  1.0225
 4782SOL     OW14665   4.217   2.123   5.510 -0.3846 -0.4808  0.0685
 4782SOL    HW114666   4.293   2.076   5.556  1.1158  0.4698 -1.3177
 4782SOL    HW214667   4.167   2.059   5.452 -0.8767 -1.1866  1.2378
 4783SOL     OW14668   5.246   3.068   4.184  0.7381  0.3395  0.2118
 4783SOL    HW114669   5.205   3.091   4.273  0.9003  0.3228  0.2931
 4783SOL    HW214670   5.315   2.997   4.197 -2.1601 -2.8283 -0.4878
 4784SOL     OW14671   4.638   3.257   4.321 -0.2971 -0.3777  0.0157
 4784SOL    HW114672   4.540   3.242   4.337 -0.6144  0.5990 -0.9516
 4784SOL    HW214673   4.688   3.173   4.341 -1.1287 -0.4497  2.0885
 4785SOL     OW14674   5.471   1.833   3.560 -0.3987  0.2840 -0.3521
 4785SOL    HW114675   5.450   1.851   3.464 -0.5140 -0.6149 -0.5034
 4785SOL    HW214676   5.436   1.743   3.585 -0.5332  0.5970  0.5887
 4786SOL     OW14677   4.556   3.163   5.358 -0.0985  0.0235 -0.2798
 4786SOL    HW114678   4.531   3.074   5.319  1.6139  0.4016 -2.4650
 4786SOL    HW214679   4.495   3.234   5.323 -0.1364  0.0121 -0.2374
 4787SOL     OW14680   4.781   1.776   3.561 -0.5374 -0.5413 -0.3842
 4787SOL    HW114681   4.709   1.711   3.536 -1.3921  0.7705 -1.4550
 4787SOL    HW214682   4.740   1.862   3.590  0.5832 -0.4250  0.9530
 4788SOL     OW14683   5.309   4.933   0.196  0.0689  0.2742 -0.7850
 4788SOL    HW114684   5.309   5.015   0.138 -0.9623  3.2950  3.0282
 4788SOL    HW214685   5.216   4.918   0.232  0.9778 -0.1661  1.5682
 4789SOL     OW14686   3.587   2.440   3.927  0.0848  0.2155 -0.6115
 4789SOL    HW114687   3.563   2.383   3.848 -1.2889 -0.2293  0.0999
 4789SOL    HW214688   3.562   2.535   3.908  0.9330  0.3418 -1.1831
 4790SOL     OW14689   0.438   3.497   4.602  0.1250  0.0616 -0.4366
 4790SOL    HW114690   0.529   3.482   4.563  1.2685  0.5965  1.8965
 4790SOL    HW214691   0.420   3.595   4.609  0.4957  0.0169  1.5028
 4791SOL     OW14692   5.312   5.177   0.062 -0.0510  0.4016  0.3337
 4791SOL    HW114693   5.409   5.195   0.044 -0.4123  0.6544 -1.6188
 4791SOL    HW214694   5.288   5.211   0.153  1.3080  1.8768  0.1915
 4792SOL     OW14695   3.704   2.071   3.811  0.1841  0.0979 -0.1620
 4792SOL    HW114696   3.735   1.988   3.765 -0.0047  0.6988 -1.4310
 4792SOL    HW214697   3.749   2.079   3.900  0.1399 -1.3832  0.0122
 4793SOL     OW14698   5.529   3.181   5.543  0.2713  0.4400 -0.0242
 4793SOL    HW114699   5.454   3.247   5.538  0.1698  0.3945  0.8565
 4793SOL    HW214700   5.543   3.152   5.637  1.9412  1.0916 -0.0268
 4794SOL     OW14701   0.511   2.342   5.247  0.5420 -0.2905 -0.5388
 4794SOL    HW114702   0.460   2.330   5.332  0.9841  0.7646 -0.1101
 4794SOL    HW214703   0.449   2.373   5.175  0.7635  2.6654  0.3920
 4795SOL     OW14704   5.428   2.198   1.324  0.4824 -0.0925  0.0253
 4795SOL    HW114705   5.450   2.296   1.327  0.1949  0.0268 -1.2198
 4795SOL    HW214706   5.389   2.170   1.412  0.6218  0.8924  0.4190
 4796SOL     OW14707   5.273   3.336   0.011 -0.4362  0.5325 -0.1048
 4796SOL    HW114708   5.175   3.353  -0.002 -1.0779 -0.7887  2.3875
 4796SOL    HW214709   5.321   3.424   0.016 -1.7294  1.2556  0.1343
 4797SOL     OW14710   4.776   3.869   4.860  0.3585  0.4419 -0.5638
 4797SOL    HW114711   4.852   3.807   4.883 -0.4426  0.4552  2.5906
 4797SOL    HW214712   4.704   3.817   4.813  1.1771 -0.1815 -1.1570
 4798SOL     OW14713   4.364   2.108   4.777 -0.4875  0.2394  0.1590
 4798SOL    HW114714   4.312   2.093   4.693 -0.0693  0.5700 -0.1629
 4798SOL    HW214715   4.380   2.206   4.789  1.1847  0.0675 -0.4475
 4799SOL     OW14716   4.609   2.265   4.215  0.1355  0.2920  0.3507
 4799SOL    HW114717   4.558   2.204   4.275  0.5450  0.0800  0.4927
 4799SOL    HW214718   4.547   2.307   4.149 -0.0820 -0.6501 -0.0591
 4800SOL     OW14719   4.255   1.180   4.985  0.3143  0.3101  0.1420
 4800SOL    HW114720   4.221   1.087   4.973 -2.6913  1.3892 -0.4457
 4800SOL    HW214721   4.262   1.201   5.083 -2.0950  0.4554  0.3257
 4801SOL     OW14722   3.935   4.097   5.213  0.0789  0.3554  0.5817
 4801SOL    HW114723   3.868   4.166   5.241 -1.5240 -0.2493 -1.5310
 4801SOL    HW214724   3.909   4.009   5.251  0.6114  0.4066  1.0758
 4802SOL     OW14725   1.272   2.533   2.448  0.8687  0.1704 -0.1292
 4802SOL    HW114726   1.277   2.529   2.348 -1.4891 -0.8770 -0.2673
 4802SOL    HW214727   1.342   2.474   2.487  1.1006 -0.2815 -1.1902
 4803SOL     OW14728   1.244   1.803   5.041  0.2782  0.3685 -0.0888
 4803SOL    HW114729   1.290   1.755   5.115 -0.0825 -2.5306 -1.6134
 4803SOL    HW214730   1.293   1.786   4.955 -1.5372  0.3065 -1.1564
 4804SOL     OW14731   0.424   2.372   4.072  0.7567  0.4553  0.9761
 4804SOL    HW114732   0.351   2.358   4.005 -0.1006  1.3617  1.6910
 4804SOL    HW214733   0.469   2.285   4.092  1.2967  0.2208 -1.0511
 4805SOL     OW14734   4.587   2.727   4.397  0.8027 -0.0653  0.1387
 4805SOL    HW114735   4.498   2.683   4.398  1.4223 -1.3962 -0.3697
 4805SOL    HW214736   4.611   2.757   4.489 -0.2783  0.5813  0.2266
 4806SOL     OW14737   4.365   3.255   5.040  0.0735  0.3772 -0.2666
 4806SOL    HW114738   4.417   3.303   4.969 -0.4873  1.2623 -0.0890
 4806SOL    HW214739   4.383   3.298   5.128 -0.8093  0.5771 -0.1774
 4807SOL     OW14740   3.790   4.029   4.923 -0.0141 -0.3582 -0.5139
 4807SOL    HW114741   3.869   4.030   4.984  0.5952  0.0925 -1.2896
 4807SOL    HW214742   3.752   3.937   4.919  0.7722 -0.6888 -0.5123
 4808SOL     OW14743   5.341   2.847   0.250 -0.1190  0.2495 -0.1408
 4808SOL    HW114744   5.281   2.834   0.328  1.5146  0.2079  1.1641
 4808SOL    HW214745   5.434   2.819   0.274  0.9439  2.4971 -1.2700
 4809SOL     OW14746   5.522   3.050   3.471  0.5807 -0.1450  0.6783
 4809SOL    HW114747   5.539   3.142   3.437 -0.1735 -0.5286 -0.8357
 4809SOL    HW214748   5.518   3.052   3.571 -0.1264  1.5964  0.6619
 4810SOL     OW14749   4.014   3.250   2.831  0.2167 -0.1290 -0.5548
 4810SOL    HW114750   4.059   3.178   2.884 -0.2874 -1.0565 -1.3516
 4810SOL    HW214751   3.966   3.209   2.754 -0.4144  1.0328 -0.7996
 4811SOL     OW14752   5.520   3.156   5.259 -0.3535  0.1203 -0.1440
 4811SOL    HW114753   5.546   3.068   5.221  1.3543  0.8875 -0.8454
 4811SOL    HW214754   5.503   3.147   5.357 -3.4588 -1.6023 -0.7161
 4812SOL     OW14755   3.451   5.017   0.579  0.3035  0.8767  0.4330
 4812SOL    HW114756   3.385   5.075   0.533  0.6892  0.7857 -0.2555
 4812SOL    HW214757   3.534   5.010   0.523 -0.4618 -1.9375 -0.5453
 4813SOL     OW14758   4.963   2.939   3.183  0.2304  0.2659  0.3250
 4813SOL    HW114759   5.011   2.945   3.095  1.8260  0.0521  1.1379
 4813SOL    HW214760   4.977   2.848   3.222  0.7832  0.8169  1.4632
 4814SOL     OW14761   4.508   0.914   5.396 -0.5002  0.3204 -0.3288
 4814SOL    HW114762   4.454   0.834   5.372  0.7320 -0.7035  0.2417
 4814SOL    HW214763   4.588   0.920   5.337  0.7804 -0.3447  1.2709
 4815SOL     OW14764   5.347   3.770   4.698 -0.1058  0.1612 -0.1190
 4815SOL    HW114765   5.379   3.776   4.792 -0.9865 -1.6170  0.3310
 4815SOL    HW214766   5.271   3.706   4.692 -1.0891  1.3866 -1.8040
 4816SOL     OW14767   4.746   2.583   4.182 -0.1872 -0.6020 -0.3504
 4816SOL    HW114768   4.781   2.576   4.089  1.1040 -1.9143  0.2034
 4816SOL    HW214769   4.678   2.512   4.198  0.2568 -0.9663 -0.0360
 4817SOL     OW14770   0.760   1.570   4.454 -0.0627 -0.5908 -0.3823
 4817SOL    HW114771   0.843   1.592   4.403  1.0468 -0.9162  1.2136
 4817SOL    HW214772   0.783   1.515   4.534 -1.4719  1.2575  1.4240
 4818SOL     OW14773   4.930   3.916   4.622 -0.0651  0.2311 -0.2926
 4818SOL    HW114774   4.890   3.856   4.552 -1.6640  1.7011 -0.7037
 4818SOL    HW214775   4.929   3.869   4.710 -2.2686 -0.0212 -0.3943
 4819SOL     OW14776   5.517   4.310   4.381  0.0841  0.3158 -0.5381
 4819SOL    HW114777   5.442   4.323   4.446 -1.0050  0.1921 -1.7272
 4819SOL    HW214778   5.553   4.217   4.389  1.4484  0.9427  1.3628
 4820SOL     OW14779   4.479   2.786   3.707 -0.4630  0.6065  0.0323
 4820SOL    HW114780   4.428   2.755   3.788  0.2603 -1.9790 -0.4027
 4820SOL    HW214781   4.429   2.860   3.662 -1.4865  1.2785  2.1364
 4821SOL     OW14782   1.176   1.620   0.117  0.8319  0.7980  0.2890
 4821SOL    HW114783   1.271   1.592   0.131  0.6926  0.6953  1.0522
 4821SOL    HW214784   1.167   1.718   0.136  0.8723  0.9056 -0.2294
 4822SOL     OW14785   5.140   2.298   4.111 -0.0228  0.0482 -0.4762
 4822SOL    HW114786   5.172   2.301   4.017  0.4816  0.9443 -0.2799
 4822SOL    HW214787   5.065   2.232   4.118  0.5107 -0.6755 -1.3170
 4823SOL     OW14788   0.147   1.278   5.526 -0.0441 -0.4092 -0.6776
 4823SOL    HW114789   0.161   1.248   5.432  0.8108  0.6636 -0.9149
 4823SOL    HW214790   0.160   1.201   5.589 -2.1511 -1.5097 -1.5043
 4824SOL     OW14791   5.208   4.020   4.633  0.1513  0.4017  0.0604
 4824SOL    HW114792   5.244   3.929   4.655 -0.1490  0.2217 -0.2026
 4824SOL    HW214793   5.110   4.022   4.649 -0.1034  0.2311 -1.3544
 4825SOL     OW14794   5.329   2.366   4.498  0.2319 -0.4007 -0.6746
 4825SOL    HW114795   5.380   2.424   4.434 -0.2006 -0.3288 -0.9555
 4825SOL    HW214796   5.320   2.274   4.460 -0.5957 -0.1815 -1.0141
 4826SOL     OW14797   0.335   3.131   4.357 -0.2883  0.3375  0.0624
 4826SOL    HW114798   0.434   3.129   4.344 -0.4178 -1.1693 -0.9844
 4826SOL    HW214799   0.313   3.176   4.444  1.2316  1.6804 -0.2077
 4827SOL     OW14800   4.980   2.577   5.283 -0.0326 -0.1629 -0.1407
 4827SOL    HW114801   5.070   2.538   5.262 -0.0977 -0.4511  0.1155
 4827SOL    HW214802   4.993   2.665   5.329  0.1163 -0.1421 -0.2189
 4828SOL     OW14803   4.731   2.185   3.793 -0.1733 -0.2555  0.3166
 4828SOL    HW114804   4.774   2.221   3.711 -0.1238 -0.3700  0.2922
 4828SOL    HW214805   4.631   2.192   3.784 -0.1734 -0.4474  0.1658
 4829SOL     OW14806   0.014   3.435   4.139  0.3578 -0.5271 -0.2876
 4829SOL    HW114807   0.048   3.422   4.232  1.2287  1.7434 -0.2350
 4829SOL    HW214808   0.087   3.472   4.081 -0.7576  0.1347 -1.3218
 4830SOL     OW14809   4.308   1.204   4.649  0.4697 -0.0287 -0.6541
 4830SOL    HW114810   4.289   1.252   4.563 -0.3472  0.2908 -0.3049
 4830SOL    HW214811   4.385   1.248   4.695  3.8906 -2.7832 -3.2369
 4831SOL     OW14812   0.342   2.206   3.691  0.2467 -0.2055  0.4767
 4831SOL    HW114813   0.394   2.122   3.705  0.3376 -0.1486  0.4835
 4831SOL    HW214814   0.296   2.232   3.776 -1.6320 -1.4765 -0.0876
 4832SOL     OW14815   4.567   2.869   0.725 -0.7085 -0.0388 -0.3144
 4832SOL    HW114816   4.470   2.891   0.738 -0.8436 -1.3999  1.5557
 4832SOL    HW214817   4.600   2.821   0.806  1.1403 -0.9704 -1.5607
 4833SOL     OW14818   0.112   2.706   3.346  0.0083  0.0114  0.2471
 4833SOL    HW114819   0.096   2.681   3.441 -0.7147 -0.6472 -0.0422
 4833SOL    HW214820   0.159   2.631   3.300 -0.1613  0.0937 -0.0604
 4834SOL     OW14821   4.841   3.039   4.382 -0.2373 -0.1495 -0.0262
 4834SOL    HW114822   4.886   3.111   4.328  0.7017 -0.8471 -0.2010
 4834SOL    HW214823   4.876   3.042   4.476 -0.4603 -0.1516  0.0564
 4835SOL     OW14824   0.532   3.047   0.028  0.0679  0.3982  0.1727
 4835SOL    HW114825   0.586   3.122  -0.009  0.6563  0.6294  1.4310
 4835SOL    HW214826   0.439   3.079   0.047 -0.3568  0.1652 -1.4344
 4836SOL     OW14827   5.494   2.511   4.308 -0.1927 -0.2962 -0.0154
 4836SOL    HW114828   5.440   2.566   4.245 -1.0205 -0.8288  0.2263
 4836SOL    HW214829   5.556   2.571   4.359 -0.4715  0.3034 -0.3747
 4837SOL     OW14830   3.325   3.174   5.380  0.2925  0.1415 -0.2267
 4837SOL    HW114831   3.291   3.268   5.376  1.2205  0.4487 -1.5583
 4837SOL    HW214832   3.409   3.171   5.434 -0.1600 -0.0775  0.4803
 4838SOL     OW14833   4.619   3.206   4.764 -0.1569 -0.3359 -0.4926
 4838SOL    HW114834   4.687   3.142   4.798 -1.2589 -1.1503  0.2500
 4838SOL    HW214835   4.631   3.295   4.808  2.0971  0.3760 -2.3601
 4839SOL     OW14836   4.089   3.058   4.508  0.0521  0.3721  0.1869
 4839SOL    HW114837   3.993   3.082   4.497 -0.0264 -0.6684 -1.8323
 4839SOL    HW214838   4.096   2.974   4.563 -0.2255  0.1830 -0.0641
 4840SOL     OW14839   5.493   2.806   5.152  0.5495 -0.2517  0.6026
 4840SOL    HW114840   5.492   2.717   5.108 -1.1467  0.2517 -0.4732
 4840SOL    HW214841   5.416   2.861   5.119  1.7431  1.7578  0.9585
 4841SOL     OW14842   0.140   2.716   5.567 -0.3767  0.4079  0.7217
 4841SOL    HW114843   0.070   2.646   5.580  0.1124 -0.5242 -1.2571
 4841SOL    HW214844   0.146   2.740   5.470  2.1570  0.3146  0.7979
 4842SOL     OW14845   0.804   2.977   4.541  0.2909  0.0200  0.2276
 4842SOL    HW114846   0.742   3.044   4.583  0.8835  0.8520 -0.1832
 4842SOL    HW214847   0.882   2.961   4.602  0.8033  0.7046 -0.2310
 4843SOL     OW14848   0.625   2.603   4.292  0.1781  0.0096  0.3286
 4843SOL    HW114849   0.583   2.516   4.317 -1.8479  1.3862  2.0370
 4843SOL    HW214850   0.595   2.631   4.201 -1.2957  0.1267  0.8253
 4844SOL     OW14851   4.185   2.973   4.250 -1.0383  0.4006 -0.4303
 4844SOL    HW114852   4.158   2.993   4.344 -1.2347 -1.7082  0.0177
 4844SOL    HW214853   4.128   3.025   4.187 -1.8325  0.8107  0.5921
 4845SOL     OW14854   0.976   3.394   3.409  0.0255  0.1227 -0.1628
 4845SOL    HW114855   0.902   3.392   3.342  2.4529 -2.4921 -3.0470
 4845SOL    HW214856   1.016   3.486   3.410 -2.2744  1.2030  0.4690
 4846SOL     OW14857   0.856   2.457   1.724  0.0824 -0.4055  0.1904
 4846SOL    HW114858   0.866   2.537   1.665 -0.6426 -0.5242 -0.1038
 4846SOL    HW214859   0.946   2.420   1.745  0.3557 -0.4633 -0.9870
 4847SOL     OW14860   4.888   2.522   2.940 -0.1735  0.2234  0.4093
 4847SOL    HW114861   4.937   2.606   2.964 -0.6842  0.6566 -0.0350
 4847SOL    HW214862   4.953   2.454   2.905  0.1713  0.6343  0.2388
 4848SOL     OW14863   0.687   2.542   5.357 -0.0489 -0.2375 -0.1696
 4848SOL    HW114864   0.639   2.626   5.331 -0.1150 -0.0070  0.6434
 4848SOL    HW214865   0.634   2.462   5.329 -2.0449 -0.0197  2.5270
 4849SOL     OW14866   5.583   3.880   5.315  0.4239 -0.1111 -0.5512
 4849SOL    HW114867   5.629   3.837   5.393  1.0911  1.3378 -0.1185
 4849SOL    HW214868   5.514   3.817   5.279  0.2958 -0.9308  1.0332
 4850SOL     OW14869   4.631   2.885   5.550 -0.4227 -0.0973  0.1762
 4850SOL    HW114870   4.567   2.844   5.615  0.5162  0.2920  1.3919
 4850SOL    HW214871   4.593   2.880   5.458 -1.2561 -1.7854  0.5690
 4851SOL     OW14872   5.162   4.419   4.875 -0.1187  0.2535  0.1076
 4851SOL    HW114873   5.092   4.476   4.918 -0.8088 -0.2426 -0.3324
 4851SOL    HW214874   5.125   4.378   4.791 -0.0806 -1.8481  1.0428
 4852SOL     OW14875   4.315   2.940   0.806 -0.7934  0.1303 -0.5302
 4852SOL    HW114876   4.262   3.012   0.851  0.1932  0.8301 -0.4696
 4852SOL    HW214877   4.256   2.861   0.790 -1.0327 -0.5076  2.7196
 4853SOL     OW14878   4.696   2.706   4.711 -0.1122 -0.3450 -0.2705
 4853SOL    HW114879   4.685   2.608   4.696 -0.9242 -0.1508 -1.0286
 4853SOL    HW214880   4.704   2.724   4.810  0.2879 -1.1886 -0.1431
 4854SOL     OW14881   0.676   3.924   4.217 -0.0825  0.7033 -0.7457
 4854SOL    HW114882   0.748   3.973   4.166  0.6529  1.3688  0.8654
 4854SOL    HW214883   0.613   3.991   4.256 -0.2144  0.2533 -0.1815
 4855SOL     OW14884   4.731   2.062   3.481 -0.1793 -0.1410 -0.9191
 4855SOL    HW114885   4.716   2.158   3.505  2.3058  0.2098 -0.4681
 4855SOL    HW214886   4.779   2.057   3.393  1.1482 -0.8507 -0.1887
 4856SOL     OW14887   3.774   3.320   5.277 -0.1900 -0.1261  0.4322
 4856SOL    HW114888   3.849   3.269   5.320  0.5694  1.8921  1.6467
 4856SOL    HW214889   3.809   3.369   5.197 -0.8879 -1.3247 -0.6531
 4857SOL     OW14890   0.445   2.891   4.883  0.3901  0.1406  0.3475
 4857SOL    HW114891   0.539   2.921   4.895  0.4318  0.9463 -1.6905
 4857SOL    HW214892   0.437   2.837   4.799 -1.0979  0.7035  0.0975
 4858SOL     OW14893   4.731   2.533   5.390 -0.2571 -0.8675 -0.1311
 4858SOL    HW114894   4.813   2.558   5.339 -0.0388  1.6981  1.3477
 4858SOL    HW214895   4.748   2.540   5.488 -2.4123  0.4639  0.2138
 4859SOL     OW14896   3.218   2.882   3.622  0.5697  0.4432 -0.2419
 4859SOL    HW114897   3.193   2.808   3.559  0.9587 -0.1302  0.2612
 4859SOL    HW214898   3.214   2.970   3.575 -1.1771  0.2540 -0.5251
 4860SOL     OW14899   0.418   2.567   4.620  0.7130  0.5166 -0.2131
 4860SOL    HW114900   0.343   2.511   4.585  1.0457 -1.2827  1.7831
 4860SOL    HW214901   0.502   2.546   4.569  0.6559 -0.1872 -0.0188
 4861SOL     OW14902   5.370   3.501   3.794 -0.4808 -0.3189  0.1734
 4861SOL    HW114903   5.452   3.555   3.771 -0.6221  0.1582  0.7703
 4861SOL    HW214904   5.398   3.415   3.836 -0.2793 -0.2838  0.1152
 4862SOL     OW14905   5.223   2.858   5.082  0.3853  0.3318  0.4541
 4862SOL    HW114906   5.255   2.897   4.996 -0.8626 -0.4085 -0.3583
 4862SOL    HW214907   5.125   2.872   5.091  0.7913  2.4333  2.8521
 4863SOL     OW14908   0.846   3.112   4.317  0.5715 -0.2053 -0.2657
 4863SOL    HW114909   0.923   3.069   4.270  0.1575 -0.7980 -0.4231
 4863SOL    HW214910   0.832   3.067   4.406 -0.6770 -1.3216 -0.9801
 4864SOL     OW14911   4.103   4.236   5.092 -0.1393 -0.6141  0.5671
 4864SOL    HW114912   4.197   4.203   5.086 -0.7131 -2.0714 -1.4175
 4864SOL    HW214913   4.046   4.167   5.136 -0.2973  0.3368  1.9247
 4865SOL     OW14914   4.524   4.094   0.738 -0.1637  0.1027 -0.4174
 4865SOL    HW114915   4.494   4.160   0.669  0.3156 -0.5536 -1.2559
 4865SOL    HW214916   4.449   4.030   0.757 -0.3196  0.3269 -0.2582
 4866SOL     OW14917   0.339   2.392   5.471 -0.2863  0.0471  0.2052
 4866SOL    HW114918   0.264   2.403   5.405  1.5490  0.0121 -2.0362
 4866SOL    HW214919   0.307   2.339   5.550 -2.2059 -1.3044 -1.3662
 4867SOL     OW14920   5.510   0.749   4.525 -0.2221 -0.1551  0.4786
 4867SOL    HW114921   5.451   0.802   4.465 -2.4169  0.8925  3.3494
 4867SOL    HW214922   5.546   0.808   4.598  0.5125 -1.7965  1.5143
 4868SOL     OW14923   4.570   2.079   5.444 -0.2896  0.0157 -0.3324
 4868SOL    HW114924   4.651   2.110   5.494  1.1406 -2.0181 -1.2694
 4868SOL    HW214925   4.539   1.991   5.480  0.3042 -1.1204 -2.4262
 4869SOL     OW14926   4.059   2.395   5.325 -0.7797 -0.2065  0.3937
 4869SOL    HW114927   4.139   2.450   5.301 -1.4578  0.1121 -1.2899
 4869SOL    HW214928   4.059   2.311   5.271 -1.4084 -0.3631  0.6283
 4870SOL     OW14929   0.371   1.625   5.510  0.1746 -0.5544  0.3129
 4870SOL    HW114930   0.431   1.618   5.589  0.6701  1.1570  0.1350
 4870SOL    HW214931   0.281   1.588   5.532  0.5137 -0.7230  1.4466
 4871SOL     OW14932   0.672   1.785   3.897  0.4033  0.1889  0.1082
 4871SOL    HW114933   0.615   1.734   3.961  0.3236  1.4825  1.1223
 4871SOL    HW214934   0.710   1.865   3.943  1.0372  0.6945 -1.2376
 4872SOL     OW14935   3.443   1.927   3.961 -0.2843 -0.0437  0.3307
 4872SOL    HW114936   3.488   1.999   4.014  0.6326  0.0368 -0.5319
 4872SOL    HW214937   3.425   1.960   3.868  0.5064 -1.0411 -0.1981
 4873SOL     OW14938   4.812   4.265   4.954 -0.4290 -0.0332  0.4043
 4873SOL    HW114939   4.787   4.183   5.005  0.3331 -0.7055 -0.2682
 4873SOL    HW214940   4.901   4.298   4.986  0.0211 -0.4184 -0.4096
 4874SOL     OW14941   5.112   2.223   3.077  0.4904 -0.1023 -0.1663
 4874SOL    HW114942   5.159   2.136   3.095 -0.0339 -0.3464  0.0410
 4874SOL    HW214943   5.070   2.220   2.987 -1.9352 -1.1796  0.9095
 4875SOL     OW14944   5.535   3.570   5.374  0.0001  0.5548  0.3807
 4875SOL    HW114945   5.491   3.533   5.456 -2.2578  2.6532  0.1928
 4875SOL    HW214946   5.624   3.608   5.399  0.1665 -0.4750  1.4759
 4876SOL     OW14947   4.970   2.848   4.765  0.5470 -0.3048 -0.4176
 4876SOL    HW114948   5.048   2.786   4.756 -0.2489 -1.3893 -0.0753
 4876SOL    HW214949   4.887   2.802   4.733 -0.4390 -0.2594  1.8465
 4877SOL     OW14950   0.760   2.358   4.051  0.1843  0.0298 -0.0353
 4877SOL    HW114951   0.693   2.347   4.125  0.3686  0.7254  0.2444
 4877SOL    HW214952   0.841   2.406   4.086  0.1079  0.7179 -0.7779
 4878SOL     OW14953   4.785   2.675   0.054  0.3621 -0.0085 -0.1956
 4878SOL    HW114954   4.876   2.684   0.097 -0.1024 -0.8599  1.0336
 4878SOL    HW214955   4.761   2.761   0.010  2.0236  0.0490 -1.0899
 4879SOL     OW14956   4.824   4.187   4.707  0.6118  0.0225 -0.4256
 4879SOL    HW114957   4.810   4.215   4.801  1.6161  2.8958 -1.0332
 4879SOL    HW214958   4.848   4.089   4.704  3.9706  0.5492  2.6618
 4880SOL     OW14959   0.521   2.722   5.156 -0.3821 -0.4557 -0.2781
 4880SOL    HW114960   0.479   2.635   5.128 -0.6434  0.3379 -2.5657
 4880SOL    HW214961   0.453   2.795   5.150  0.5848  0.3934 -1.4381
 4881SOL     OW14962   4.495   1.838   5.524  0.1547  0.0332  0.3761
 4881SOL    HW114963   4.508   1.764   5.457 -1.3791 -0.5217  0.6481
 4881SOL    HW214964   4.497   1.800   5.616  2.0104  0.7644  0.6792
 4882SOL     OW14965   0.199   1.409   4.316 -0.0627 -0.6047  0.1956
 4882SOL    HW114966   0.240   1.495   4.347 -1.6849  0.6724 -1.0315
 4882SOL    HW214967   0.255   1.369   4.244 -0.2282  0.4206 -0.5286
 4883SOL     OW14968   5.366   3.493   4.292 -0.0025  0.4572 -0.5997
 4883SOL    HW114969   5.405   3.562   4.353  0.0613 -0.0246 -0.0838
 4883SOL    HW214970   5.430   3.474   4.218  0.1624  0.6429 -0.5066
 4884SOL     OW14971   4.791   3.756   4.459  0.8916  0.7961  0.0607
 4884SOL    HW114972   4.722   3.783   4.526 -0.2839  1.9249 -1.5423
 4884SOL    HW214973   4.747   3.710   4.382  2.5518 -3.6045  1.4618
 4885SOL     OW14974   3.846   3.284   0.610 -0.1305 -0.1911  0.0313
 4885SOL    HW114975   3.818   3.313   0.519 -1.1508  0.0527  0.4078
 4885SOL    HW214976   3.934   3.325   0.633  0.1247 -0.2432 -0.8281
 4886SOL     OW14977   4.523   4.390   5.180  0.3318  0.1066  0.2447
 4886SOL    HW114978   4.554   4.300   5.211 -0.9306 -0.1071  0.9681
 4886SOL    HW214979   4.527   4.454   5.256  1.7176  0.8313 -0.3937
 4887SOL     OW14980   4.896   2.609   5.011 -0.2647  0.2179  0.2513
 4887SOL    HW114981   4.930   2.630   5.102  1.9877  1.1048 -0.7302
 4887SOL    HW214982   4.805   2.649   5.000  0.3611  2.0782  1.3669
 4888SOL     OW14983   4.538   3.539   1.055 -0.4432 -0.3210 -0.2571
 4888SOL    HW114984   4.453   3.488   1.066 -0.3373 -0.0836  2.4876
 4888SOL    HW214985   4.518   3.637   1.061 -0.0596 -0.2375 -0.3629
 4889SOL     OW14986   4.412   3.491   3.972 -0.1756  0.0732  0.0583
 4889SOL    HW114987   4.434   3.406   4.021 -0.3942 -0.2479 -0.3888
 4889SOL    HW214988   4.333   3.475   3.913  0.5414  0.2309 -0.9764
 4890SOL     OW14989   4.067   3.595   3.994 -0.4873  0.0656 -0.4966
 4890SOL    HW114990   4.067   3.533   4.072 -0.1942  0.4094 -0.2200
 4890SOL    HW214991   4.117   3.554   3.918  2.0533  1.0440  0.5631
 4891SOL     OW14992   3.378   4.085   4.876 -0.2150  0.2454 -0.6140
 4891SOL    HW114993   3.429   4.005   4.841  1.0108  0.4695  0.5600
 4891SOL    HW214994   3.437   4.137   4.937 -0.7310  2.5203 -1.9575
 4892SOL     OW14995   0.415   2.693   3.546 -0.0257  0.5407  0.0195
 4892SOL    HW114996   0.420   2.593   3.554  0.8272  0.4031 -1.6954
 4892SOL    HW214997   0.430   2.735   3.636  2.2644 -0.8295  0.3678
 4893SOL     OW14998   5.253   2.486   5.211  0.7442  0.1038 -0.3918
 4893SOL    HW114999   5.223   2.390   5.209  0.5825  0.1203  0.7562
 4893SOL    HW215000   5.342   2.493   5.166  2.0871 -1.1087  1.8579
 4894SOL     OW15001   4.382   2.385   4.792  0.0535 -0.9122 -0.7502
 4894SOL    HW115002   4.476   2.397   4.823 -0.0418 -0.2727 -0.6770
 4894SOL    HW215003   4.372   2.423   4.700  0.0463 -1.6841 -1.0687
 4895SOL     OW15004   0.787   3.839   5.053  0.0636 -0.2482 -0.2810
 4895SOL    HW115005   0.805   3.824   4.955  0.2359  0.5096 -0.3702
 4895SOL    HW215006   0.811   3.932   5.077 -0.9972 -0.0946  0.2519
 4896SOL     OW15007   5.011   2.534   4.206  0.6738  0.2649 -0.1695
 4896SOL    HW115008   4.968   2.509   4.293 -0.9485  0.0735 -1.0003
 4896SOL    HW215009   5.060   2.455   4.169 -2.7857 -1.3424 -1.8095
 4897SOL     OW15010   5.065   2.176   4.830 -0.0568  0.1088  0.4303
 4897SOL    HW115011   5.092   2.196   4.924 -1.0744  1.4204  0.4742
 4897SOL    HW215012   5.013   2.091   4.828  1.2744 -0.7521  0.7957
 4898SOL     OW15013   3.654   3.731   0.442 -0.6346  0.4014  0.8051
 4898SOL    HW115014   3.554   3.736   0.434 -0.6118  0.2097  0.3768
 4898SOL    HW215015   3.686   3.644   0.406 -0.4113 -0.0390  2.0239
 4899SOL     OW15016   5.363   2.940   4.867 -0.4348 -0.1124 -0.0067
 4899SOL    HW115017   5.441   2.990   4.831 -1.2865  1.0380 -0.3036
 4899SOL    HW215018   5.334   2.870   4.801 -1.0588  0.9850 -0.9347
 4900SOL     OW15019   4.838   3.108   5.295  0.1189  0.1776  0.4554
 4900SOL    HW115020   4.901   3.125   5.370 -0.2518 -2.9200  1.6323
 4900SOL    HW215021   4.745   3.099   5.331 -0.3213  0.2572 -0.6225
 4901SOL     OW15022   4.127   2.920   3.382  0.1863 -0.0798 -0.4103
 4901SOL    HW115023   4.131   2.836   3.328 -3.5195 -0.4009 -0.4113
 4901SOL    HW215024   4.078   2.902   3.468  0.6783  1.7526  0.3061
 4902SOL     OW15025   4.045   3.196   5.023 -0.0153  0.4034  0.0927
 4902SOL    HW115026   4.034   3.113   5.078 -3.2455  1.6501  1.5709
 4902SOL    HW215027   4.141   3.224   5.024  1.3636 -3.5813 -1.0613
 4903SOL     OW15028   4.788   3.642   5.517  0.4748  0.3973 -0.6368
 4903SOL    HW115029   4.850   3.685   5.582  1.0851  0.4930 -1.2784
 4903SOL    HW215030   4.743   3.564   5.561  1.0701  0.3053 -0.1777
 4904SOL     OW15031   1.164   2.561   5.389  0.3136 -0.4568  0.3621
 4904SOL    HW115032   1.236   2.618   5.429 -0.3981  2.0185 -1.5908
 4904SOL    HW215033   1.199   2.469   5.375  2.9956  0.5275 -0.0962
 4905SOL     OW15034   5.273   2.173   5.328  0.5248  0.3399 -0.1092
 4905SOL    HW115035   5.274   2.220   5.417  1.5107 -0.3171  0.2533
 4905SOL    HW215036   5.361   2.186   5.283 -0.5397  2.0733 -1.7877
 4906SOL     OW15037   0.195   3.742   5.104 -0.6107  0.8610  0.1408
 4906SOL    HW115038   0.145   3.763   5.020 -0.3445  0.0009 -0.2514
 4906SOL    HW215039   0.165   3.803   5.177 -1.6612  0.8872 -0.2883
 4907SOL     OW15040   3.949   2.633   4.750 -0.1189  0.8703  0.4689
 4907SOL    HW115041   3.903   2.720   4.769 -0.2875  0.7117  0.7893
 4907SOL    HW215042   4.010   2.610   4.826  0.4229  1.0324  0.0871
 4908SOL     OW15043   4.959   4.100   4.410  0.4632  0.5706  0.2319
 4908SOL    HW115044   4.996   4.063   4.325  0.1055 -1.3452  0.8660
 4908SOL    HW215045   4.947   4.026   4.476 -1.4161  1.6420  1.1793
 4909SOL     OW15046   0.211   2.338   3.904  0.4330  0.2436 -0.4270
 4909SOL    HW115047   0.117   2.306   3.912  0.3574  0.6464  0.4553
 4909SOL    HW215048   0.212   2.437   3.889  0.7177  0.4947  1.0660
 4910SOL     OW15049   5.527   2.395   3.934 -0.1570  0.6061 -0.7033
 4910SOL    HW115050   5.480   2.355   4.013 -3.0153  2.4565 -1.3442
 4910SOL    HW215051   5.478   2.372   3.850  1.6184  0.4555 -1.7485
 4911SOL     OW15052   4.703   3.450   4.910  0.4608 -0.2558 -0.2489
 4911SOL    HW115053   4.712   3.550   4.914  0.7714 -0.3021  0.3950
 4911SOL    HW215054   4.756   3.409   4.985 -0.3407 -0.8560  0.0056
 4912SOL     OW15055   5.277   1.442   4.319 -0.3585 -0.0899 -0.4420
 4912SOL    HW115056   5.185   1.426   4.355 -0.3742  0.0745 -0.4048
 4912SOL    HW215057   5.292   1.386   4.238 -0.1764 -0.7654  0.0514
 4913SOL     OW15058   3.155   3.305   1.093 -0.0545 -0.0366 -0.2833
 4913SOL    HW115059   3.128   3.215   1.061  0.5012 -1.2189  2.2842
 4913SOL    HW215060   3.077   3.367   1.088 -0.6687 -0.8671 -1.3476
 4914SOL     OW15061   4.348   3.670   4.523  0.3719 -0.1079 -0.1553
 4914SOL    HW115062   4.444   3.640   4.522  0.6033  0.6224 -0.5607
 4914SOL    HW215063   4.300   3.625   4.598  1.0387 -0.4619  0.0712
 4915SOL     OW15064   3.734   4.826   5.271 -0.3639  0.2165  0.4738
 4915SOL    HW115065   3.733   4.763   5.348  0.8884  0.5730  0.8070
 4915SOL    HW215066   3.772   4.914   5.301 -0.5460  0.5940 -0.3832
 4916SOL     OW15067   4.932   2.463   4.479  0.4242 -0.2719  0.5092
 4916SOL    HW115068   5.006   2.409   4.518  0.3443  0.5996  1.9408
 4916SOL    HW215069   4.854   2.402   4.459  1.0508 -0.9869  0.1970
 4917SOL     OW15070   3.879   2.889   3.061  0.3662  0.3257 -0.2722
 4917SOL    HW115071   3.922   2.945   3.131 -1.2360  1.5757 -0.2219
 4917SOL    HW215072   3.944   2.870   2.988  1.3495  1.0539  0.3955
 4918SOL     OW15073   4.685   2.941   3.830 -0.0491  0.2932  0.1770
 4918SOL    HW115074   4.610   2.884   3.797  0.2657  0.2675 -0.5186
 4918SOL    HW215075   4.690   2.935   3.929 -0.3457 -0.4821  0.1532
 4919SOL     OW15076   4.455   3.521   0.341  0.3548  0.0286 -0.3814
 4919SOL    HW115077   4.446   3.618   0.367 -0.4881  0.6762 -2.7955
 4919SOL    HW215078   4.545   3.506   0.300  0.0984  0.0285 -0.9402
 4920SOL     OW15079   4.998   3.074   4.615  0.3216  0.3213 -0.2125
 4920SOL    HW115080   5.002   2.990   4.669 -2.0794 -0.5490 -1.2532
 4920SOL    HW215081   4.989   3.153   4.677  0.2333 -0.3919  0.7084
 4921SOL     OW15082   0.102   3.407   4.394  0.1967 -0.3503 -0.0488
 4921SOL    HW115083   0.180   3.361   4.437  0.8141 -0.9962 -1.7787
 4921SOL    HW215084   0.017   3.374   4.436  0.7376 -1.5449  0.1557
 4922SOL     OW15085   5.234   3.011   5.323  0.0833  0.5341  0.5029
 4922SOL    HW115086   5.232   2.928   5.268  1.0223 -0.1139  1.4290
 4922SOL    HW215087   5.156   3.012   5.386 -0.1505  0.5616  0.2171
 4923SOL     OW15088   5.275   3.077   0.692  0.6864  0.5423 -0.7306
 4923SOL    HW115089   5.304   3.167   0.660  1.7211  0.4428 -0.1337
 4923SOL    HW215090   5.176   3.071   0.689  0.3734  2.7119  1.7990
 4924SOL     OW15091   5.573   2.366   4.711  0.1848  0.6805  0.2590
 4924SOL    HW115092   5.493   2.353   4.652  0.7224  0.6991 -0.4990
 4924SOL    HW215093   5.550   2.343   4.805 -0.9315  1.4620  0.1889
 4925SOL     OW15094   4.759   3.727   3.234 -0.2036 -0.1088 -0.7343
 4925SOL    HW115095   4.764   3.715   3.333 -2.6171  1.5181 -0.3511
 4925SOL    HW215096   4.823   3.663   3.190  0.2701 -1.5102  1.7865
 4926SOL     OW15097   0.407   1.855   5.383  0.0755  0.2222 -0.0020
 4926SOL    HW115098   0.421   1.908   5.467  0.9746  0.3799 -0.2454
 4926SOL    HW215099   0.358   1.771   5.405 -2.3426  1.5882  0.2485
 4927SOL     OW15100   5.329   3.369   4.737  0.3743  0.4524 -0.2205
 4927SOL    HW115101   5.392   3.429   4.785  0.0198  0.4147  0.2977
 4927SOL    HW215102   5.306   3.290   4.795 -1.3622  1.2487  0.2510
 4928SOL     OW15103   4.223   4.371   4.735 -0.1505  0.0499 -0.5367
 4928SOL    HW115104   4.191   4.447   4.678 -1.4899  0.2309  0.3885
 4928SOL    HW215105   4.314   4.343   4.706  0.1927  1.7226 -1.1911
 4929SOL     OW15106   4.414   2.032   5.042  0.5774  0.4915  0.1580
 4929SOL    HW115107   4.336   1.974   5.067  0.7368 -0.3436 -1.1692
 4929SOL    HW215108   4.400   2.067   4.949  2.2567 -0.5524 -0.5336
 4930SOL     OW15109   3.608   2.823   2.732 -0.1460  0.0388  0.3912
 4930SOL    HW115110   3.635   2.773   2.650  0.1022  0.1427  0.4073
 4930SOL    HW215111   3.563   2.761   2.796 -0.5521  0.0065  0.0777
 4931SOL     OW15112   1.042   1.993   0.435 -0.7055 -0.3576  0.0997
 4931SOL    HW115113   0.962   1.952   0.480 -1.5171 -1.1948 -1.9722
 4931SOL    HW215114   1.076   1.931   0.365  1.5958  0.1474  0.6877
 4932SOL     OW15115   4.388   3.199   4.352 -0.6233 -0.1798 -0.5268
 4932SOL    HW115116   4.312   3.256   4.383  0.4547  0.9551  0.1400
 4932SOL    HW215117   4.409   3.132   4.423 -1.1909 -0.6960 -0.8427
 4933SOL     OW15118   4.460   2.228   3.786 -0.1911 -0.0670 -0.6007
 4933SOL    HW115119   4.449   2.258   3.881 -1.7846 -0.6432 -0.5678
 4933SOL    HW215120   4.414   2.293   3.725  0.1769 -0.1010 -0.9227
 4934SOL     OW15121   5.322   2.113   4.356  0.3883  0.0721 -0.2706
 4934SOL    HW115122   5.366   2.083   4.441  2.3316 -2.1528 -1.9313
 4934SOL    HW215123   5.228   2.080   4.352 -0.8357  2.8021  2.2548
 4935SOL     OW15124   4.151   2.810   4.601  0.1077 -0.0820  0.5259
 4935SOL    HW115125   4.227   2.763   4.556  1.2920 -0.7314  3.0257
 4935SOL    HW215126   4.076   2.746   4.617 -0.3063  0.1443 -0.4069
 4936SOL     OW15127   5.114   1.578   4.622  0.4550  0.3347 -0.0061
 4936SOL    HW115128   5.111   1.529   4.535  0.1455  0.6194 -0.1564
 4936SOL    HW215129   5.117   1.677   4.605  1.9264  0.3616  0.2731
 4937SOL     OW15130   5.011   2.707   0.177 -0.3096 -0.6892  0.2442
 4937SOL    HW115131   5.039   2.741   0.267  0.0212 -1.4133  0.4210
 4937SOL    HW215132   5.081   2.730   0.109 -1.4590  1.6185 -0.2497
 4938SOL     OW15133   3.849   3.445   5.044  0.3085  0.5611 -0.1295
 4938SOL    HW115134   3.861   3.544   5.033  1.6203  0.4898  0.5018
 4938SOL    HW215135   3.933   3.398   5.020  0.0315 -0.3234  0.5792
 4939SOL     OW15136   1.761   1.701   4.637  0.0107  0.2555 -0.6059
 4939SOL    HW115137   1.684   1.642   4.661  0.6294  0.0465  0.9927
 4939SOL    HW215138   1.732   1.767   4.569 -1.0482 -1.0594 -1.4921
 4940SOL     OW15139   0.326   2.729   4.260  0.0561 -0.1391 -0.6118
 4940SOL    HW115140   0.283   2.781   4.334 -2.0823 -1.4141 -0.8616
 4940SOL    HW215141   0.373   2.650   4.298 -0.3546 -0.3531 -0.5436
 4941SOL     OW15142   3.864   2.273   3.609  0.1871  0.1271 -0.0331
 4941SOL    HW115143   3.781   2.256   3.556  0.5932 -1.3880 -0.2133
 4941SOL    HW215144   3.903   2.186   3.638  0.7098  0.8923  1.6305
 4942SOL     OW15145   5.430   1.858   4.002  0.1182  0.3552 -0.4818
 4942SOL    HW115146   5.491   1.935   4.019 -1.3062  1.1943  1.2060
 4942SOL    HW215147   5.385   1.831   4.088 -2.2607  0.1527 -1.6953
 4943SOL     OW15148   0.122   2.737   5.275 -0.1987  0.5005  0.3053
 4943SOL    HW115149   0.044   2.773   5.225  0.5724  1.1544 -0.4637
 4943SOL    HW215150   0.202   2.794   5.258  0.1677  0.5730  2.0727
 4944SOL     OW15151   3.734   1.651   2.653 -0.4571 -0.2543 -0.1187
 4944SOL    HW115152   3.793   1.730   2.671  1.0965 -1.1081 -1.1960
 4944SOL    HW215153   3.644   1.682   2.624 -0.4532  1.0949  1.1724
 4945SOL     OW15154   3.297   3.154   4.605 -0.1028 -0.4538 -0.3916
 4945SOL    HW115155   3.317   3.189   4.514  1.9040 -2.2276 -0.7168
 4945SOL    HW215156   3.232   3.079   4.599 -0.1247 -0.4393 -0.3380
 4946SOL     OW15157   5.132   3.713   5.268 -0.1886  0.2532  0.8094
 4946SOL    HW115158   5.091   3.632   5.226  1.7334 -0.2871 -0.1809
 4946SOL    HW215159   5.143   3.697   5.366  0.2508 -0.7573  0.6168
 4947SOL     OW15160   4.683   2.331   3.041  0.5775 -0.5002  0.4868
 4947SOL    HW115161   4.739   2.406   3.005 -0.2942 -0.3947 -0.6958
 4947SOL    HW215162   4.611   2.369   3.099 -0.3259 -0.3262 -0.7112
 4948SOL     OW15163   5.117   3.667   5.540 -0.4008 -0.2870 -0.2849
 4948SOL    HW115164   5.153   3.732   5.607 -0.6863 -0.4394  0.0166
 4948SOL    HW215165   5.089   3.583   5.587 -0.3083 -0.5151 -0.6349
 4949SOL     OW15166   4.424   3.718   5.533 -0.3497  0.0117 -0.8109
 4949SOL    HW115167   4.386   3.626   5.542  0.3390 -0.0321  3.5770
 4949SOL    HW215168   4.489   3.720   5.457  0.6195 -3.5200 -0.2351
 4950SOL     OW15169   3.815   2.868   4.797 -0.6262 -0.5763  0.9551
 4950SOL    HW115170   3.766   2.863   4.884  0.0865 -0.9224  1.3508
 4950SOL    HW215171   3.857   2.958   4.787 -2.2948  0.1471  0.0647
 4951SOL     OW15172   3.519   3.405   0.761 -0.4805  0.3278 -0.1587
 4951SOL    HW115173   3.549   3.317   0.723  2.8280  0.3032  2.1708
 4951SOL    HW215174   3.465   3.389   0.844 -0.8059  0.5240 -0.3276
 4952SOL     OW15175   4.977   1.767   4.928  0.0150  0.6681  0.2920
 4952SOL    HW115176   4.929   1.685   4.895  0.8317 -0.8473  2.6000
 4952SOL    HW215177   4.955   1.844   4.869  1.0043 -1.6246 -3.4390
 4953SOL     OW15178   3.593   3.006   3.206  0.2876 -0.1682  0.6009
 4953SOL    HW115179   3.685   3.045   3.202  0.9149 -1.6921 -0.4928
 4953SOL    HW215180   3.546   3.023   3.120  0.8532 -2.4209 -0.2026
 4954SOL     OW15181   4.577   2.590   0.253 -0.0400 -0.1934  0.4507
 4954SOL    HW115182   4.620   2.665   0.202  1.7799 -1.6203 -0.2456
 4954SOL    HW215183   4.560   2.513   0.191 -0.6891 -0.8363  1.3983
 4955SOL     OW15184   5.550   2.221   5.265 -0.0318  0.1626 -0.5602
 4955SOL    HW115185   5.598   2.309   5.270 -1.2040  0.7942 -0.2127
 4955SOL    HW215186   5.553   2.176   5.354  0.1624  0.0672 -0.6146
 4956SOL     OW15187   4.047   3.401   4.206  0.4406  0.2975 -0.4032
 4956SOL    HW115188   4.110   3.396   4.284 -0.8706  0.8436  0.7442
 4956SOL    HW215189   3.965   3.348   4.226  1.0025 -1.4706 -2.4065
 4957SOL     OW15190   0.249   2.216   4.310  0.1479 -0.0365  0.4280
 4957SOL    HW115191   0.184   2.278   4.352 -1.5153 -0.3787 -1.4673
 4957SOL    HW215192   0.237   2.124   4.348  1.4981  0.4286  2.0718
 4958SOL     OW15193   4.444   1.284  -0.005  0.3630 -0.0688  0.4185
 4958SOL    HW115194   4.404   1.349   0.060 -0.8811 -1.2576  0.8682
 4958SOL    HW215195   4.376   1.215  -0.029  1.6009 -1.0870 -0.2265
 4959SOL     OW15196   4.393   2.918   3.502 -0.1284 -0.2621 -0.0123
 4959SOL    HW115197   4.321   2.890   3.438 -0.8358  0.9948  0.1948
 4959SOL    HW215198   4.447   2.991   3.460 -0.0797  0.0009  0.5053
 4960SOL     OW15199   4.380   3.837   4.915 -0.5110 -0.1561  0.3712
 4960SOL    HW115200   4.439   3.917   4.920 -1.1080  0.2248  1.7930
 4960SOL    HW215201   4.295   3.861   4.868 -0.6890  0.0402  0.7956
 4961SOL     OW15202   4.741   2.351   3.534 -0.1727  0.1763 -0.3311
 4961SOL    HW115203   4.718   2.429   3.591 -0.1549 -0.0940  0.0523
 4961SOL    HW215204   4.832   2.318   3.557 -0.2500 -0.0656 -0.3610
 4962SOL     OW15205   0.128   2.640   3.603  0.4420  0.0532  0.4570
 4962SOL    HW115206   0.140   2.619   3.700  3.5701 -3.0707 -0.4124
 4962SOL    HW215207   0.208   2.690   3.570  1.3301 -2.3370 -1.2287
 4963SOL     OW15208   5.519   2.248   4.969  0.2572  0.5533  0.2787
 4963SOL    HW115209   5.433   2.205   4.940  0.2040  0.3271  0.7563
 4963SOL    HW215210   5.522   2.252   5.069 -0.0270  2.2794  0.2368
 4964SOL     OW15211   4.198   3.448   3.786 -0.5147  0.2819  0.0209
 4964SOL    HW115212   4.250   3.447   3.700 -2.1425 -0.0279 -1.0011
 4964SOL    HW215213   4.133   3.372   3.786  0.5265 -0.6918  2.2404
 4965SOL     OW15214   5.041   3.967   3.720 -0.2488  0.5456 -0.4599
 4965SOL    HW115215   5.000   3.991   3.633 -0.8962  0.7013 -0.1151
 4965SOL    HW215216   5.044   3.867   3.729 -0.8153  0.5333 -0.3667
 4966SOL     OW15217   3.344   3.502   5.497 -0.0641 -0.0405 -0.0323
 4966SOL    HW115218   3.307   3.496   5.589 -0.6435 -1.9470 -0.3479
 4966SOL    HW215219   3.443   3.486   5.499 -0.1363 -0.4581  0.2246
 4967SOL     OW15220   4.227   0.470   0.532 -0.4274  0.4279  0.9879
 4967SOL    HW115221   4.228   0.491   0.434  0.2105 -1.7455  0.4589
 4967SOL    HW215222   4.204   0.552   0.584 -1.3950  1.4934 -1.0107
 4968SOL     OW15223   4.102   4.873   4.337 -0.2014 -0.3951 -0.5421
 4968SOL    HW115224   4.179   4.877   4.273  0.0235  0.9045 -0.2192
 4968SOL    HW215225   4.136   4.862   4.430 -0.4655 -0.8322 -0.4928
 4969SOL     OW15226   2.816   4.835   2.450 -0.0378 -0.6588  0.3586
 4969SOL    HW115227   2.748   4.767   2.478 -0.5714 -1.0624 -1.7685
 4969SOL    HW215228   2.900   4.788   2.424 -0.1081 -0.4448 -0.2672
 4970SOL     OW15229   0.590   4.157   0.241  0.2240  0.6189  0.0901
 4970SOL    HW115230   0.673   4.210   0.224  0.0294  1.0310  0.4107
 4970SOL    HW215231   0.615   4.060   0.254  0.8171  0.9329  1.5174
 4971SOL     OW15232   4.805   4.555   0.364  0.3230 -0.4103  0.4759
 4971SOL    HW115233   4.823   4.461   0.334 -0.2685 -0.2422 -0.4382
 4971SOL    HW215234   4.843   4.619   0.297 -0.9450 -0.0228  0.1057
 4972SOL     OW15235   0.184   3.921   1.153 -0.0897  0.1358  0.1351
 4972SOL    HW115236   0.237   3.916   1.237  0.1918 -0.3662 -0.0660
 4972SOL    HW215237   0.245   3.906   1.075 -0.3759  0.4251 -0.1456
 4973SOL     OW15238   3.485   0.404   0.804  0.7686 -0.1297  0.6073
 4973SOL    HW115239   3.465   0.382   0.708  2.1193 -3.1750  0.8997
 4973SOL    HW215240   3.400   0.431   0.849 -0.0880  0.3935 -1.1900
 4974SOL     OW15241   4.589   4.162   1.515 -0.6740  0.0400 -0.2121
 4974SOL    HW115242   4.674   4.180   1.564  0.4815  0.5809 -2.3095
 4974SOL    HW215243   4.512   4.176   1.577  0.5593  3.4032  0.7940
 4975SOL     OW15244   3.842   4.573   1.904  0.3637  0.1782 -0.2182
 4975SOL    HW115245   3.857   4.476   1.885  0.8808  0.0233  0.9439
 4975SOL    HW215246   3.752   4.586   1.947  1.0898 -0.0475  1.4311
 4976SOL     OW15247   3.610   4.593   1.255  0.4940 -0.7342 -0.2883
 4976SOL    HW115248   3.618   4.497   1.227 -2.2080 -1.2927  0.5523
 4976SOL    HW215249   3.558   4.599   1.340  0.3287  1.4938 -0.4826
 4977SOL     OW15250   3.698   0.501   0.953 -0.5244 -0.0179  0.3452
 4977SOL    HW115251   3.631   0.467   0.887 -1.0664  0.1074  0.8228
 4977SOL    HW215252   3.692   0.601   0.958 -0.5070 -0.0302  0.6067
 4978SOL     OW15253   0.157   4.748   1.504  0.3701 -0.2158 -0.2531
 4978SOL    HW115254   0.102   4.829   1.528  1.8253  1.2550 -1.6024
 4978SOL    HW215255   0.158   4.738   1.405  0.6743 -1.5906 -0.1195
 4979SOL     OW15256   3.919   3.968   1.292 -0.0113  0.0019 -0.8573
 4979SOL    HW115257   3.869   4.007   1.369 -0.4766  1.0719 -1.6673
 4979SOL    HW215258   4.015   3.959   1.315 -0.2194 -0.0969 -0.0077
 4980SOL     OW15259   5.311   5.035   1.688  0.6321  0.4211  0.3472
 4980SOL    HW115260   5.279   5.112   1.634 -0.1913  0.3817  0.7656
 4980SOL    HW215261   5.289   5.050   1.784  0.4933 -0.3151  0.4364
 4981SOL     OW15262   3.714   4.279   0.649 -0.6612 -0.0044  0.7351
 4981SOL    HW115263   3.676   4.290   0.557  1.1149 -0.8601 -0.1662
 4981SOL    HW215264   3.648   4.235   0.708 -1.5472 -0.2069 -0.3733
 4982SOL     OW15265   4.272   4.985   0.636 -0.0982 -0.4020 -0.0396
 4982SOL    HW115266   4.275   4.886   0.628  0.4150 -0.2905 -1.4502
 4982SOL    HW215267   4.298   5.012   0.729  2.6247 -1.4731 -0.4009
 4983SOL     OW15268   3.020   5.309   1.203 -0.1599 -0.3414  0.5068
 4983SOL    HW115269   2.941   5.341   1.151  0.4916 -0.5129 -0.6311
 4983SOL    HW215270   3.092   5.378   1.199  0.4524 -1.0052 -0.1218
 4984SOL     OW15271   4.044   5.159   0.310 -0.3149  0.5764  0.1209
 4984SOL    HW115272   4.134   5.148   0.354 -0.6127 -0.9603  0.4276
 4984SOL    HW215273   4.045   5.239   0.251  1.1922  0.7218  0.3007
 4985SOL     OW15274   5.042   0.702   1.348  0.0046 -0.1963  0.3507
 4985SOL    HW115275   4.998   0.789   1.367 -0.7278 -0.6532  0.8252
 4985SOL    HW215276   5.124   0.717   1.293  0.2761  0.8509  1.0091
 4986SOL     OW15277   3.674   4.333   1.291 -0.1451 -0.0654 -0.0203
 4986SOL    HW115278   3.706   4.303   1.201 -2.8712  2.0039 -1.8495
 4986SOL    HW215279   3.582   4.297   1.308 -0.0408  0.3135  1.5425
 4987SOL     OW15280   0.225   3.761   1.611 -0.1254 -0.0289 -0.4253
 4987SOL    HW115281   0.187   3.672   1.587 -0.3690  0.3055 -1.3444
 4987SOL    HW215282   0.272   3.756   1.699 -2.0516 -0.5352  0.6302
 4988SOL     OW15283   2.993   4.577   4.698  0.0113  0.0324  0.1130
 4988SOL    HW115284   2.927   4.647   4.725  1.0280  1.5056 -1.0436
 4988SOL    HW215285   3.048   4.551   4.778 -2.5418 -1.9952  1.3585
 4989SOL     OW15286   5.276   5.380   1.683  0.0581 -0.1337 -0.1965
 4989SOL    HW115287   5.370   5.387   1.715  0.6889 -0.3641 -1.9090
 4989SOL    HW215288   5.273   5.327   1.598 -1.7623 -1.1139  0.4207
 4990SOL     OW15289   5.288   0.705   4.813  0.0677 -0.3489 -0.0886
 4990SOL    HW115290   5.299   0.753   4.726 -0.4976 -1.6858 -0.9328
 4990SOL    HW215291   5.347   0.625   4.816  3.0916  1.7426  2.4448
 4991SOL     OW15292   3.485   5.200   0.153 -0.6806 -0.3733  0.1364
 4991SOL    HW115293   3.486   5.104   0.180 -0.6641 -0.7691 -1.2312
 4991SOL    HW215294   3.568   5.245   0.188  0.6636 -1.5039 -1.4264
 4992SOL     OW15295   4.974   0.401   5.339  0.0669 -0.2678  0.1527
 4992SOL    HW115296   4.945   0.414   5.434 -0.5351 -0.8866  0.0694
 4992SOL    HW215297   5.073   0.404   5.333  0.0912  0.2643  0.7230
 4993SOL     OW15298   2.427   3.679   1.225 -0.2195 -0.2142  0.3751
 4993SOL    HW115299   2.461   3.770   1.251  0.5753 -0.2776 -0.3985
 4993SOL    HW215300   2.443   3.664   1.128 -0.9740 -0.9245  0.3503
 4994SOL     OW15301   5.550   4.555   1.827 -0.8001  0.0798 -0.1026
 4994SOL    HW115302   5.597   4.643   1.832 -1.6084  0.4495  2.2588
 4994SOL    HW215303   5.521   4.527   1.918 -2.7682 -1.4471 -1.1119
 4995SOL     OW15304   2.708   4.620   2.128 -0.0570 -0.6299 -0.1609
 4995SOL    HW115305   2.627   4.601   2.072  0.3207 -0.4699 -0.7690
 4995SOL    HW215306   2.790   4.608   2.072  0.2645  1.3072 -0.1777
 4996SOL     OW15307   4.226   4.841   0.067  0.2880  0.4312  0.3842
 4996SOL    HW115308   4.276   4.919   0.031  0.1790  0.5183  0.4219
 4996SOL    HW215309   4.288   4.781   0.118  0.6472 -0.1610 -0.7063
 4997SOL     OW15310   4.068   4.026   0.710  0.0020 -0.1707  0.6101
 4997SOL    HW115311   4.081   4.029   0.611  2.3366 -0.3038  0.8537
 4997SOL    HW215312   4.019   4.107   0.740  0.0658  0.3241 -0.5594
 4998SOL     OW15313   5.328   4.096   0.582 -0.1503 -0.8055  0.7587
 4998SOL    HW115314   5.371   4.083   0.671 -0.5422 -0.9584  0.9263
 4998SOL    HW215315   5.231   4.075   0.588 -0.5266  0.8044  0.6961
 4999SOL     OW15316   4.660   4.667   1.586  0.5006  0.4026 -0.0979
 4999SOL    HW115317   4.734   4.733   1.601  1.2063 -1.0105  3.6722
 4999SOL    HW215318   4.697   4.585   1.542  0.3064  1.0909 -1.6342
 5000SOL     OW15319   3.854   4.415   1.521 -0.1352  0.2018  0.3856
 5000SOL    HW115320   3.944   4.450   1.495 -0.0664 -0.0656  0.2614
 5000SOL    HW215321   3.806   4.383   1.439  0.3914 -1.3682  0.6588
 5001SOL     OW15322   3.267   4.665   0.400  0.4247 -0.0040 -0.1121
 5001SOL    HW115323   3.226   4.727   0.467  0.8427  0.1520  0.0007
 5001SOL    HW215324   3.307   4.587   0.448  0.0849 -0.2590 -0.2378
 5002SOL     OW15325   0.155   5.092   0.826 -0.8096 -0.0795  0.4113
 5002SOL    HW115326   0.253   5.109   0.834 -1.1748  2.4176  0.5649
 5002SOL    HW215327   0.123   5.040   0.905  0.2783 -0.3485  0.6856
 5003SOL     OW15328   4.019   4.671   0.465 -0.0020 -0.4485 -0.7825
 5003SOL    HW115329   4.067   4.614   0.398  0.4448 -0.2532 -0.6369
 5003SOL    HW215330   3.992   4.757   0.421 -3.1345 -1.8115 -1.8082
 5004SOL     OW15331   4.813   4.627   0.818 -0.1534 -0.3757 -0.3694
 5004SOL    HW115332   4.783   4.722   0.826  1.9025  0.2038  1.3190
 5004SOL    HW215333   4.885   4.620   0.748 -0.1770 -0.6575 -0.3679
 5005SOL     OW15334   0.218   3.714   0.349 -0.1905 -0.3683  0.0011
 5005SOL    HW115335   0.145   3.771   0.386  0.1144  0.3854 -0.5262
 5005SOL    HW215336   0.290   3.703   0.417 -0.3636 -0.3138  0.1913
 5006SOL     OW15337   3.368   4.376   2.366 -0.1277  1.0552  0.0807
 5006SOL    HW115338   3.331   4.370   2.458  2.2683  0.7657  1.0904
 5006SOL    HW215339   3.388   4.284   2.332 -1.0605  1.1520 -0.7926
 5007SOL     OW15340   0.055   4.809   1.858 -0.3286  0.5572  0.4493
 5007SOL    HW115341  -0.034   4.814   1.902 -0.2228 -1.3586  0.9616
 5007SOL    HW215342   0.127   4.826   1.925 -0.1791 -2.0732  1.0437
 5008SOL     OW15343   3.995   4.753   2.081  1.2044 -0.7812 -0.0680
 5008SOL    HW115344   3.959   4.732   1.990 -0.7333  0.4727  0.3448
 5008SOL    HW215345   3.929   4.723   2.151  0.9453  1.4679  0.7333
 5009SOL     OW15346   5.135   3.963   1.560  0.0358 -0.5415 -0.1298
 5009SOL    HW115347   5.198   4.028   1.517  1.6443 -1.3812  0.8398
 5009SOL    HW215348   5.046   3.968   1.515  0.4047  1.5706 -0.7634
 5010SOL     OW15349   5.055   4.850   0.304 -0.2208  0.0359 -0.2783
 5010SOL    HW115350   5.063   4.940   0.347 -0.1141  0.3683 -0.9713
 5010SOL    HW215351   4.977   4.850   0.241  1.2543  0.4797 -2.1985
 5011SOL     OW15352   3.122   3.468   0.437  0.3606  0.1355 -0.1057
 5011SOL    HW115353   3.097   3.391   0.378 -0.5143  0.2790  0.0564
 5011SOL    HW215354   3.207   3.448   0.484  0.2582 -0.6446 -0.2414
 5012SOL     OW15355   4.418   5.201   1.240 -0.4419 -0.1900  0.0538
 5012SOL    HW115356   4.497   5.180   1.183  1.1208 -0.4560  2.2085
 5012SOL    HW215357   4.426   5.153   1.328 -2.0992  1.1716  1.0193
 5013SOL     OW15358   5.167   4.681   0.458 -0.1853 -0.1192  0.3821
 5013SOL    HW115359   5.124   4.756   0.409  0.3048  0.0122  0.1438
 5013SOL    HW215360   5.168   4.599   0.400 -1.9478 -0.7245  1.1323
 5014SOL     OW15361   4.995   4.049   2.376 -0.3351 -0.3935  0.0397
 5014SOL    HW115362   4.922   4.111   2.404  1.9204  1.5074  2.1872
 5014SOL    HW215363   5.031   4.077   2.288  0.3129  1.1016  0.7470
 5015SOL     OW15364   4.535   4.558   0.452  0.6335  0.1026  0.6816
 5015SOL    HW115365   4.633   4.556   0.432  0.5110 -0.8298  0.1117
 5015SOL    HW215366   4.484   4.565   0.366  0.1919  0.6166  0.9788
 5016SOL     OW15367   5.543   4.586   1.060  0.3536 -0.3593 -0.5592
 5016SOL    HW115368   5.576   4.505   1.011 -0.2029 -1.6423  1.0824
 5016SOL    HW215369   5.494   4.557   1.142  1.6280  1.6911  1.0237
 5017SOL     OW15370   5.377   4.585   1.274  0.2141  0.5625  0.5812
 5017SOL    HW115371   5.307   4.515   1.261  0.5150  0.4920 -0.7391
 5017SOL    HW215372   5.333   4.673   1.291 -0.2877  0.8444 -1.8095
 5018SOL     OW15373   4.367   5.030   5.518 -0.1500 -0.1371 -0.2700
 5018SOL    HW115374   4.408   5.110   5.473 -1.9071  0.1169 -1.5163
 5018SOL    HW215375   4.383   4.948   5.463  0.5137 -0.4330  0.3433
 5019SOL     OW15376   3.587   4.900   5.068  0.8893  0.1731  0.3157
 5019SOL    HW115377   3.495   4.867   5.092 -0.3672  1.4370 -2.2516
 5019SOL    HW215378   3.652   4.875   5.140 -1.1419 -2.1369  1.4996
 5020SOL     OW15379   4.215   4.608   0.894 -0.1582  0.2239  0.6208
 5020SOL    HW115380   4.263   4.534   0.941  0.2540  0.1714  0.1273
 5020SOL    HW215381   4.118   4.586   0.889 -0.1295  0.0006  1.0091
 5021SOL     OW15382   3.757   5.058   2.525  0.3943  0.0657 -0.4130
 5021SOL    HW115383   3.749   5.081   2.622 -0.6304 -1.3271 -0.1286
 5021SOL    HW215384   3.682   5.099   2.474  0.4438  0.0796 -0.4747
 5022SOL     OW15385   0.119   4.288   1.372 -0.0484 -0.1291  0.2449
 5022SOL    HW115386   0.204   4.269   1.420  1.0243 -2.0822 -2.1759
 5022SOL    HW215387   0.082   4.377   1.401  1.9523  0.0413  2.4791
 5023SOL     OW15388   4.709   4.228   0.522  0.7298  0.4524 -0.2545
 5023SOL    HW115389   4.747   4.135   0.522  1.5768  0.7923  0.3309
 5023SOL    HW215390   4.745   4.279   0.600 -0.2226  1.0791 -0.2131
 5024SOL     OW15391   5.063   4.079   0.588 -0.8671 -0.0056  0.7101
 5024SOL    HW115392   5.043   4.173   0.616 -0.5145  1.0735 -2.2976
 5024SOL    HW215393   4.981   4.039   0.546 -0.5324 -0.4114  0.4406
 5025SOL     OW15394   2.724   0.310   0.519 -0.4142 -0.7476  0.1217
 5025SOL    HW115395   2.779   0.272   0.594  0.3407 -1.0022 -0.5425
 5025SOL    HW215396   2.692   0.402   0.544  0.2158 -0.6463  0.5782
 5026SOL     OW15397   0.231   4.524   5.367 -0.0130  0.1674  0.7459
 5026SOL    HW115398   0.318   4.570   5.352  0.4027 -0.6047  0.7784
 5026SOL    HW215399   0.164   4.591   5.399  0.6780  0.6932  1.1329
 5027SOL     OW15400   3.348   1.270   0.845 -0.1044 -0.1104  0.6593
 5027SOL    HW115401   3.314   1.331   0.917 -0.1572 -1.2594  1.6494
 5027SOL    HW215402   3.433   1.228   0.875 -1.2149 -2.2411  0.9978
 5028SOL     OW15403   5.051   5.369   1.390  0.4907 -0.1765 -0.4232
 5028SOL    HW115404   5.042   5.444   1.455  1.8213 -0.5608  0.2166
 5028SOL    HW215405   5.011   5.397   1.302  0.8068  1.2139 -0.1481
 5029SOL     OW15406   3.789   4.269   5.401  0.2875  0.2094 -0.3409
 5029SOL    HW115407   3.783   4.339   5.329  0.3500 -0.2533 -0.8028
 5029SOL    HW215408   3.834   4.308   5.481 -1.3886  1.2801  0.1274
 5030SOL     OW15409   5.195   4.340   1.630  0.2314 -0.0237 -0.3409
 5030SOL    HW115410   5.106   4.323   1.672  1.3615 -0.4430  2.0627
 5030SOL    HW215411   5.223   4.434   1.649  0.3811  0.0518 -0.9268
 5031SOL     OW15412   4.088   3.527   0.239  0.1230  0.2526 -0.2277
 5031SOL    HW115413   4.111   3.619   0.271 -1.0891  0.3650  0.3526
 5031SOL    HW215414   3.992   3.508   0.258  0.9807 -2.1937  2.2935
 5032SOL     OW15415   5.059   4.003   1.807  0.2642 -0.2327 -0.3226
 5032SOL    HW115416   4.962   3.980   1.815  0.6952 -1.7910  1.0666
 5032SOL    HW215417   5.090   3.986   1.713 -0.7531  0.1277 -0.7358
 5033SOL     OW15418   4.212   4.794   2.241 -0.3623 -0.1254  0.1418
 5033SOL    HW115419   4.195   4.855   2.318  1.2675  0.7615 -0.1546
 5033SOL    HW215420   4.133   4.795   2.179 -0.8294  0.7806  0.7304
 5034SOL     OW15421   4.914   3.987   1.381  0.0575  0.0558  0.0972
 5034SOL    HW115422   4.961   3.925   1.318 -1.1691  0.6666 -1.4752
 5034SOL    HW215423   4.815   3.979   1.369 -0.1583  1.5658  0.5928
 5035SOL     OW15424   4.558   4.807   1.287  0.4049  0.1782  0.4635
 5035SOL    HW115425   4.463   4.808   1.257  0.6598  0.3508 -0.3610
 5035SOL    HW215426   4.590   4.712   1.292  0.4444  0.1594 -0.0990
 5036SOL     OW15427   2.949   4.210   5.497 -0.4735  0.4490  0.0145
 5036SOL    HW115428   2.991   4.175   5.582  1.7108  2.8103  0.0340
 5036SOL    HW215429   2.862   4.254   5.519 -0.3471  0.2917  0.9017
 5037SOL     OW15430   3.742   3.616   0.034  0.0369 -0.6072 -0.1241
 5037SOL    HW115431   3.745   3.562   0.118 -1.2067 -0.7819 -0.1646
 5037SOL    HW215432   3.715   3.558  -0.043 -0.7121 -0.0833 -0.2777
 5038SOL     OW15433   5.478   4.915   4.315 -0.3864  0.3509 -0.2304
 5038SOL    HW115434   5.574   4.891   4.334  0.0782 -0.2164 -2.9621
 5038SOL    HW215435   5.420   4.837   4.337  0.1129 -0.2806 -1.1162
 5039SOL     OW15436   3.673   3.790   5.194  0.3242  0.1901 -0.2297
 5039SOL    HW115437   3.689   3.796   5.095  1.1140 -2.9504 -0.4294
 5039SOL    HW215438   3.761   3.791   5.242  0.3109 -2.3860 -0.0047
 5040SOL     OW15439   4.275   4.656   1.857 -0.0448 -0.0224  0.0515
 5040SOL    HW115440   4.214   4.595   1.908 -0.7491 -0.7389 -1.5810
 5040SOL    HW215441   4.251   4.751   1.878 -1.5390 -0.2911 -0.2982
 5041SOL     OW15442   4.381   3.665   2.026 -0.3497 -0.3616  0.4208
 5041SOL    HW115443   4.456   3.694   2.084  1.9583 -0.0071 -2.5011
 5041SOL    HW215444   4.390   3.708   1.936 -1.8730 -3.2336 -1.2533
 5042SOL     OW15445   0.303   4.928   5.305  0.0730  0.4331  0.2259
 5042SOL    HW115446   0.347   5.007   5.348  1.9810  0.7775 -2.1268
 5042SOL    HW215447   0.254   4.958   5.223  2.4585 -0.9461 -1.8308
 5043SOL     OW15448   0.283   4.537   1.736  0.1206 -0.3599  0.0281
 5043SOL    HW115449   0.195   4.582   1.721  0.4867  0.4176  0.1787
 5043SOL    HW215450   0.355   4.605   1.737  0.5771 -0.8499  1.2371
 5044SOL     OW15451   0.068   0.487   1.524  0.0151  0.1462 -0.1003
 5044SOL    HW115452   0.115   0.573   1.504 -1.8230  0.9310 -1.3499
 5044SOL    HW215453   0.023   0.493   1.614  2.2595 -0.6507  1.1518
 5045SOL     OW15454   5.377   3.109   0.290 -0.3109 -0.0950  0.7229
 5045SOL    HW115455   5.356   3.020   0.251  0.2816  0.4127 -0.8480
 5045SOL    HW215456   5.298   3.143   0.340 -1.2288 -0.6701 -0.2904
 5046SOL     OW15457   2.919   4.443   1.564 -0.1839  0.4203 -0.2692
 5046SOL    HW115458   2.884   4.350   1.576  0.9051 -0.0081 -0.2164
 5046SOL    HW215459   2.855   4.509   1.602 -0.6581 -0.3582  0.3039
 5047SOL     OW15460   3.710   4.586   0.738 -0.3566  0.6539 -0.4666
 5047SOL    HW115461   3.704   4.498   0.692  0.8639  1.1576 -1.6567
 5047SOL    HW215462   3.800   4.595   0.782 -0.7246  1.0388  0.2272
 5048SOL     OW15463   4.976   3.823   0.216  0.1654  0.3958  0.1032
 5048SOL    HW115464   4.945   3.729   0.207 -3.0830  1.0981  2.3396
 5048SOL    HW215465   5.048   3.828   0.285 -1.6649 -0.1982  2.1549
 5049SOL     OW15466   4.001   3.489   1.169 -0.6831  0.4265 -0.2029
 5049SOL    HW115467   3.938   3.420   1.203  0.9407 -1.3390 -0.6419
 5049SOL    HW215468   3.949   3.560   1.120 -2.4480 -0.0717  0.8409
 5050SOL     OW15469   5.247   4.823   1.291  0.0289  0.5545 -0.4774
 5050SOL    HW115470   5.264   4.908   1.241 -0.3972  0.9065 -0.0401
 5050SOL    HW215471   5.293   4.827   1.380  1.5004 -0.4214 -1.1639
 5051SOL     OW15472   4.552   0.148   0.611 -0.2309 -0.0334  0.2725
 5051SOL    HW115473   4.486   0.190   0.549 -1.1522 -0.0124  1.2328
 5051SOL    HW215474   4.634   0.206   0.617 -0.5313  0.4415 -0.1769
 5052SOL     OW15475   5.538   4.478   0.420  0.1433 -0.1840  0.3117
 5052SOL    HW115476   5.551   4.524   0.332  1.7368  0.0172  0.6268
 5052SOL    HW215477   5.624   4.479   0.471 -0.5417 -1.0433  1.5230
 5053SOL     OW15478   3.937   0.031   0.918  0.4441 -0.0298  0.0627
 5053SOL    HW115479   3.906  -0.049   0.866 -2.0908  1.0816 -0.3048
 5053SOL    HW215480   3.880   0.041   1.000  2.7640 -0.3195  1.8106
 5054SOL     OW15481   0.114   4.732   0.755 -0.4547  0.1347 -0.3346
 5054SOL    HW115482   0.037   4.735   0.819 -0.9976 -2.1866 -0.8086
 5054SOL    HW215483   0.081   4.754   0.663 -0.9596 -2.3388 -0.8171
 5055SOL     OW15484   5.102   5.120   0.401 -0.0831 -0.5172 -0.2234
 5055SOL    HW115485   5.037   5.132   0.326  0.0447  2.0524 -0.0349
 5055SOL    HW215486   5.068   5.168   0.482 -0.1874 -3.1491  1.4176
 5056SOL     OW15487   4.536   4.068   4.849 -0.2326  0.4829 -0.1249
 5056SOL    HW115488   4.528   4.042   4.752  2.9199  1.0798 -0.6532
 5056SOL    HW215489   4.632   4.081   4.872 -0.9492  1.1176  2.9481
 5057SOL     OW15490   0.098   5.181   1.759  0.3412  0.1019  0.0085
 5057SOL    HW115491   0.120   5.267   1.806 -0.4464  0.1294  0.3489
 5057SOL    HW215492   0.061   5.116   1.824  1.0703 -0.5573 -0.2257
 5058SOL     OW15493   3.826   0.489   2.801  0.4900 -0.3162  0.1706
 5058SOL    HW115494   3.757   0.424   2.832  0.7388  0.2932  2.1196
 5058SOL    HW215495   3.917   0.450   2.812  0.5706 -0.2769 -0.3075
 5059SOL     OW15496   3.179   0.687   0.633  0.3080 -0.0695 -0.0643
 5059SOL    HW115497   3.240   0.687   0.553 -0.1409  0.2595 -0.4099
 5059SOL    HW215498   3.118   0.765   0.628 -0.2475 -0.4808  0.2063
 5060SOL     OW15499   3.650   4.984   0.400 -0.3840 -0.1844 -0.1537
 5060SOL    HW115500   3.682   4.933   0.320 -1.3366 -1.1457  0.0596
 5060SOL    HW215501   3.681   4.938   0.484 -0.4691  0.1141  0.0433
 5061SOL     OW15502   5.006   4.428   1.405 -0.2094  0.2776 -0.2079
 5061SOL    HW115503   4.987   4.510   1.459 -2.0814  0.8629 -1.6378
 5061SOL    HW215504   5.092   4.440   1.356 -0.3719  1.3188 -0.2595
 5062SOL     OW15505   0.287   3.765   4.155 -0.1420  0.0386 -0.2276
 5062SOL    HW115506   0.344   3.692   4.119 -0.4194 -0.1798 -0.2316
 5062SOL    HW215507   0.208   3.778   4.095 -0.9669 -0.7924  0.6457
 5063SOL     OW15508   4.438   5.438   0.183 -0.0413 -0.1869 -0.0330
 5063SOL    HW115509   4.382   5.476   0.109  0.7681  0.7274 -0.1980
 5063SOL    HW215510   4.390   5.450   0.270 -0.7959 -0.8503 -0.3493
 5064SOL     OW15511   3.344   4.330   1.577  0.1579  0.7192 -0.0703
 5064SOL    HW115512   3.433   4.372   1.557  0.7001 -0.4367 -0.1382
 5064SOL    HW215513   3.353   4.272   1.658  0.1579 -1.5308 -1.6069
 5065SOL     OW15514   3.524   4.159   0.785  0.0167  0.2385  0.3562
 5065SOL    HW115515   3.464   4.099   0.732 -0.0478 -0.7454  1.5080
 5065SOL    HW215516   3.469   4.219   0.843  0.1188  0.3165  0.3739
 5066SOL     OW15517   4.754   3.596   1.766  0.0662  0.5635 -0.1965
 5066SOL    HW115518   4.843   3.558   1.744 -0.3904 -0.2154 -0.7528
 5066SOL    HW215519   4.744   3.686   1.723  1.4674  1.7552  1.7956
 5067SOL     OW15520   3.644   5.023   0.837 -0.1343  0.5250  0.5834
 5067SOL    HW115521   3.693   4.976   0.764  1.3453  1.3311  1.0210
 5067SOL    HW215522   3.557   5.058   0.801 -0.0156 -0.1801 -0.4443
 5068SOL     OW15523   3.370   4.832   0.759 -0.6720 -0.2082 -0.4553
 5068SOL    HW115524   3.373   4.882   0.846 -1.2799 -0.4413 -0.2950
 5068SOL    HW215525   3.410   4.888   0.687  1.1277 -0.5599  0.2327
 5069SOL     OW15526   2.652   5.017   1.356 -0.0316 -0.0407 -0.0131
 5069SOL    HW115527   2.735   5.067   1.331 -0.4084  1.4927  1.6346
 5069SOL    HW215528   2.674   4.921   1.372  1.1920  0.1042 -0.7232
 5070SOL     OW15529   3.872   5.455   5.581  0.4535  0.0481 -0.1629
 5070SOL    HW115530   3.858   5.550   5.606 -0.3416 -0.3806  1.0773
 5070SOL    HW215531   3.788   5.418   5.541  1.0488  0.1092 -1.5568
 5071SOL     OW15532   0.250   5.148   0.349 -0.1255  0.0323  0.4069
 5071SOL    HW115533   0.271   5.241   0.380  3.2917 -0.4786  0.0360
 5071SOL    HW215534   0.232   5.090   0.428  1.3315  0.2864  0.9605
 5072SOL     OW15535   1.044   4.081   0.180 -0.2397  0.3370  0.0978
 5072SOL    HW115536   1.065   4.147   0.108 -0.3716 -2.4931 -2.7475
 5072SOL    HW215537   1.123   4.020   0.193 -1.3415 -1.1797 -0.0096
 5073SOL     OW15538   3.173   4.552   1.611 -0.8335  0.2194 -0.3215
 5073SOL    HW115539   3.084   4.508   1.605 -0.3956 -0.5439 -1.9156
 5073SOL    HW215540   3.245   4.482   1.610 -0.1472  0.8775 -2.1809
 5074SOL     OW15541   4.290   3.778   1.278 -0.0052 -0.1185 -0.1876
 5074SOL    HW115542   4.245   3.863   1.306  0.6166  0.3150 -0.4650
 5074SOL    HW215543   4.240   3.700   1.315 -2.5241  0.1879 -2.5901
 5075SOL     OW15544   0.783   4.180   2.124 -0.2994 -0.7976  0.1785
 5075SOL    HW115545   0.757   4.255   2.185 -2.0539 -1.1568 -0.0573
 5075SOL    HW215546   0.810   4.100   2.177  2.6656  0.2540  0.4505
 5076SOL     OW15547   4.839   3.621   0.496  0.5159 -0.3316 -0.2487
 5076SOL    HW115548   4.884   3.531   0.494  1.0316 -0.0658 -0.7684
 5076SOL    HW215549   4.893   3.683   0.553 -0.4090 -0.6335  1.0195
 5077SOL     OW15550   4.140   4.556   3.724 -0.5845  0.1124 -0.1269
 5077SOL    HW115551   4.057   4.598   3.688 -0.7172 -0.5865 -0.6374
 5077SOL    HW215552   4.155   4.467   3.681  0.8493  0.5664 -0.6429
 5078SOL     OW15553   3.858   5.167   0.738 -0.1703 -0.6525 -0.0474
 5078SOL    HW115554   3.791   5.120   0.796  1.3154 -1.0415  1.4136
 5078SOL    HW215555   3.908   5.100   0.684 -1.2298 -0.3256 -1.4974
 5079SOL     OW15556   5.231   4.360   1.251  0.5675  0.2257  0.1994
 5079SOL    HW115557   5.247   4.330   1.157 -0.5815  0.2505 -0.0230
 5079SOL    HW215558   5.260   4.288   1.315 -1.4056 -1.1108 -0.2957
 5080SOL     OW15559   4.936   4.744   0.026 -0.0712 -0.1647  0.1070
 5080SOL    HW115560   4.976   4.804  -0.044  0.1559  0.5653  0.8445
 5080SOL    HW215561   4.987   4.658   0.030 -0.3691 -0.4030 -0.9275
 5081SOL     OW15562   3.259   4.405   1.203  0.5148  0.3313 -0.3872
 5081SOL    HW115563   3.220   4.433   1.115  0.1383  1.7460  0.2020
 5081SOL    HW215564   3.245   4.478   1.270 -2.5997 -2.1031  1.9155
 5082SOL     OW15565   2.777   5.352   1.781 -0.0759 -0.0357  0.1181
 5082SOL    HW115566   2.837   5.388   1.708  0.2242  0.4710  0.6021
 5082SOL    HW215567   2.798   5.399   1.866  0.3094 -1.3600  0.7814
 5083SOL     OW15568   3.792   4.814   1.280  0.6481 -0.1935  0.3001
 5083SOL    HW115569   3.752   4.727   1.307  1.3448 -0.9930 -1.1726
 5083SOL    HW215570   3.791   4.823   1.181  1.3922  1.0904  0.3780
 5084SOL     OW15571   0.179   5.217   2.307  0.1017 -0.1005  0.4198
 5084SOL    HW115572   0.275   5.242   2.293  0.3078 -1.1223 -0.0822
 5084SOL    HW215573   0.174   5.145   2.376  0.0214 -2.2521 -1.7047
 5085SOL     OW15574   3.504   3.067   0.405  0.1320 -0.0473  0.5175
 5085SOL    HW115575   3.536   3.112   0.322 -1.7081  1.6973  0.6617
 5085SOL    HW215576   3.537   3.116   0.485 -0.8718  0.3567  0.7051
 5086SOL     OW15577   5.431   4.113   5.283  0.1138  0.7315  0.7374
 5086SOL    HW115578   5.357   4.098   5.217 -0.5823  1.0363  1.4342
 5086SOL    HW215579   5.495   4.037   5.280  0.3445  0.9483 -0.6101
 5087SOL     OW15580   4.945   4.609   0.588  0.0092  0.3151 -0.2652
 5087SOL    HW115581   4.888   4.584   0.510  1.0446  0.4733 -1.0942
 5087SOL    HW215582   5.033   4.645   0.555  0.2894  0.8061  0.9675
 5088SOL     OW15583   3.484   4.678   1.482  0.1053 -0.5737 -0.8003
 5088SOL    HW115584   3.446   4.738   1.552 -1.0412 -0.4580 -1.5023
 5088SOL    HW215585   3.522   4.596   1.525 -1.8431 -1.1706 -0.1182
 5089SOL     OW15586   5.444   5.013   2.605 -0.3299 -0.2712  0.1326
 5089SOL    HW115587   5.395   5.094   2.639 -1.1666 -1.3880  1.7685
 5089SOL    HW215588   5.399   4.980   2.522 -0.2526  0.6710 -0.2986
 5090SOL     OW15589   2.962   5.404   2.209 -0.3389  0.0654 -0.0619
 5090SOL    HW115590   3.016   5.487   2.226 -0.3494  0.7038 -2.7614
 5090SOL    HW215591   3.024   5.327   2.195 -0.2334  0.1636 -0.1396
 5091SOL     OW15592   4.598   4.254   5.510 -0.7076  0.0282 -0.7305
 5091SOL    HW115593   4.694   4.279   5.523 -0.6904 -0.2709 -0.2602
 5091SOL    HW215594   4.587   4.211   5.420 -0.2413 -0.6823 -0.4624
 5092SOL     OW15595   4.564   3.912   0.363 -0.5202  0.1109 -0.0405
 5092SOL    HW115596   4.496   3.844   0.389 -1.4709  1.0946  0.1033
 5092SOL    HW215597   4.524   4.004   0.368  0.7352  0.6936 -0.2195
 5093SOL     OW15598   4.224   5.001   1.462  0.3183  0.5558  0.1109
 5093SOL    HW115599   4.207   5.053   1.545  1.0847  0.1236  0.5510
 5093SOL    HW215600   4.313   4.955   1.469 -1.1755 -2.5436  0.6793
 5094SOL     OW15601   4.532   4.367   1.349  0.0732  0.2062 -0.3357
 5094SOL    HW115602   4.557   4.284   1.400 -1.3190 -0.0940 -0.1052
 5094SOL    HW215603   4.598   4.382   1.275  0.6437 -0.8129 -0.0471
 5095SOL     OW15604   3.370   5.245   0.437  0.1292  0.1082  0.6376
 5095SOL    HW115605   3.440   5.261   0.366  0.2138 -0.1290  0.6666
 5095SOL    HW215606   3.384   5.309   0.512 -0.5095  0.9789  0.0435
 5096SOL     OW15607   3.956   0.154   2.682  0.1868 -0.1423  0.4668
 5096SOL    HW115608   3.971   0.062   2.645 -0.1675 -0.5376  1.2753
 5096SOL    HW215609   3.860   0.163   2.711 -0.6746  1.5382 -2.4405
 5097SOL     OW15610   3.827   4.104   1.527 -0.8048  0.7835 -0.9452
 5097SOL    HW115611   3.870   4.060   1.606  0.6785  1.0554 -1.5589
 5097SOL    HW215612   3.850   4.201   1.526  0.0272  0.6037 -2.2138
 5098SOL     OW15613   4.443   4.561   0.215 -0.3599 -0.2262 -0.4898
 5098SOL    HW115614   4.520   4.613   0.177 -1.0840  1.2497 -0.0190
 5098SOL    HW215615   4.445   4.468   0.180  1.5727 -0.1860 -0.5855
 5099SOL     OW15616   4.199   5.443   1.673  0.3228 -0.2831 -0.1213
 5099SOL    HW115617   4.104   5.415   1.657  0.3802 -0.6949  0.2373
 5099SOL    HW215618   4.211   5.537   1.641 -0.4842  0.1445  0.7723
 5100SOL     OW15619   3.765   0.260   0.637 -0.0315  0.5012  0.1792
 5100SOL    HW115620   3.696   0.217   0.697 -2.1136  0.7770 -1.8658
 5100SOL    HW215621   3.741   0.356   0.624  0.5369  0.5144 -0.8421
 5101SOL     OW15622   4.682   4.367   1.128  0.0398 -0.0652 -0.5097
 5101SOL    HW115623   4.680   4.400   1.033  1.9892  1.4575 -0.0982
 5101SOL    HW215624   4.766   4.315   1.143 -0.1431 -0.1015  0.4404
 5102SOL     OW15625   2.826   4.399   0.180 -0.2780 -0.7049  0.1163
 5102SOL    HW115626   2.833   4.311   0.227 -0.3452 -1.3787 -1.0870
 5102SOL    HW215627   2.775   4.464   0.237 -0.9651 -1.7072  0.6705
 5103SOL     OW15628   3.948   3.344   1.761 -0.2258  0.3211  0.3782
 5103SOL    HW115629   4.027   3.398   1.790 -0.3468  0.8697 -0.3176
 5103SOL    HW215630   3.864   3.388   1.792 -0.2751 -0.1930  1.0002
 5104SOL     OW15631   5.181   4.360   2.065  0.1852  0.4511 -0.0642
 5104SOL    HW115632   5.087   4.395   2.073  0.2585  1.0804 -1.6123
 5104SOL    HW215633   5.179   4.260   2.069 -0.7409  0.3818 -1.5744
 5105SOL     OW15634   4.641   4.932   5.445 -0.0315 -0.0377 -0.6076
 5105SOL    HW115635   4.606   4.862   5.506 -1.8403  0.3743 -1.1115
 5105SOL    HW215636   4.689   5.002   5.498 -0.1669 -0.5152  0.1557
 5106SOL     OW15637   5.172   4.183   5.222  0.0364  0.1452 -0.0163
 5106SOL    HW115638   5.083   4.228   5.223 -0.0494 -0.0237  0.6896
 5106SOL    HW215639   5.219   4.201   5.309  1.4178  1.6601 -1.0034
 5107SOL     OW15640   4.492   1.127   2.160 -0.2534 -0.5554 -0.3450
 5107SOL    HW115641   4.519   1.223   2.150 -1.6239  0.0353  1.1526
 5107SOL    HW215642   4.528   1.074   2.083 -0.3364  1.3433 -1.7669
 5108SOL     OW15643   0.619   4.189   5.372  0.0027  0.1703 -0.2894
 5108SOL    HW115644   0.536   4.232   5.407 -0.6966 -0.9876 -0.4828
 5108SOL    HW215645   0.697   4.216   5.429 -0.5046  1.2036 -0.0607
 5109SOL     OW15646   3.164   5.050   1.453  0.5389 -0.1460 -0.5781
 5109SOL    HW115647   3.242   5.035   1.392  0.8387  0.5750 -0.3903
 5109SOL    HW215648   3.081   5.060   1.399  0.8975  1.1382 -0.9431
 5110SOL     OW15649   3.467   0.191   0.987  0.1208 -0.5134 -0.0350
 5110SOL    HW115650   3.400   0.124   0.954  0.7617 -0.8519 -0.6512
 5110SOL    HW215651   3.487   0.257   0.915  1.5853 -1.2993 -0.3707
 5111SOL     OW15652   4.012   4.932   0.893 -0.5894 -1.1636 -0.1597
 5111SOL    HW115653   4.087   4.879   0.933  0.1849 -1.0355 -1.3977
 5111SOL    HW215654   4.035   5.029   0.896 -0.7467 -1.1173 -0.4698
 5112SOL     OW15655   2.674   4.249   1.589 -0.3871  0.3114  0.4080
 5112SOL    HW115656   2.583   4.277   1.561 -0.2890 -1.4413 -1.9178
 5112SOL    HW215657   2.678   4.245   1.689 -3.1441 -0.4525  0.5588
 5113SOL     OW15658   4.809  -0.014   5.444 -0.3390  0.1983  0.4605
 5113SOL    HW115659   4.711   0.001   5.430 -0.3312  0.3649  0.5866
 5113SOL    HW215660   4.860   0.017   5.363 -0.6050 -2.4988 -0.8726
 5114SOL     OW15661   0.868   4.955   2.054 -0.3302  0.5494  0.1478
 5114SOL    HW115662   0.782   4.931   2.008  0.1651 -1.2648  0.0741
 5114SOL    HW215663   0.861   4.934   2.151 -0.1009  0.7908  0.2183
 5115SOL     OW15664   5.106   4.603   1.022  0.4323  0.0527 -0.0945
 5115SOL    HW115665   5.065   4.619   1.112  0.6525  1.2733 -0.1963
 5115SOL    HW215666   5.053   4.534   0.973 -1.6745  1.7290 -0.3060
 5116SOL     OW15667   2.696   4.368   0.857  0.5858 -0.5679 -0.3448
 5116SOL    HW115668   2.614   4.413   0.893  1.0339  0.0181 -0.0478
 5116SOL    HW215669   2.719   4.409   0.768  2.2581  1.3903  0.8927
 5117SOL     OW15670   4.162   5.220   0.896 -0.2797  0.0054  0.4722
 5117SOL    HW115671   4.253   5.180   0.881  0.8501  2.6043 -0.2806
 5117SOL    HW215672   4.125   5.250   0.808 -0.1873  2.2205  1.1257
 5118SOL     OW15673   2.933   3.409   5.182  0.1455 -0.2123 -0.4844
 5118SOL    HW115674   2.875   3.334   5.150 -0.0249  0.9790 -3.2624
 5118SOL    HW215675   2.875   3.485   5.211  0.1853  0.8658 -2.9781
 5119SOL     OW15676   0.299   3.119   0.123 -0.2203  0.0114  0.0160
 5119SOL    HW115677   0.231   3.049   0.145 -0.5873  0.2301 -0.4247
 5119SOL    HW215678   0.269   3.171   0.043  0.5340  0.0117 -0.2743
 5120SOL     OW15679   0.369   4.856   0.822  0.2894 -0.2793  0.2091
 5120SOL    HW115680   0.272   4.833   0.814  0.4255 -0.7180 -0.3404
 5120SOL    HW215681   0.380   4.944   0.867 -0.3726 -0.1170  0.0567
 5121SOL     OW15682   3.854   5.275   2.931 -0.0999 -0.2939  0.5009
 5121SOL    HW115683   3.933   5.216   2.919 -0.7431 -1.2119  0.6224
 5121SOL    HW215684   3.882   5.361   2.973  0.8076 -0.6666  0.6817
 5122SOL     OW15685   4.607   0.444   0.791  0.2901 -0.1218  0.2811
 5122SOL    HW115686   4.671   0.398   0.729  0.1780  1.2663 -0.8961
 5122SOL    HW215687   4.515   0.439   0.754  0.0819 -0.0248  0.7758
 5123SOL     OW15688   5.105   4.064   2.064  0.0884 -0.1556  0.1226
 5123SOL    HW115689   5.079   4.073   1.967 -0.1389 -0.6240  0.1358
 5123SOL    HW215690   5.158   3.980   2.076  0.1729 -0.0611  0.3918
 5124SOL     OW15691   4.353   0.732   5.050  0.1810 -0.2545 -0.0780
 5124SOL    HW115692   4.369   0.687   5.138 -1.1249 -0.4985  0.0524
 5124SOL    HW215693   4.319   0.664   4.985 -1.1763  0.3921 -0.0684
 5125SOL     OW15694   4.622   5.149   0.984  0.5705  0.3080 -0.3934
 5125SOL    HW115695   4.685   5.210   0.935 -0.3762  3.2038  1.7339
 5125SOL    HW215696   4.671   5.103   1.058  0.8740 -0.0578 -0.8153
 5126SOL     OW15697   0.713   4.364   0.997 -0.2281 -0.5303  0.5375
 5126SOL    HW115698   0.679   4.439   0.940  0.4028 -2.4188 -2.5669
 5126SOL    HW215699   0.640   4.299   1.015 -0.7615  0.6677  3.1847
 5127SOL     OW15700   4.866   4.355   5.530 -0.2475  0.2327  0.2624
 5127SOL    HW115701   4.931   4.404   5.588 -0.8493 -0.8517  1.9313
 5127SOL    HW215702   4.889   4.258   5.530 -0.7749  0.0967 -0.6550
 5128SOL     OW15703   0.389   4.909   0.528 -0.1914  0.2644  0.5276
 5128SOL    HW115704   0.315   4.861   0.481  0.4885  0.3922 -0.7134
 5128SOL    HW215705   0.374   4.905   0.627 -0.1666 -2.5414  0.5043
 5129SOL     OW15706   3.109   0.146   1.169  0.0911 -0.4969  0.1551
 5129SOL    HW115707   3.161   0.173   1.250 -0.3800  0.6643  0.0956
 5129SOL    HW215708   3.124   0.049   1.150  1.3895 -0.4310  0.7493
 5130SOL     OW15709   5.543   4.132   1.539  0.5356  0.3856  0.2953
 5130SOL    HW115710   5.587   4.182   1.464 -1.3447  0.9226 -0.4954
 5130SOL    HW215711   5.539   4.191   1.620 -0.7238  1.1722 -0.3162
 5131SOL     OW15712   1.329   5.092   0.813  0.1673 -0.0666  0.6480
 5131SOL    HW115713   1.231   5.078   0.822  0.3798 -2.0831  0.1926
 5131SOL    HW215714   1.349   5.190   0.819 -1.8427  0.3772  0.8052
 5132SOL     OW15715   3.977   5.006   0.578 -1.3171 -0.2139  0.1985
 5132SOL    HW115716   3.988   5.029   0.481 -0.6807 -2.8085 -0.4242
 5132SOL    HW215717   4.063   4.968   0.613 -0.9443  2.3553  2.3573
 5133SOL     OW15718   4.869   4.216   1.515 -0.2742 -0.0713 -0.1059
 5133SOL    HW115719   4.906   4.298   1.472  1.8383 -0.2051  1.2953
 5133SOL    HW215720   4.901   4.135   1.466 -0.1212 -0.1379  0.1032
 5134SOL     OW15721   0.425   4.835   1.512  0.0459  0.0820 -0.1833
 5134SOL    HW115722   0.453   4.807   1.603  0.1233  0.9311  0.0627
 5134SOL    HW215723   0.345   4.782   1.484 -0.3293  0.2066  0.6142
 5135SOL     OW15724   5.200   3.885   0.350 -0.1260  0.4119  0.2029
 5135SOL    HW115725   5.183   3.972   0.395 -0.5559  0.0764  0.6943
 5135SOL    HW215726   5.291   3.852   0.375  0.4996  1.2553 -0.8757
 5136SOL     OW15727   3.415   5.319   1.255 -0.2937  0.1506 -0.4296
 5136SOL    HW115728   3.475   5.350   1.181  0.7183 -0.1663  0.2381
 5136SOL    HW215729   3.436   5.224   1.277  0.0737  0.5106  0.8869
 5137SOL     OW15730   5.475   4.287   1.748  0.0550  0.3057  0.0189
 5137SOL    HW115731   5.375   4.294   1.741 -0.0431 -0.7261  0.2312
 5137SOL    HW215732   5.512   4.376   1.775 -0.7542  0.8304 -0.5328
 5138SOL     OW15733   3.383   0.790   0.892 -0.2784  0.5193  0.2341
 5138SOL    HW115734   3.326   0.741   0.958 -0.4595  1.7346  1.0041
 5138SOL    HW215735   3.337   0.874   0.865  0.6881  0.9953  0.0499
 5139SOL     OW15736   3.060   0.374   1.073 -0.3179 -0.0836 -0.4842
 5139SOL    HW115737   3.087   0.282   1.102  0.7713  0.5494  0.6069
 5139SOL    HW215738   2.989   0.368   1.003  0.4295 -1.7618 -1.1378
 5140SOL     OW15739   0.218   4.529   2.439 -0.2554  0.0556  0.2027
 5140SOL    HW115740   0.215   4.465   2.363 -0.8805  0.3771 -0.0536
 5140SOL    HW215741   0.227   4.478   2.525  0.5049 -0.3017 -0.0846
 5141SOL     OW15742   2.905   5.007   3.395 -0.1466 -0.2567  0.2358
 5141SOL    HW115743   2.991   5.036   3.436 -0.2160  1.4568 -0.7244
 5141SOL    HW215744   2.895   5.050   3.305 -1.6066 -1.1215 -0.0461
 5142SOL     OW15745   3.459   4.562   0.813  0.0118  0.6133  0.1795
 5142SOL    HW115746   3.558   4.573   0.823  0.5288  2.5367 -4.3268
 5142SOL    HW215747   3.416   4.652   0.813 -1.5619 -0.1109  0.5427
 5143SOL     OW15748   2.924   2.477   1.070  0.2181 -0.4291  0.0968
 5143SOL    HW115749   2.968   2.566   1.065 -1.4485  0.5599  1.5907
 5143SOL    HW215750   2.918   2.437   0.979 -1.2602  2.1743 -1.0571
 5144SOL     OW15751   5.570   5.335   0.407 -0.1621 -0.0864  0.0844
 5144SOL    HW115752   5.503   5.265   0.383 -0.2113  0.1411 -0.4570
 5144SOL    HW215753   5.647   5.292   0.454 -1.1699 -0.1928  1.6830
 5145SOL     OW15754   3.173   4.808   2.341  0.3451 -0.2501  0.3252
 5145SOL    HW115755   3.236   4.825   2.265 -0.4939 -2.3279 -0.9340
 5145SOL    HW215756   3.094   4.756   2.308  1.5562 -4.4047  3.1021
 5146SOL     OW15757   0.224   0.705   1.490 -0.0406  0.0935 -0.3580
 5146SOL    HW115758   0.296   0.686   1.557 -0.3801  2.5028  0.8026
 5146SOL    HW215759   0.177   0.789   1.514 -1.8976 -0.2903 -2.2688
 5147SOL     OW15760   5.294   4.155   1.436 -0.2542 -0.3561 -0.8894
 5147SOL    HW115761   5.380   4.127   1.478 -0.2386 -1.6510 -1.7269
 5147SOL    HW215762   5.251   4.226   1.492  0.8404 -0.4436  0.0971
 5148SOL     OW15763   0.457   3.582   1.166 -0.3591 -0.5022  0.4576
 5148SOL    HW115764   0.392   3.512   1.193  0.7730 -1.3387  1.0892
 5148SOL    HW215765   0.542   3.539   1.135 -0.1421  0.5544 -0.4960
 5149SOL     OW15766   3.946   5.558   1.255 -0.2298  0.2231 -0.5753
 5149SOL    HW115767   3.896   5.602   1.181 -1.5791 -1.0994 -0.5178
 5149SOL    HW215768   3.966   5.463   1.230  2.1306  0.6313 -0.4993
 5150SOL     OW15769   3.274   5.226   1.821 -0.6031 -0.0300 -0.0464
 5150SOL    HW115770   3.305   5.235   1.916 -0.6824 -0.3327  0.0096
 5150SOL    HW215771   3.338   5.169   1.770 -1.2941 -1.0447  0.1864
 5151SOL     OW15772   3.212   4.467   0.031 -0.3262 -0.0114 -0.0300
 5151SOL    HW115773   3.183   4.545   0.088 -0.4121 -0.6151  0.7612
 5151SOL    HW215774   3.311   4.462   0.029 -0.3301 -0.5109  0.7934
 5152SOL     OW15775   3.626   0.479   0.353  0.4889  0.4369  0.2450
 5152SOL    HW115776   3.572   0.413   0.300  0.0292  0.0099  1.2295
 5152SOL    HW215777   3.592   0.571   0.337 -0.7735  0.1398  1.1163
 5153SOL     OW15778   4.719   3.003   1.510  0.1206 -0.6202 -0.1781
 5153SOL    HW115779   4.683   3.054   1.587  0.0213 -0.8952 -0.0405
 5153SOL    HW215780   4.713   3.058   1.427 -1.2216 -0.8934 -0.2825
 5154SOL     OW15781   5.461   4.068   1.972  0.3199  0.3188  0.2636
 5154SOL    HW115782   5.489   4.103   1.883 -0.3850  0.9090  0.2704
 5154SOL    HW215783   5.478   4.138   2.042 -1.1553  0.7075  0.2684
 5155SOL     OW15784   5.228   0.478   5.477  0.2606 -0.0014 -0.1546
 5155SOL    HW115785   5.272   0.401   5.524 -1.3703 -1.6286 -1.1490
 5155SOL    HW215786   5.218   0.554   5.542  0.2616 -1.2839  1.4337
 5156SOL     OW15787   3.819   5.183   1.504  0.0316 -0.1806 -0.5078
 5156SOL    HW115788   3.730   5.137   1.502 -0.5938  0.9798 -0.4259
 5156SOL    HW215789   3.861   5.178   1.413  0.2334 -1.3719 -0.3627
 5157SOL     OW15790   3.727   4.867   0.165 -0.3072 -0.2673  0.0711
 5157SOL    HW115791   3.642   4.838   0.121 -0.5593  0.8804 -0.2337
 5157SOL    HW215792   3.797   4.883   0.095 -0.1223 -0.3112  0.2443
 5158SOL     OW15793   5.238   5.200   1.472  0.9049  0.0034  0.1730
 5158SOL    HW115794   5.171   5.268   1.441  0.1002 -1.7156 -2.2095
 5158SOL    HW215795   5.296   5.173   1.395  0.4910 -2.7234  0.7081
 5159SOL     OW15796   5.206   4.813   1.570  0.0162  0.5596 -0.1147
 5159SOL    HW115797   5.243   4.722   1.591  0.2881  0.7554  0.2491
 5159SOL    HW215798   5.248   4.881   1.629  1.8222  1.3274 -2.1758
 5160SOL     OW15799   3.052   0.210   2.128 -0.1890 -0.3451  0.2284
 5160SOL    HW115800   3.089   0.299   2.152 -0.5979  0.1675 -0.9407
 5160SOL    HW215801   3.125   0.142   2.129  0.6376  0.4724 -1.2041
 5161SOL     OW15802   2.909   4.161   0.317  0.1454  0.3202 -0.4744
 5161SOL    HW115803   2.879   4.070   0.288  1.9865 -0.3537 -0.4175
 5161SOL    HW215804   2.982   4.193   0.256  2.1082  0.1176  1.6174
 5162SOL     OW15805   2.477   4.021   1.834  0.0794 -0.0098  0.1781
 5162SOL    HW115806   2.446   3.950   1.897 -0.7849 -0.6521 -0.9285
 5162SOL    HW215807   2.451   4.110   1.870 -0.0943 -0.3357  0.8905
 5163SOL     OW15808   0.613   3.531   1.492 -0.5896  0.1172  0.6878
 5163SOL    HW115809   0.521   3.508   1.526 -0.5066  0.7935  1.3929
 5163SOL    HW215810   0.607   3.609   1.430 -0.5917 -0.3675  0.0749
 5164SOL     OW15811   4.411   2.878   0.390  0.2083  0.1215  0.5982
 5164SOL    HW115812   4.441   2.972   0.405 -1.0046  0.2414  2.6590
 5164SOL    HW215813   4.477   2.814   0.431 -0.1533  0.1944  1.3059
 5165SOL     OW15814   4.880   0.056   2.523 -0.6727  0.0982 -0.3858
 5165SOL    HW115815   4.897  -0.033   2.481  0.9205 -0.0174  0.3939
 5165SOL    HW215816   4.836   0.043   2.612  1.3777 -0.1140  0.6622
 5166SOL     OW15817   0.560   3.749   1.343 -0.0201  0.3491  0.3014
 5166SOL    HW115818   0.535   3.680   1.275 -0.3758  1.1070 -0.3524
 5166SOL    HW215819   0.482   3.811   1.357 -0.1888 -0.1585  1.8747
 5167SOL     OW15820   5.026   4.978   0.801 -0.4623  0.3552  0.7092
 5167SOL    HW115821   5.104   4.916   0.816 -0.4427 -0.2085 -1.3851
 5167SOL    HW215822   4.970   4.942   0.727 -1.1622  2.2348  0.2955
 5168SOL     OW15823   0.473   3.739   0.746  0.3405 -0.4790  0.5762
 5168SOL    HW115824   0.546   3.799   0.780 -1.8861  1.4782  2.3234
 5168SOL    HW215825   0.431   3.692   0.823 -1.9851  0.6193  0.0780
 5169SOL     OW15826   4.752   3.113   0.075  0.0163  0.3378  0.4466
 5169SOL    HW115827   4.689   3.037   0.059  0.6388 -0.7083  2.6206
 5169SOL    HW215828   4.793   3.104   0.166  0.2624  3.1858  0.7146
 5170SOL     OW15829   4.600   5.479   1.046 -0.1217  0.8139  0.0888
 5170SOL    HW115830   4.569   5.548   0.981  1.0063  1.9152  0.6855
 5170SOL    HW215831   4.520   5.437   1.090 -0.8284  1.9035 -0.1147
 5171SOL     OW15832   3.742   4.853   0.635  0.5583  0.4221  0.6189
 5171SOL    HW115833   3.836   4.887   0.637  0.1586  1.5861  2.7637
 5171SOL    HW215834   3.743   4.754   0.644  1.5945  0.3294 -0.2657
 5172SOL     OW15835   0.442   4.240   4.996  0.2057  0.6806 -0.1399
 5172SOL    HW115836   0.473   4.145   4.989  0.4711  0.8430 -1.5377
 5172SOL    HW215837   0.496   4.288   5.065  1.1908  0.2281 -0.5749
 5173SOL     OW15838   4.922   4.236   1.183  0.0110  0.3863 -0.8030
 5173SOL    HW115839   4.953   4.298   1.255 -1.5450  1.0103 -0.6461
 5173SOL    HW215840   4.969   4.148   1.193  2.2043  1.4779 -0.9902
 5174SOL     OW15841   4.879   4.287   0.326  0.2968 -0.2926  0.4261
 5174SOL    HW115842   4.820   4.253   0.399 -0.1505 -0.9758 -0.2292
 5174SOL    HW215843   4.910   4.210   0.270  1.8641  0.0435  0.7748
 5175SOL     OW15844   2.995   4.133   5.046  0.2418 -0.4832  0.0528
 5175SOL    HW115845   3.061   4.058   5.040 -0.1317 -0.8130  0.0222
 5175SOL    HW215846   3.043   4.218   5.066  0.5564 -0.9157  1.1861
 5176SOL     OW15847   4.739   0.099   0.264 -0.2212  0.4590 -0.2346
 5176SOL    HW115848   4.722   0.007   0.301 -0.2125  0.3337 -0.5354
 5176SOL    HW215849   4.825   0.134   0.300 -0.6237  0.6882  0.5243
 5177SOL     OW15850   3.082   5.123   2.164 -0.3406  0.3996  0.5556
 5177SOL    HW115851   3.037   5.161   2.084 -1.3338 -0.3853  0.7137
 5177SOL    HW215852   3.148   5.054   2.136 -1.5022 -0.7057  0.4197
 5178SOL     OW15853   4.445   4.334   2.789  0.5021  0.7342 -0.1807
 5178SOL    HW115854   4.487   4.372   2.871  2.6041 -0.5464 -0.6115
 5178SOL    HW215855   4.500   4.258   2.755 -1.7433 -0.5030 -1.2801
 5179SOL     OW15856   3.318   3.979   1.531 -0.0152  0.2537 -0.4249
 5179SOL    HW115857   3.404   4.028   1.549 -0.4675  0.9841 -0.2072
 5179SOL    HW215858   3.305   3.970   1.433 -0.0382  0.7793 -0.4727
 5180SOL     OW15859   3.742   0.032   3.970 -0.0421 -0.1647  0.5540
 5180SOL    HW115860   3.836   0.027   4.005 -0.2585 -0.4251  1.1209
 5180SOL    HW215861   3.685   0.080   4.037 -0.4880 -0.7563  0.6044
 5181SOL     OW15862   0.484   4.850   2.351  0.7028 -0.0127  0.2151
 5181SOL    HW115863   0.584   4.844   2.356  0.7919  1.3041  0.2306
 5181SOL    HW215864   0.444   4.795   2.425  1.4171 -0.2574  0.4333
 5182SOL     OW15865   5.318   4.427   2.493 -0.6976 -0.0769  0.0337
 5182SOL    HW115866   5.258   4.412   2.571 -0.8860 -0.5037 -0.1892
 5182SOL    HW215867   5.402   4.472   2.523  0.1011 -2.0251  0.8129
 5183SOL     OW15868   5.551   5.248   3.472 -0.3490 -0.1594  0.0515
 5183SOL    HW115869   5.612   5.198   3.534  0.7591 -2.2806 -2.5389
 5183SOL    HW215870   5.467   5.195   3.459 -0.6576  0.3678 -0.1088
 5184SOL     OW15871   4.892   5.332   3.834 -0.4529 -0.0750 -0.0355
 5184SOL    HW115872   4.939   5.322   3.922  1.2265  1.2492 -0.7204
 5184SOL    HW215873   4.865   5.242   3.801 -0.4286 -0.6653  1.4713
 5185SOL     OW15874   4.978   2.680   3.297  0.9024 -0.0229 -0.3223
 5185SOL    HW115875   4.946   2.719   3.383  0.0582 -0.4934 -0.4105
 5185SOL    HW215876   4.963   2.581   3.298  1.8802 -0.1853 -0.5903
 5186SOL     OW15877   3.814   4.316   1.780 -0.0566 -0.6346  0.6040
 5186SOL    HW115878   3.816   4.348   1.686 -2.6028  1.8926  1.2729
 5186SOL    HW215879   3.893   4.257   1.797  1.4290  0.2401 -2.5717
 5187SOL     OW15880   2.834   0.328   3.503  0.0288  0.3307  0.2936
 5187SOL    HW115881   2.842   0.301   3.407 -0.0791  0.6390  0.1995
 5187SOL    HW215882   2.745   0.299   3.538  0.2967 -0.3156  0.4732
 5188SOL     OW15883   3.544   4.091   3.314 -0.0083  0.0915  0.1296
 5188SOL    HW115884   3.617   4.028   3.337 -1.0639 -1.1321  0.2295
 5188SOL    HW215885   3.547   4.170   3.376  1.1060 -0.0134  0.2277
 5189SOL     OW15886   4.601   0.697   4.280  0.0963 -0.0120  0.3877
 5189SOL    HW115887   4.598   0.694   4.180 -0.1367 -1.5283  0.4192
 5189SOL    HW215888   4.667   0.631   4.313  0.2222  0.5365  1.2444
 5190SOL     OW15889   3.600   4.477   1.639  0.4024 -0.0023 -0.1373
 5190SOL    HW115890   3.579   4.419   1.718 -1.4233  0.6530 -0.0999
 5190SOL    HW215891   3.698   4.499   1.639  0.6106 -0.7732  1.4026
 5191SOL     OW15892   4.943   4.454   2.127 -0.2293  0.4368 -0.0047
 5191SOL    HW115893   4.896   4.426   2.211  0.3012 -0.4921 -0.0078
 5191SOL    HW215894   4.900   4.537   2.091 -1.6166 -0.1658  0.2021
 5192SOL     OW15895   2.821   0.557   3.227 -0.4319  0.1362 -0.0710
 5192SOL    HW115896   2.915   0.526   3.217 -0.7761 -1.1866  0.5642
 5192SOL    HW215897   2.810   0.598   3.318 -0.9115 -1.4555  0.6148
 5193SOL     OW15898   4.971   4.940   4.906  0.3558  0.0979  0.0571
 5193SOL    HW115899   4.874   4.923   4.888 -0.0763  0.0179  2.1603
 5193SOL    HW215900   4.993   5.035   4.886 -0.3561  0.3070  0.2447
 5194SOL     OW15901   4.978   5.054   2.000  0.4133 -0.2903  0.3652
 5194SOL    HW115902   4.912   5.118   1.960 -1.3459 -1.2733  1.5404
 5194SOL    HW215903   5.062   5.055   1.946  0.1849  2.4193 -0.0959
 5195SOL     OW15904   4.809   4.675   2.025  0.0734 -0.4932 -0.3482
 5195SOL    HW115905   4.718   4.636   2.012  0.5366 -1.7261 -0.0265
 5195SOL    HW215906   4.801   4.771   2.051 -1.1060 -0.3994 -1.0237
 5196SOL     OW15907   4.093   0.089   3.205  0.1420 -0.2896  0.1169
 5196SOL    HW115908   4.054   0.051   3.289 -1.8847  0.1022 -0.5992
 5196SOL    HW215909   4.080   0.188   3.204 -0.7433 -0.4015 -1.0747
 5197SOL     OW15910   5.140   4.546   2.323  0.0891  0.1412  0.2030
 5197SOL    HW115911   5.188   4.480   2.382  1.1543  1.3932  0.8039
 5197SOL    HW215912   5.103   4.499   2.243 -0.8684 -1.5111  1.5492
 5198SOL     OW15913   0.115   3.782   3.957  0.8777  0.1781  0.1898
 5198SOL    HW115914   0.063   3.714   3.905  1.2413 -1.3798  1.7646
 5198SOL    HW215915   0.173   3.834   3.895 -0.5149  0.0912 -1.2576
 5199SOL     OW15916   3.856   4.256   3.096  0.1862 -0.2453  0.3697
 5199SOL    HW115917   3.927   4.186   3.102  0.1936 -0.6960 -2.8450
 5199SOL    HW215918   3.770   4.214   3.067  0.1707  0.9776 -1.5637
 5200SOL     OW15919   0.683   5.388   1.825  0.3916  0.2635 -0.0147
 5200SOL    HW115920   0.676   5.482   1.858  0.5365  0.7444 -1.3023
 5200SOL    HW215921   0.605   5.369   1.764 -0.9111 -1.2099  1.9984
 5201SOL     OW15922   4.047   5.089   2.843 -0.1120  0.0320  0.1520
 5201SOL    HW115923   4.005   5.009   2.886 -0.7183  1.1113  1.6376
 5201SOL    HW215924   4.112   5.058   2.773  1.8741 -1.8688  2.6395
 5202SOL     OW15925   5.054   5.229   2.213  0.4691  0.6806  0.0694
 5202SOL    HW115926   5.124   5.198   2.277 -1.7860 -1.9488  1.5138
 5202SOL    HW215927   5.051   5.168   2.134 -0.9105 -0.0331  0.6283
 5203SOL     OW15928   0.162   4.759   2.774 -0.6509 -0.7641 -0.0238
 5203SOL    HW115929   0.245   4.783   2.724 -1.0674 -2.1033 -1.4273
 5203SOL    HW215930   0.097   4.835   2.767 -0.5208 -0.7378 -1.1500
 5204SOL     OW15931   4.642   4.425   3.254  0.2030  0.2941  0.2185
 5204SOL    HW115932   4.705   4.392   3.323 -0.8114  1.0082  1.5409
 5204SOL    HW215933   4.555   4.450   3.297 -1.3218 -1.4281 -1.6143
 5205SOL     OW15934   5.142   5.040   3.829  0.0848 -0.0827  0.3173
 5205SOL    HW115935   5.095   5.097   3.762 -1.4916 -0.9686  0.5963
 5205SOL    HW215936   5.082   5.027   3.909 -0.0259 -2.7867 -0.0948
 5206SOL     OW15937   5.376   5.002   4.066 -0.1270  0.1757  0.2211
 5206SOL    HW115938   5.386   4.920   4.009  1.2490  0.2055  0.3860
 5206SOL    HW215939   5.423   4.988   4.153 -0.2271  0.9880  0.4136
 5207SOL     OW15940   3.748   3.491   1.952  0.1120  0.8913  0.1912
 5207SOL    HW115941   3.777   3.581   1.921  1.1508  0.1205 -1.1934
 5207SOL    HW215942   3.767   3.482   2.050 -2.3286  3.0212  0.9773
 5208SOL     OW15943   4.310   4.846   3.060 -0.0595 -0.3804  0.2236
 5208SOL    HW115944   4.289   4.762   3.010  1.0405 -0.7016  0.2656
 5208SOL    HW215945   4.403   4.839   3.097  0.1164  0.9518  0.0492
 5209SOL     OW15946   0.288   4.281   1.595 -0.1580 -0.4406  0.1950
 5209SOL    HW115947   0.270   4.376   1.620 -2.1441 -0.5122 -0.7338
 5209SOL    HW215948   0.276   4.223   1.676 -1.1104 -0.1113  0.3023
 5210SOL     OW15949   4.240   1.288   2.973  0.2631  0.6688  0.5692
 5210SOL    HW115950   4.170   1.336   2.920  0.1041  1.0590  1.1180
 5210SOL    HW215951   4.258   1.338   3.058  1.1878  0.5496  0.4551
 5211SOL     OW15952   4.117   3.838   4.119 -0.0763  0.9306 -0.0065
 5211SOL    HW115953   4.122   3.751   4.070 -1.1208  0.3037  0.9543
 5211SOL    HW215954   4.123   3.914   4.054  3.1950  0.2433 -0.6905
 5212SOL     OW15955   5.281   0.275   2.653 -0.1946 -0.0539  0.1585
 5212SOL    HW115956   5.288   0.228   2.564 -1.2395 -1.4770  0.7817
 5212SOL    HW215957   5.353   0.344   2.660  0.4706 -0.5355 -1.4304
 5213SOL     OW15958   0.383   4.955   3.104  0.0435 -0.3925 -0.4477
 5213SOL    HW115959   0.323   4.881   3.072 -1.8457  0.9835 -0.2623
 5213SOL    HW215960   0.395   4.948   3.203  1.5822 -1.6155 -0.6927
 5214SOL     OW15961   4.335   5.516   2.841  0.1786 -0.2448 -0.1310
 5214SOL    HW115962   4.260   5.467   2.797  1.4992 -0.4792 -2.2565
 5214SOL    HW215963   4.400   5.547   2.771  1.1721  1.4926  1.4811
 5215SOL     OW15964   4.822   5.353   2.808 -0.1413  0.3196 -0.4679
 5215SOL    HW115965   4.838   5.319   2.901 -0.2515  0.9631 -0.2138
 5215SOL    HW215966   4.748   5.299   2.766 -1.6617  1.4578  0.6271
 5216SOL     OW15967   0.471   5.179   2.279 -0.4528 -0.3918  0.0019
 5216SOL    HW115968   0.540   5.232   2.329  0.4700  0.2953 -1.9264
 5216SOL    HW215969   0.487   5.081   2.295  0.5248 -0.2211  0.1346
 5217SOL     OW15970   4.260   4.008   1.683 -0.0241 -0.0992 -0.2589
 5217SOL    HW115971   4.310   3.926   1.712 -0.4876 -0.0003  0.8665
 5217SOL    HW215972   4.304   4.088   1.723 -1.1494 -0.0221  0.8806
 5218SOL     OW15973   0.776   3.567   3.741  0.6045  0.3201  0.2593
 5218SOL    HW115974   0.748   3.523   3.827 -0.4458 -0.6864 -0.5461
 5218SOL    HW215975   0.874   3.582   3.741  1.1424 -2.6148  0.3899
 5219SOL     OW15976   3.997   4.007   1.724 -0.4360 -0.2159 -0.0281
 5219SOL    HW115977   3.969   3.984   1.817 -2.8659  2.2471 -0.0041
 5219SOL    HW215978   4.097   4.012   1.720 -0.1959 -1.8927  1.9919
 5220SOL     OW15979   4.985   3.302   3.404 -0.0095  0.1427 -0.4240
 5220SOL    HW115980   4.887   3.301   3.388 -0.1369  2.7613 -0.1865
 5220SOL    HW215981   5.031   3.250   3.332 -1.5686 -1.7902 -0.1104
 5221SOL     OW15982   3.578   4.040   1.607 -0.1519  0.3949 -0.6830
 5221SOL    HW115983   3.665   4.058   1.561 -0.5062 -1.7713 -2.3619
 5221SOL    HW215984   3.592   3.974   1.680 -0.3986 -0.0931 -1.0722
 5222SOL     OW15985   3.657   4.155   1.954 -0.2693 -0.7531  0.0810
 5222SOL    HW115986   3.702   4.217   1.890  2.1394 -0.6781  1.7192
 5222SOL    HW215987   3.628   4.072   1.906  0.7439 -0.3596 -1.2509
 5223SOL     OW15988   3.590   4.743   4.360 -0.0771  0.0407 -0.6610
 5223SOL    HW115989   3.655   4.813   4.388  0.8121 -1.1274  0.2696
 5223SOL    HW215990   3.569   4.683   4.437 -0.8472 -0.7096 -1.4237
 5224SOL     OW15991   3.592   4.631   2.033 -0.0846  0.2267  0.5234
 5224SOL    HW115992   3.524   4.561   2.054  1.1793 -1.3120 -0.2552
 5224SOL    HW215993   3.548   4.708   1.987 -1.2064 -1.0028 -0.5407
 5225SOL     OW15994   5.208   4.722   1.892  0.6549  0.0616  0.6542
 5225SOL    HW115995   5.121   4.687   1.856  0.5862  1.0103 -0.1411
 5225SOL    HW215996   5.192   4.805   1.944  1.1322  0.5335  0.0654
 5226SOL     OW15997   5.457   5.152   2.999  0.5319 -0.3828  0.7527
 5226SOL    HW115998   5.419   5.063   3.023  1.2674 -1.5266 -2.0118
 5226SOL    HW215999   5.383   5.218   2.985 -0.0892 -0.9780  1.1973
 5227SOL     OW16000   4.998   4.848   3.501 -0.1052 -0.2574 -0.2763
 5227SOL    HW116001   5.096   4.828   3.498 -0.5419 -2.7607  0.4743
 5227SOL    HW216002   4.966   4.845   3.596 -1.2919 -1.6925 -0.6873
 5228SOL     OW16003  -0.012   5.137   2.127  0.0214 -0.5687 -0.3413
 5228SOL    HW116004   0.076   5.165   2.166  1.2855 -1.4365 -2.4339
 5228SOL    HW216005  -0.046   5.057   2.178  0.7926 -0.6680  0.0386
 5229SOL     OW16006   3.619   0.427   2.098 -0.2981  0.2212 -0.3980
 5229SOL    HW116007   3.706   0.476   2.109 -0.4832  0.2864  0.8555
 5229SOL    HW216008   3.552   0.487   2.054 -0.2908  0.8401  0.4242
 5230SOL     OW16009   0.076   4.696   3.173 -0.0860  0.2212 -0.0448
 5230SOL    HW116010   0.058   4.790   3.205  2.5266 -0.5974  4.7962
 5230SOL    HW216011   0.160   4.695   3.118 -1.7746  0.9398 -2.8507
 5231SOL     OW16012   4.805   4.742   4.277 -0.8151  0.4069  0.0885
 5231SOL    HW116013   4.890   4.692   4.291 -1.2450 -0.5391 -0.6035
 5231SOL    HW216014   4.823   4.825   4.225  0.0455  1.4655  1.9816
 5232SOL     OW16015   3.813   3.905   2.739 -0.0197  0.6327  0.1742
 5232SOL    HW116016   3.905   3.929   2.769  0.5025  1.0319 -1.6482
 5232SOL    HW216017   3.795   3.809   2.763  0.7090  0.6707  0.9193
 5233SOL     OW16018   0.601   4.797   2.777 -0.4171  0.4036  0.3981
 5233SOL    HW116019   0.555   4.717   2.738 -0.1986  0.4011  0.1455
 5233SOL    HW216020   0.583   4.876   2.719  1.4055  0.0380 -0.7455
 5234SOL     OW16021   3.919   5.205   3.969  0.2923  0.0689  0.4805
 5234SOL    HW116022   3.970   5.148   3.904  4.3342  3.8807 -0.2224
 5234SOL    HW216023   3.950   5.187   4.062 -0.4323 -0.6578  0.5912
 5235SOL     OW16024   0.246   4.920   2.023 -0.3025  1.2964 -0.3535
 5235SOL    HW116025   0.309   4.849   2.055 -0.1959  1.2324 -0.7032
 5235SOL    HW216026   0.297   5.002   1.998 -0.1649  0.6853 -2.2191
 5236SOL     OW16027   3.799   2.985   4.368 -0.2016  0.1705 -0.5504
 5236SOL    HW116028   3.839   2.927   4.297 -0.9223  0.2339 -1.0149
 5236SOL    HW216029   3.733   2.932   4.420  1.4610 -0.3571  1.1475
 5237SOL     OW16030   4.651   3.863   1.675 -0.1328 -0.4556  0.5033
 5237SOL    HW116031   4.715   3.891   1.747  1.3253 -2.2106 -0.0203
 5237SOL    HW216032   4.661   3.924   1.596 -0.3626  0.3142  1.0555
 5238SOL     OW16033   4.757   5.057   3.269  0.1547  0.1257 -0.5651
 5238SOL    HW116034   4.659   5.053   3.287 -0.1394  0.9521 -1.8482
 5238SOL    HW216035   4.774   5.041   3.172  1.1953  1.1163 -0.5765
 5239SOL     OW16036   0.360   4.085   1.807 -0.2835 -0.1769  0.7912
 5239SOL    HW116037   0.313   4.019   1.865 -0.9819 -0.8976 -0.5436
 5239SOL    HW216038   0.456   4.059   1.798 -0.4250 -0.7002  0.7409
 5240SOL     OW16039   4.631   0.028   3.210  0.1512  0.0273  0.4727
 5240SOL    HW116040   4.642   0.044   3.308  0.0291 -2.4842  0.9597
 5240SOL    HW216041   4.537   0.049   3.183 -0.0218  0.0490  1.0693
 5241SOL     OW16042   4.510   1.286   2.636 -0.2670 -1.0699 -0.4117
 5241SOL    HW116043   4.453   1.347   2.691 -1.3858 -0.9993 -1.6080
 5241SOL    HW216044   4.590   1.259   2.689 -0.2126  0.7029  0.4617
 5242SOL     OW16045   4.201   3.656   3.262  0.7446 -0.3491 -0.1753
 5242SOL    HW116046   4.185   3.707   3.178  0.2965 -0.1678  0.0193
 5242SOL    HW216047   4.228   3.718   3.335  3.3124 -0.7172 -0.7053
 5243SOL     OW16048   4.899   4.831   3.774  0.1993 -0.2645 -0.0027
 5243SOL    HW116049   4.817   4.785   3.810 -0.1205  0.1239 -0.2264
 5243SOL    HW216050   4.978   4.806   3.829 -0.2738  0.2867  0.9347
 5244SOL     OW16051   4.382   4.458   1.038  0.6377  0.2393  0.5070
 5244SOL    HW116052   4.392   4.391   1.111  1.1754 -1.5481 -1.1372
 5244SOL    HW216053   4.452   4.529   1.047  1.1905 -0.3971  1.2591
 5245SOL     OW16054   4.651   3.258   3.880  0.1741  0.3172 -0.0766
 5245SOL    HW116055   4.601   3.259   3.793  0.4845  1.0866 -0.2574
 5245SOL    HW216056   4.586   3.248   3.955 -0.1005 -0.3251 -0.3949
 5246SOL     OW16057   5.046   5.398   4.097 -0.3929  0.1023  0.4137
 5246SOL    HW116058   5.135   5.416   4.055  0.0193 -0.1195  1.1767
 5246SOL    HW216059   5.006   5.483   4.130 -0.0849  0.1003  0.8012
 5247SOL     OW16060   4.303   3.561   2.652 -0.0017  0.2263 -0.4840
 5247SOL    HW116061   4.292   3.497   2.575 -1.6700  0.5677 -0.5682
 5247SOL    HW216062   4.400   3.576   2.668  0.4321  0.7597 -3.0509
 5248SOL     OW16063   4.025   4.659   2.841  0.0191  0.0981 -0.1566
 5248SOL    HW116064   3.971   4.577   2.860 -1.6232  1.0594 -0.5125
 5248SOL    HW216065   3.977   4.740   2.875  0.9692  1.0614 -1.0019
 5249SOL     OW16066   0.071   5.145   3.160  0.0077  0.4557 -0.5140
 5249SOL    HW116067  -0.013   5.152   3.107 -0.7421  0.6989  0.6717
 5249SOL    HW216068   0.068   5.063   3.218  2.3182 -1.8645 -3.3177
 5250SOL     OW16069   3.972   3.637   2.411 -0.0776  0.5166 -0.6620
 5250SOL    HW116070   3.879   3.670   2.395 -1.0472 -0.7887  1.6749
 5250SOL    HW216071   4.012   3.686   2.488 -0.6008 -1.8267  1.2327
 5251SOL     OW16072   5.483   4.615   2.834  0.7485 -0.0798  0.4300
 5251SOL    HW116073   5.396   4.656   2.860  0.3443 -1.3441  1.1750
 5251SOL    HW216074   5.556   4.655   2.888  0.3890 -0.1687  0.9972
 5252SOL     OW16075   4.617   3.999   2.449 -0.1925  0.5689  0.1632
 5252SOL    HW116076   4.669   4.082   2.473 -0.9433  0.7757  1.1242
 5252SOL    HW216077   4.569   4.014   2.362  0.1473  0.9246  0.0344
 5253SOL     OW16078   4.513   5.032   1.797 -0.6359  0.6292 -0.3119
 5253SOL    HW116079   4.486   4.993   1.709  0.3676 -1.1082  0.1104
 5253SOL    HW216080   4.571   5.112   1.781 -2.6264  1.9695 -1.2001
 5254SOL     OW16081   4.513   4.431   2.280  0.3208  0.0896  0.5038
 5254SOL    HW116082   4.489   4.500   2.212  1.3189  0.2995  0.3473
 5254SOL    HW216083   4.433   4.408   2.334 -0.4871 -0.0385 -0.6996
 5255SOL     OW16084   4.691   4.684   3.219 -0.2531  0.1117  0.1911
 5255SOL    HW116085   4.611   4.726   3.260 -0.8184 -0.9011  0.1551
 5255SOL    HW216086   4.688   4.585   3.232  0.3257 -0.0849 -0.9530
 5256SOL     OW16087   4.399   0.085   3.104  0.4497  0.1450  1.0970
 5256SOL    HW116088   4.387   0.052   3.010 -2.3603  0.5723  1.2358
 5256SOL    HW216089   4.312   0.118   3.140  1.9328  2.4089  2.9783
 5257SOL     OW16090   3.133   5.076   2.876  0.1306  0.1725 -0.0315
 5257SOL    HW116091   3.147   4.982   2.846 -0.6005  0.2909 -0.7781
 5257SOL    HW216092   3.076   5.077   2.958 -1.3315  0.0300 -1.0114
 5258SOL     OW16093   4.091   4.029   2.472  0.5804  0.1754  0.1689
 5258SOL    HW116094   4.070   3.933   2.493  0.8320  0.0908  0.0372
 5258SOL    HW216095   4.082   4.083   2.556  0.1830  0.0810  0.1876
 5259SOL     OW16096   2.135   4.383   2.720  0.2265  0.0996  0.2543
 5259SOL    HW116097   2.220   4.435   2.730  1.2397 -1.6270  1.0842
 5259SOL    HW216098   2.097   4.400   2.629  1.5280  0.8103 -0.1894
 5260SOL     OW16099   4.301   3.829   3.445  0.6523  0.2731 -0.1984
 5260SOL    HW116100   4.312   3.813   3.543  1.4228 -0.9085 -0.4522
 5260SOL    HW216101   4.246   3.910   3.431  0.0760  0.1639  1.2147
 5261SOL     OW16102   5.269   4.454   3.179 -0.4554 -0.2185 -0.1654
 5261SOL    HW116103   5.193   4.478   3.119 -1.2890 -2.7049 -0.2377
 5261SOL    HW216104   5.284   4.355   3.175  0.6011 -0.2421  2.3884
 5262SOL     OW16105   4.975   4.608   2.702 -0.5790  0.2624 -0.3717
 5262SOL    HW116106   4.885   4.574   2.733 -1.0250  0.9509 -0.8843
 5262SOL    HW216107   4.966   4.644   2.609  0.1678  0.6330 -0.3010
 5263SOL     OW16108   4.110   0.576   2.488  0.6125  0.4806  0.3149
 5263SOL    HW116109   4.128   0.573   2.389  1.7850  0.1940  0.5196
 5263SOL    HW216110   4.191   0.611   2.535 -0.6162  2.5247  1.0231
 5264SOL     OW16111   4.826   3.155   4.046 -0.4605  0.1977  0.0487
 5264SOL    HW116112   4.771   3.206   3.979  1.8854  2.3761 -0.3700
 5264SOL    HW216113   4.887   3.092   3.998  0.4171  0.9296  0.1822
 5265SOL     OW16114   5.202   4.708   2.813  0.1736 -0.2321  0.1821
 5265SOL    HW116115   5.230   4.804   2.818 -0.6029 -0.0440  1.3512
 5265SOL    HW216116   5.125   4.699   2.750  0.4849 -0.1579 -0.2137
 5266SOL     OW16117   5.185   0.666   2.615  0.2667 -0.0822  0.2162
 5266SOL    HW116118   5.183   0.590   2.549 -0.5236 -1.7619  2.0766
 5266SOL    HW216119   5.164   0.751   2.568  2.1131 -0.8047 -2.1533
 5267SOL     OW16120   4.681   5.068   2.356  0.2317 -0.6820 -0.3630
 5267SOL    HW116121   4.737   5.091   2.436 -1.6389 -1.0575  1.1221
 5267SOL    HW216122   4.695   5.136   2.285  1.4189  0.0545  0.5359
 5268SOL     OW16123   4.119   4.503   2.059  0.0042  0.2531 -0.3838
 5268SOL    HW116124   4.084   4.441   2.129  0.7649 -0.5220 -0.6694
 5268SOL    HW216125   4.097   4.597   2.085 -1.6239 -0.1421 -0.2077
 5269SOL     OW16126   2.689   4.259   1.891 -0.3161 -0.2141  0.3851
 5269SOL    HW116127   2.632   4.274   1.972 -2.0088 -0.2309 -0.7486
 5269SOL    HW216128   2.732   4.169   1.897 -0.3268 -0.1689  1.3138
 5270SOL     OW16129   0.057   5.494   4.830  0.7511 -0.5860 -0.3098
 5270SOL    HW116130   0.154   5.511   4.812  0.6572 -0.4526 -0.6899
 5270SOL    HW216131   0.006   5.498   4.745  0.3387 -0.1781 -0.0500
 5271SOL     OW16132   3.478   0.745   3.148 -0.2628 -0.2682 -0.3077
 5271SOL    HW116133   3.561   0.690   3.145 -1.1293 -1.5984 -1.4896
 5271SOL    HW216134   3.502   0.842   3.142  1.1775 -0.6461 -4.5873
 5272SOL     OW16135   4.580   5.003   3.546 -0.6104 -0.1070 -0.0103
 5272SOL    HW116136   4.550   4.939   3.475 -0.3775 -0.4323  0.1798
 5272SOL    HW216137   4.610   4.952   3.627 -0.5634  0.2484  0.1999
 5273SOL     OW16138   4.670   4.241   4.175  0.5628 -0.3269 -0.1180
 5273SOL    HW116139   4.612   4.220   4.096  0.1729 -1.0437  0.3447
 5273SOL    HW216140   4.612   4.256   4.255  0.9764 -0.0492  0.1294
 5274SOL     OW16141   4.865   5.106   3.720 -0.5696 -0.0700 -0.4692
 5274SOL    HW116142   4.861   5.007   3.736  0.7885 -0.1411 -0.4973
 5274SOL    HW216143   4.882   5.123   3.623  3.2248  0.0274  0.0579
 5275SOL     OW16144   4.896   4.332   4.288 -0.1226  0.4433  0.5170
 5275SOL    HW116145   4.922   4.261   4.353  0.9352  0.0137 -0.3443
 5275SOL    HW216146   4.804   4.314   4.254  0.1349 -0.5518  0.2958
 5276SOL     OW16147   4.558   4.839   3.749  0.2468  0.4826 -0.7035
 5276SOL    HW116148   4.474   4.806   3.705  1.3358  1.7948 -4.1528
 5276SOL    HW216149   4.608   4.762   3.788 -0.7225 -0.8942 -2.0559
 5277SOL     OW16150   5.405   4.690   3.187  0.3564  0.0507 -0.0698
 5277SOL    HW116151   5.503   4.671   3.186  0.2311 -0.6851 -1.6351
 5277SOL    HW216152   5.355   4.603   3.179 -0.3330  0.5930 -2.5001
 5278SOL     OW16153   4.209   5.096   3.076 -0.0359  0.2646  0.0126
 5278SOL    HW116154   4.253   5.005   3.076 -0.0118  0.2312  1.8023
 5278SOL    HW216155   4.149   5.104   2.997 -0.0111 -1.3075 -0.2056
 5279SOL     OW16156   5.260   4.225   3.721  0.4292 -0.0294 -0.1797
 5279SOL    HW116157   5.219   4.184   3.803  0.5179  0.1502 -0.0445
 5279SOL    HW216158   5.267   4.324   3.733  2.0188 -0.1702  0.3160
 5280SOL     OW16159   4.385   0.432   3.471 -0.0293 -0.4477  0.5443
 5280SOL    HW116160   4.305   0.487   3.495  1.0224  1.4865 -0.1114
 5280SOL    HW216161   4.358   0.336   3.461 -2.0022 -0.0523  1.5078
 5281SOL     OW16162   5.076   5.385   1.854 -0.2712 -0.4695 -0.4451
 5281SOL    HW116163   5.147   5.358   1.789 -1.5215 -1.6238 -1.3587
 5281SOL    HW216164   5.117   5.446   1.923  1.2474  0.1613 -1.8287
 5282SOL     OW16165   3.477   4.326   3.452  0.4802 -0.2145 -0.2389
 5282SOL    HW116166   3.435   4.317   3.542 -0.2766 -2.4915 -0.7458
 5282SOL    HW216167   3.569   4.365   3.461 -0.2480  1.2356  1.2946
 5283SOL     OW16168   0.320   5.098   2.872  0.1212 -0.7630  0.0861
 5283SOL    HW116169   0.341   5.051   2.958 -0.2510  0.1892  0.7193
 5283SOL    HW216170   0.228   5.075   2.842  1.4126 -3.9231 -2.0103
 5284SOL     OW16171   4.791   0.494   3.116  0.3205 -0.1412 -0.2192
 5284SOL    HW116172   4.806   0.469   3.020 -0.1077 -0.4427 -0.2089
 5284SOL    HW216173   4.720   0.435   3.155  0.9543 -0.4578  0.4717
 5285SOL     OW16174   3.996   5.475   2.115  0.4365 -0.0525 -0.1491
 5285SOL    HW116175   3.971   5.397   2.058  1.6891 -0.8585  0.3669
 5285SOL    HW216176   3.914   5.528   2.137 -0.3451 -0.8762 -1.0010
 5286SOL     OW16177   3.138   0.586   3.545 -0.4281  0.6015  0.2516
 5286SOL    HW116178   3.121   0.644   3.625  1.6656 -0.4633  1.5628
 5286SOL    HW216179   3.191   0.637   3.478  0.9125  0.4604  1.1546
 5287SOL     OW16180   2.732   3.989   2.225  0.1148  0.9763  0.4859
 5287SOL    HW116181   2.739   3.896   2.260 -0.7287  0.5101 -0.5169
 5287SOL    HW216182   2.688   4.047   2.294  1.8306  0.9634  1.6348
 5288SOL     OW16183   4.701   5.283   5.113 -0.0897  0.6775 -0.2018
 5288SOL    HW116184   4.691   5.293   5.212 -0.4089  1.1485 -0.2783
 5288SOL    HW216185   4.686   5.187   5.088 -0.8971  0.7097  0.1107
 5289SOL     OW16186   0.396   3.413   2.625 -0.2090  0.3141  0.1236
 5289SOL    HW116187   0.493   3.388   2.627 -0.2614  0.1632  0.9867
 5289SOL    HW216188   0.356   3.383   2.538  0.2634 -0.5816  0.2053
 5290SOL     OW16189   4.158   4.016   3.842  0.3015 -0.9170 -0.3795
 5290SOL    HW116190   4.238   3.983   3.790  0.9959 -0.3622  0.3151
 5290SOL    HW216191   4.076   3.967   3.811  1.0036 -1.9442 -0.6798
 5291SOL     OW16192   3.847   5.331   1.908  0.0202 -0.0240 -0.2421
 5291SOL    HW116193   3.850   5.231   1.920 -1.4927  0.0278  0.7697
 5291SOL    HW216194   3.752   5.362   1.913  0.2952  1.2974 -2.2310
 5292SOL     OW16195   4.760   0.394   4.097  0.4528  0.6194  0.2088
 5292SOL    HW116196   4.743   0.418   4.002  1.3155  0.6721  0.0555
 5292SOL    HW216197   4.721   0.304   4.117 -0.6516  1.0642  0.1083
 5293SOL     OW16198   3.763   4.290   1.033  0.0296  0.1507 -0.4543
 5293SOL    HW116199   3.770   4.193   1.011  1.2297  0.1581 -0.1747
 5293SOL    HW216200   3.674   4.325   1.003  0.8579 -0.2118 -3.7390
 5294SOL     OW16201   3.670   3.530   3.109  0.4074 -0.1284  0.3112
 5294SOL    HW116202   3.626   3.501   3.194  1.1034 -0.8374  0.4371
 5294SOL    HW216203   3.718   3.453   3.068 -1.1321 -0.2077 -1.5113
 5295SOL     OW16204   4.084   5.204   2.150 -0.2091 -0.3853 -0.0192
 5295SOL    HW116205   4.116   5.151   2.230 -0.4585 -0.2505  0.1703
 5295SOL    HW216206   3.995   5.244   2.171  0.9728  2.0204  0.7099
 5296SOL     OW16207   4.022   4.881   2.480  0.0857  0.9812  0.0330
 5296SOL    HW116208   4.073   4.801   2.513  1.2056  2.1268  1.1643
 5296SOL    HW216209   3.930   4.881   2.519  0.2534  0.5221  0.4295
 5297SOL     OW16210   0.777   5.027   3.834 -0.5211 -0.0702 -0.7316
 5297SOL    HW116211   0.712   5.055   3.763 -0.4057 -0.2444 -0.9089
 5297SOL    HW216212   0.761   5.080   3.917 -3.3812 -2.6298  0.5178
 5298SOL     OW16213   4.711   3.314   2.427  0.2789 -0.2976  0.5827
 5298SOL    HW116214   4.665   3.360   2.503 -0.1841  0.3569 -0.0765
 5298SOL    HW216215   4.678   3.220   2.420  0.6379 -0.5029  1.4385
 5299SOL     OW16216   4.325   3.233   1.303  0.0356 -0.2733 -0.5261
 5299SOL    HW116217   4.397   3.200   1.242  0.4852 -0.6307  0.1840
 5299SOL    HW216218   4.342   3.200   1.396  0.8967  2.5090  0.3849
 5300SOL     OW16219   3.845   4.417   2.343  0.0837 -0.3293  0.4673
 5300SOL    HW116220   3.922   4.365   2.304  0.2816 -0.1450  0.6138
 5300SOL    HW216221   3.768   4.354   2.359  0.2502 -0.5406  0.4490
 5301SOL     OW16222   3.401   5.151   4.154 -0.2404  0.4035 -0.3876
 5301SOL    HW116223   3.344   5.223   4.194 -2.3889 -0.5486 -1.5131
 5301SOL    HW216224   3.416   5.171   4.057 -0.0391 -0.1528 -0.4749
 5302SOL     OW16225   4.576   0.561   2.212  0.0496 -0.2502  0.1305
 5302SOL    HW116226   4.620   0.649   2.232 -2.1679  0.4974  2.2198
 5302SOL    HW216227   4.576   0.505   2.295 -1.7717 -0.7236 -0.1545
 5303SOL     OW16228   3.484   4.881   3.683 -0.6882 -0.4591  0.3634
 5303SOL    HW116229   3.551   4.858   3.754 -1.3899 -2.0580  0.5405
 5303SOL    HW216230   3.402   4.825   3.695 -2.1938  1.6272  0.2953
 5304SOL     OW16231   5.511   3.853   1.071 -0.2152 -0.2275  0.5782
 5304SOL    HW116232   5.606   3.858   1.101  0.1878 -2.5236 -0.1191
 5304SOL    HW216233   5.453   3.908   1.131  1.2972 -0.3018  2.1603
 5305SOL     OW16234   4.289   0.323   0.751  0.4500 -0.1363  0.1697
 5305SOL    HW116235   4.237   0.238   0.760  0.4024  0.0749  2.7907
 5305SOL    HW216236   4.265   0.369   0.666 -0.7175 -1.9480 -0.5235
 5306SOL     OW16237   3.880   4.911   3.191 -0.2332 -0.0276  0.0835
 5306SOL    HW116238   3.784   4.909   3.165 -0.2061 -0.4561  0.0093
 5306SOL    HW216239   3.900   4.998   3.237 -0.4706  0.3841 -0.5783
 5307SOL     OW16240   3.159   5.586   2.275 -0.0365  0.2073 -0.0842
 5307SOL    HW116241   3.256   5.567   2.258 -0.3670 -2.9249  0.9571
 5307SOL    HW216242   3.145   5.607   2.371 -0.5718 -0.8607  0.0775
 5308SOL     OW16243   4.220   4.294   3.069 -0.1942  0.0115  0.1240
 5308SOL    HW116244   4.163   4.215   3.048  1.2234 -0.8652 -0.6181
 5308SOL    HW216245   4.277   4.274   3.149  2.4969 -1.0890 -1.8924
 5309SOL     OW16246   4.746   4.419   4.596 -0.6319  0.2339  0.2345
 5309SOL    HW116247   4.691   4.428   4.512  0.6018  0.3818 -0.5861
 5309SOL    HW216248   4.754   4.323   4.621 -1.8648  0.2582  0.7922
 5310SOL     OW16249   5.366   5.044   3.422  0.3722 -0.0171  0.4049
 5310SOL    HW116250   5.299   4.972   3.439  0.9295 -0.8607 -0.8179
 5310SOL    HW216251   5.453   5.003   3.394  0.7154  1.1349 -0.2916
 5311SOL     OW16252   4.070   5.116   1.650 -0.5025 -1.4244 -0.1379
 5311SOL    HW116253   3.975   5.139   1.630 -0.6324 -0.5657  1.2953
 5311SOL    HW216254   4.094   5.150   1.741  1.4579 -0.7697 -0.8358
 5312SOL     OW16255   3.678   0.962   2.335  0.0312  0.4771  0.2862
 5312SOL    HW116256   3.677   0.981   2.433 -0.8668 -0.0799  0.4030
 5312SOL    HW216257   3.692   0.864   2.320 -2.0799  0.1671 -0.0290
 5313SOL     OW16258   4.377   4.026   2.651 -0.2484  0.3386  0.1816
 5313SOL    HW116259   4.313   4.098   2.625 -0.4980 -0.5151 -1.7317
 5313SOL    HW216260   4.413   3.982   2.569  1.4519 -0.3884  1.2590
 5314SOL     OW16261   3.464   4.222   2.726  0.1835 -0.3101  0.2726
 5314SOL    HW116262   3.478   4.290   2.799  0.2856  0.1142 -0.1380
 5314SOL    HW216263   3.393   4.254   2.664 -0.6646 -1.1711  0.7764
 5315SOL     OW16264   4.050   4.510   3.271  0.1433  0.1120 -0.0399
 5315SOL    HW116265   4.010   4.424   3.301 -0.9136  0.8564  0.7480
 5315SOL    HW216266   4.070   4.505   3.173  1.0513 -1.3658  0.1883
 5316SOL     OW16267   3.384   3.296   2.981  0.0293 -0.2326 -0.9773
 5316SOL    HW116268   3.316   3.349   2.930 -0.1601  0.0692 -0.4101
 5316SOL    HW216269   3.341   3.258   3.063  0.4502 -0.3626 -0.8187
 5317SOL     OW16270   4.684   3.188   3.060  0.2357  0.5073 -0.7603
 5317SOL    HW116271   4.686   3.107   3.002 -0.5448 -0.2818  0.2877
 5317SOL    HW216272   4.593   3.230   3.056  0.2929  0.6695 -0.3987
 5318SOL     OW16273   4.263   4.806   1.256 -0.2445  0.1248 -0.0952
 5318SOL    HW116274   4.248   4.878   1.324  0.3051  0.4455 -0.3072
 5318SOL    HW216275   4.250   4.717   1.298  1.4336  0.2656  0.8023
 5319SOL     OW16276   4.463   5.078   2.525 -0.5359  0.0324  0.6081
 5319SOL    HW116277   4.520   5.048   2.448 -2.1186  2.0506 -1.4857
 5319SOL    HW216278   4.522   5.114   2.597  0.9925 -1.6521  0.2525
 5320SOL     OW16279   4.113   5.039   3.825  0.3183 -0.2130 -0.0285
 5320SOL    HW116280   4.165   5.032   3.740  2.1689 -0.3042  1.0404
 5320SOL    HW216281   4.114   4.951   3.872  2.8911  0.7568  1.9874
 5321SOL     OW16282   4.412   4.509   3.382  0.5676  0.0458 -0.1286
 5321SOL    HW116283   4.347   4.582   3.362  0.7491  0.1499 -0.3468
 5321SOL    HW216284   4.417   4.494   3.481  1.3961  1.1291  0.0065
 5322SOL     OW16285   5.034   5.474   3.113  0.2128 -0.5756  0.2486
 5322SOL    HW116286   5.057   5.493   3.208 -1.5686  0.1093  0.5741
 5322SOL    HW216287   4.992   5.554   3.072  3.5280  0.1931 -2.0428
 5323SOL     OW16288   4.181   4.700   2.627  0.5893  0.3766 -0.4179
 5323SOL    HW116289   4.119   4.688   2.704  0.1015  0.5612 -0.7751
 5323SOL    HW216290   4.271   4.664   2.650  0.0822 -0.8191 -0.2569
 5324SOL     OW16291   3.298   4.782   2.588 -0.2076  0.9766 -0.2241
 5324SOL    HW116292   3.384   4.743   2.556  0.1282  0.1444  1.5719
 5324SOL    HW216293   3.235   4.791   2.511  0.2961 -1.5785 -1.0493
 5325SOL     OW16294   5.277   3.323   2.896  0.1400  0.0926 -0.4725
 5325SOL    HW116295   5.228   3.256   2.953  0.9838  0.1603  0.3490
 5325SOL    HW216296   5.222   3.407   2.890 -0.8515 -0.5905 -1.3790
 5326SOL     OW16297   4.434   4.209   1.743  0.5117 -0.1482  0.3673
 5326SOL    HW116298   4.389   4.290   1.706  0.2928 -0.3427  0.2145
 5326SOL    HW216299   4.458   4.226   1.839 -0.4541 -0.2820  0.6388
 5327SOL     OW16300   0.054   5.439   3.226 -0.8252  0.2413  0.2015
 5327SOL    HW116301   0.066   5.399   3.136 -0.1311 -0.8045  0.7455
 5327SOL    HW216302  -0.042   5.462   3.240 -1.1128 -0.6006 -0.3774
 5328SOL     OW16303   4.985   5.105   3.416 -0.1717 -0.5406 -0.5043
 5328SOL    HW116304   4.986   5.005   3.427 -1.1717 -0.6847 -1.4756
 5328SOL    HW216305   4.903   5.131   3.365 -0.2284  0.8467  0.2618
 5329SOL     OW16306   3.506   5.129   3.570 -0.5960  0.2149 -0.1713
 5329SOL    HW116307   3.491   5.041   3.615 -0.7071  0.5758  0.4957
 5329SOL    HW216308   3.514   5.114   3.471 -0.9354 -0.5022 -0.0963
 5330SOL     OW16309   3.723   0.030   3.235  0.1684 -0.0669 -0.0421
 5330SOL    HW116310   3.807  -0.025   3.241  1.1119  0.9605 -2.4660
 5330SOL    HW216311   3.677   0.011   3.148 -0.0315  2.1715 -0.4772
 5331SOL     OW16312   0.311   4.342   2.895 -0.2704  0.0456 -0.1768
 5331SOL    HW116313   0.283   4.252   2.930 -1.1549  0.5608  0.4735
 5331SOL    HW216314   0.345   4.398   2.970 -1.0678  0.7441 -0.3227
 5332SOL     OW16315   4.866   5.142   2.530 -0.1719  0.1413 -0.0605
 5332SOL    HW116316   4.912   5.225   2.560 -0.4513 -0.3424  1.8033
 5332SOL    HW216317   4.909   5.062   2.573 -1.2679 -0.5055 -0.1270
 5333SOL     OW16318   3.417   0.032   3.629 -0.1163  0.1171  0.2009
 5333SOL    HW116319   3.425   0.052   3.727 -0.9275 -0.1536  0.3321
 5333SOL    HW216320   3.479  -0.042   3.604  0.0795  0.1759  0.5112
 5334SOL     OW16321   4.544   4.626   1.894  0.1455 -0.2429  0.1049
 5334SOL    HW116322   4.449   4.650   1.909 -0.2622 -0.6411 -1.5864
 5334SOL    HW216323   4.557   4.601   1.798  1.5738 -1.9296  0.6776
 5335SOL     OW16324   5.231   4.167   3.202 -0.6021 -0.0238  0.0581
 5335SOL    HW116325   5.132   4.171   3.187 -1.1049 -0.1648  2.8853
 5335SOL    HW216326   5.251   4.178   3.299  2.2291  0.4960 -0.4995
 5336SOL     OW16327   4.822   4.733   2.393  0.2992  0.1748  0.0134
 5336SOL    HW116328   4.846   4.801   2.323  0.9648  0.7287  0.7587
 5336SOL    HW216329   4.733   4.757   2.433  0.2966  0.3134 -0.0741
 5337SOL     OW16330   0.650   1.673   3.291  0.2696  0.4645 -0.3378
 5337SOL    HW116331   0.639   1.653   3.389  1.8709 -1.3067 -0.4668
 5337SOL    HW216332   0.600   1.605   3.238  0.6129  0.5474 -0.7691
 5338SOL     OW16333   4.979   3.701   2.866 -0.3858  0.2910 -0.4196
 5338SOL    HW116334   4.948   3.650   2.947 -1.6496 -0.0220 -1.0752
 5338SOL    HW216335   5.078   3.710   2.869 -0.3267 -0.4809  0.7255
 5339SOL     OW16336   5.157   3.571   3.938  0.2585  0.4157 -0.2967
 5339SOL    HW116337   5.235   3.565   3.876  0.4940 -1.5207  0.1105
 5339SOL    HW216338   5.134   3.479   3.972 -1.7614  1.0235  0.1398
 5340SOL     OW16339   4.423   5.561   1.943 -0.6537 -0.4205 -0.4754
 5340SOL    HW116340   4.441   5.618   1.862 -1.0849  0.0360 -0.2593
 5340SOL    HW216341   4.418   5.465   1.916  3.3990 -0.8346 -0.4063
 5341SOL     OW16342   5.547   4.006   3.925  0.0284 -0.3195 -0.1124
 5341SOL    HW116343   5.500   4.028   4.011  0.0873 -0.8816  0.0660
 5341SOL    HW216344   5.591   3.917   3.933  0.4100 -0.1766 -0.5767
 5342SOL     OW16345   3.497   4.360   0.987 -0.3495 -0.4284  0.2947
 5342SOL    HW116346   3.470   4.437   0.930 -0.8835 -1.2603 -0.6138
 5342SOL    HW216347   3.434   4.351   1.065  0.3532  0.6826  1.0149
 5343SOL     OW16348   3.488   5.126   1.684  0.4796 -0.2240 -0.0726
 5343SOL    HW116349   3.531   5.125   1.775  0.3419  0.3490  0.0049
 5343SOL    HW216350   3.518   5.046   1.632  1.0162 -0.2515  0.2692
 5344SOL     OW16351   3.567   4.160   3.057  0.2178  0.2164  0.1638
 5344SOL    HW116352   3.535   4.147   3.151  0.5969  0.0133  0.2659
 5344SOL    HW216353   3.622   4.082   3.029 -1.1072 -0.4260 -0.7566
 5345SOL     OW16354   0.140   0.254   3.867  0.3162 -0.0616 -0.8614
 5345SOL    HW116355   0.070   0.235   3.798 -0.0353 -0.2836 -0.4509
 5345SOL    HW216356   0.205   0.320   3.831  0.7987 -1.0381 -1.8253
 5346SOL     OW16357   5.164   4.374   2.720 -0.3168  0.2959  0.1590
 5346SOL    HW116358   5.104   4.453   2.729 -0.5185  0.2685 -0.8111
 5346SOL    HW216359   5.115   4.292   2.750 -0.8779  0.2345 -0.8821
 5347SOL     OW16360   5.533   4.256   2.175 -0.1861  0.4248 -0.1864
 5347SOL    HW116361   5.495   4.343   2.143  0.1575 -0.0333 -1.9341
 5347SOL    HW216362   5.478   4.222   2.251 -1.6934  1.0528 -0.9547
 5348SOL     OW16363   4.751   0.017   2.758  0.5063 -0.4891  0.2629
 5348SOL    HW116364   4.720   0.072   2.835  1.1167  1.5242 -0.8330
 5348SOL    HW216365   4.805  -0.060   2.791 -0.4147 -0.4925  1.8740
 5349SOL     OW16366   4.837   3.477   3.880  0.3550  0.2306  0.0418
 5349SOL    HW116367   4.924   3.428   3.874 -0.0671 -0.6601  0.9196
 5349SOL    HW216368   4.762   3.412   3.879 -0.2965  0.9702 -0.3216
 5350SOL     OW16369   4.512   5.568   2.641 -0.6400 -0.0053  0.2441
 5350SOL    HW116370   4.501   5.556   2.543  0.7223  1.6611 -0.1436
 5350SOL    HW216371   4.609   5.559   2.666 -0.8280  0.6332  1.2797
 5351SOL     OW16372   4.543   5.048   3.915 -0.3392 -0.4012 -0.4485
 5351SOL    HW116373   4.580   5.133   3.876 -1.8423  0.6495  0.2940
 5351SOL    HW216374   4.561   4.972   3.853 -0.8607  0.8445 -2.2214
 5352SOL     OW16375   4.516   3.209   2.147  0.6132 -0.6996  0.0178
 5352SOL    HW116376   4.454   3.285   2.165  0.0292 -1.2655  0.4573
 5352SOL    HW216377   4.598   3.242   2.101  0.7655  0.3359  0.9960
 5353SOL     OW16378   4.618   3.076   2.389 -0.2994  0.3747  0.2062
 5353SOL    HW116379   4.684   3.003   2.375  0.8904  1.4102  0.2235
 5353SOL    HW216380   4.573   3.097   2.302 -0.7559 -0.4567  0.2334
 5354SOL     OW16381   4.668   4.368   2.986 -0.2444 -0.1121  0.3916
 5354SOL    HW116382   4.655   4.420   3.071 -0.0689  0.0938  0.2929
 5354SOL    HW216383   4.751   4.313   2.993  1.2603  1.9081 -0.6305
 5355SOL     OW16384   3.244   4.624   1.346  0.0041  0.2434  0.1368
 5355SOL    HW116385   3.324   4.672   1.383  0.5263  1.3192 -2.1781
 5355SOL    HW216386   3.174   4.617   1.416  2.1463 -0.9169  2.3271
 5356SOL     OW16387   4.329   5.488   0.902 -0.1910  0.0381  0.2308
 5356SOL    HW116388   4.270   5.410   0.877  1.0495 -0.9578  0.3117
 5356SOL    HW216389   4.338   5.492   1.001 -0.2204  0.2630  0.2235
 5357SOL     OW16390   4.587   3.958   3.476 -0.1206  0.0963 -0.4312
 5357SOL    HW116391   4.509   3.933   3.419 -0.0737 -0.3042 -0.3264
 5357SOL    HW216392   4.555   3.999   3.561 -0.1907  0.7033 -0.7420
 5358SOL     OW16393   4.639   1.383   3.433  0.3284  0.3695  0.0251
 5358SOL    HW116394   4.701   1.312   3.468  0.3903  0.5493  0.2806
 5358SOL    HW216395   4.624   1.368   3.335  1.9840  1.2117 -0.3848
 5359SOL     OW16396   5.405   0.097   3.852  0.0571 -0.0223 -0.1630
 5359SOL    HW116397   5.462   0.075   3.932 -0.3272  0.5823  0.2874
 5359SOL    HW216398   5.455   0.159   3.792  0.4329 -0.6542 -0.5057
 5360SOL     OW16399   5.031   4.515   3.381 -0.1228  0.3822 -0.2381
 5360SOL    HW116400   5.127   4.513   3.354  0.5904  1.8016  1.8630
 5360SOL    HW216401   4.981   4.577   3.321  0.4630  0.3168 -0.8080
 5361SOL     OW16402   3.901   5.075   3.446  0.1315  0.4735  0.1604
 5361SOL    HW116403   3.994   5.113   3.446 -0.1324  1.1821 -1.6479
 5361SOL    HW216404   3.835   5.149   3.441 -0.5509 -0.0515  1.0973
 5362SOL     OW16405   5.510   0.029   4.089  0.7995 -0.0557 -0.0074
 5362SOL    HW116406   5.602   0.056   4.115  0.5397  2.3882 -1.3833
 5362SOL    HW216407   5.456   0.010   4.172  3.0300 -3.8270  0.8142
 5363SOL     OW16408   5.234   3.569   3.075 -0.0858  0.4320 -0.0771
 5363SOL    HW116409   5.240   3.618   3.162  3.9821  0.8513 -0.3925
 5363SOL    HW216410   5.275   3.624   3.003  0.4683 -1.5897 -1.3852
 5364SOL     OW16411   4.112   5.226   3.481  0.1033 -0.2691 -0.1521
 5364SOL    HW116412   4.096   5.295   3.551 -1.5780 -0.0777 -0.6934
 5364SOL    HW216413   4.156   5.269   3.402  2.1166 -0.5091  0.7790
 5365SOL     OW16414   0.513   3.260   3.498  0.4377  0.0128  0.2353
 5365SOL    HW116415   0.499   3.309   3.413 -0.6430  0.9518  0.9304
 5365SOL    HW216416   0.590   3.301   3.548 -0.6967  1.2892  0.9871
 5366SOL     OW16417   5.341   4.905   3.053 -0.1252  0.2808  0.6956
 5366SOL    HW116418   5.242   4.915   3.061 -0.1544  0.7251 -0.0762
 5366SOL    HW216419   5.371   4.825   3.104 -0.9431 -0.1050  0.5894
 5367SOL     OW16420   0.433   4.742   1.788  0.5635  0.3132 -0.8767
 5367SOL    HW116421   0.420   4.738   1.887  0.6908 -0.7263 -0.8952
 5367SOL    HW216422   0.531   4.733   1.767  0.4499 -0.3544 -1.1340
 5368SOL     OW16423   4.592   5.263   3.446  0.2834 -0.3149 -0.2303
 5368SOL    HW116424   4.528   5.308   3.508  0.3086 -0.0605 -0.3871
 5368SOL    HW216425   4.615   5.173   3.481  0.2477 -0.1968  0.0996
 5369SOL     OW16426   3.502   4.635   2.445  0.2608 -0.0192  0.5244
 5369SOL    HW116427   3.534   4.676   2.359  1.1277 -2.6847 -0.5488
 5369SOL    HW216428   3.453   4.550   2.425  0.5299 -0.7425  2.6566
 5370SOL     OW16429   3.027   4.039   1.858  0.2881 -0.3255  0.2749
 5370SOL    HW116430   2.930   4.015   1.847  0.0613 -0.6644  2.6002
 5370SOL    HW216431   3.057   4.092   1.779 -1.9773  0.3696 -0.1930
 5371SOL     OW16432   0.117   0.145   3.197  0.3294 -0.6480 -0.0894
 5371SOL    HW116433   0.043   0.105   3.142 -0.1146 -1.4984  1.0955
 5371SOL    HW216434   0.205   0.114   3.161  0.2238  1.1803 -2.1547
 5372SOL     OW16435   4.212   4.576   3.972 -0.0470  0.4559  0.2866
 5372SOL    HW116436   4.201   4.588   3.873 -0.0314  0.0120  0.2247
 5372SOL    HW216437   4.171   4.489   3.999  1.8649 -0.5022  0.2994
 5373SOL     OW16438   3.232   5.087   2.408 -0.3015 -0.4553 -0.1769
 5373SOL    HW116439   3.226   4.988   2.418  0.7234 -0.3427  1.9920
 5373SOL    HW216440   3.183   5.115   2.325 -1.6906 -2.6218 -0.1514
 5374SOL     OW16441   4.417   5.239   4.474 -0.1020  0.6486  0.7046
 5374SOL    HW116442   4.448   5.146   4.454  0.1024  0.8333  0.1377
 5374SOL    HW216443   4.449   5.266   4.564 -0.7777 -0.0930  1.1829
 5375SOL     OW16444   4.918   3.293   3.004 -0.0360  0.9013  0.1061
 5375SOL    HW116445   4.907   3.307   2.905  1.4630  0.8259 -0.0898
 5375SOL    HW216446   4.832   3.258   3.042 -0.1785 -0.5914 -1.4609
 5376SOL     OW16447   4.241   4.579   2.977 -0.3695  0.4940  0.1556
 5376SOL    HW116448   4.157   4.601   2.928 -1.9791 -0.9143  2.0748
 5376SOL    HW216449   4.231   4.489   3.020  3.2717 -1.0502 -1.8717
 5377SOL     OW16450   5.010   4.935   2.612  0.4851 -0.2255  0.0519
 5377SOL    HW116451   5.096   4.957   2.660  2.0969 -0.6454 -2.4533
 5377SOL    HW216452   5.020   4.847   2.566 -0.9336  0.2138 -1.1592
 5378SOL     OW16453   2.911   4.911   1.585  0.2078  0.1855  0.2127
 5378SOL    HW116454   3.000   4.948   1.612  0.1454  0.7074 -0.2615
 5378SOL    HW216455   2.848   4.987   1.567 -0.3566 -0.1776  0.6103
 5379SOL     OW16456   4.086   4.276   1.877  0.1060 -0.6309  0.1475
 5379SOL    HW116457   4.076   4.328   1.962  1.3068 -0.0785 -0.0266
 5379SOL    HW216458   4.166   4.310   1.827  0.6651 -2.3739 -0.1897
 5380SOL     OW16459   3.847   4.281   3.369  0.3555 -0.4163 -0.7341
 5380SOL    HW116460   3.926   4.222   3.385 -0.0512 -0.7944 -0.0907
 5380SOL    HW216461   3.821   4.277   3.272  2.3006  1.2219 -1.4001
 5381SOL     OW16462   4.827   5.260   1.894 -0.6730  0.2207 -0.0599
 5381SOL    HW116463   4.919   5.296   1.880 -0.3649 -0.9138 -1.1170
 5381SOL    HW216464   4.771   5.279   1.813 -0.9200 -0.4009 -0.0392
 5382SOL     OW16465   4.144   5.466   3.631  0.0557 -0.0682 -0.3822
 5382SOL    HW116466   4.142   5.564   3.649  0.1964  0.3572 -2.4893
 5382SOL    HW216467   4.157   5.417   3.717  0.1000  1.7485  0.6938
 5383SOL     OW16468   5.005   3.546   1.696 -0.5795  0.4500  0.2173
 5383SOL    HW116469   5.024   3.561   1.599  1.3547  0.4729  0.5530
 5383SOL    HW216470   5.048   3.619   1.750 -2.0960  0.7492  1.0878
 5384SOL     OW16471   4.962   4.200   3.226  0.2898 -0.0814  0.2217
 5384SOL    HW116472   4.950   4.247   3.139  2.2774  0.2429  0.0682
 5384SOL    HW216473   4.939   4.262   3.301  0.4758  0.3193 -0.0454
 5385SOL     OW16474   4.803   3.710   3.745 -0.7038 -0.4375 -0.2411
 5385SOL    HW116475   4.792   3.640   3.816 -1.2455  1.1683  1.3404
 5385SOL    HW216476   4.897   3.707   3.710 -0.5124 -1.4621  0.3239
 5386SOL     OW16477   4.056   0.504   1.924  0.4544  0.4586  0.4324
 5386SOL    HW116478   4.095   0.530   1.836  0.8010 -0.6885  0.2347
 5386SOL    HW216479   4.064   0.405   1.937 -0.5218  0.4738  1.3054
 5387SOL     OW16480   3.323   4.992   1.232  0.1884  0.0185 -0.2334
 5387SOL    HW116481   3.299   4.904   1.191 -0.4578 -0.2262  0.6514
 5387SOL    HW216482   3.334   5.060   1.159 -2.7337  0.0428 -0.7868
 5388SOL     OW16483   4.908   3.921   5.290  0.1687 -0.1471  0.2436
 5388SOL    HW116484   4.965   3.841   5.272  0.8123  0.5331 -0.9042
 5388SOL    HW216485   4.953   3.979   5.359 -0.0274 -0.4988  0.6686
 5389SOL     OW16486   3.020   4.153   4.300 -0.2836  0.4081  0.5481
 5389SOL    HW116487   2.921   4.142   4.298 -0.1429 -0.9476  0.0603
 5389SOL    HW216488   3.043   4.250   4.298 -1.5908  0.7230 -0.3960
 5390SOL     OW16489   3.676   4.834   3.881  0.1699 -0.0561  0.1157
 5390SOL    HW116490   3.761   4.845   3.831  0.6454 -0.5746  0.7898
 5390SOL    HW216491   3.693   4.845   3.979 -0.8010  1.2679  0.1698
 5391SOL     OW16492   0.685   5.393   3.714  0.4040 -0.7787 -0.3234
 5391SOL    HW116493   0.740   5.384   3.796  2.5160 -1.5284 -1.7339
 5391SOL    HW216494   0.733   5.350   3.637 -1.5221 -0.1830 -1.9342
 5392SOL     OW16495   5.261   5.552   4.334 -0.1791 -1.1058 -0.3256
 5392SOL    HW116496   5.188   5.587   4.276  0.1887 -2.2356 -1.5118
 5392SOL    HW216497   5.223   5.524   4.422 -1.4190 -2.6719 -1.2872
 5393SOL     OW16498  -0.014   4.088   4.659  0.1704 -0.1303  0.3557
 5393SOL    HW116499   0.023   3.999   4.631  1.8899  0.4723  0.6340
 5393SOL    HW216500   0.058   4.142   4.701 -0.8613  1.4062  0.2056
 5394SOL     OW16501   5.306   4.484   3.771 -0.1376  0.2817 -0.0473
 5394SOL    HW116502   5.251   4.566   3.785 -0.0234  0.1142  1.6508
 5394SOL    HW216503   5.384   4.485   3.834  0.9385 -0.2332 -1.3182
 5395SOL     OW16504   5.042   5.540   4.515 -0.1313 -0.0901 -0.1456
 5395SOL    HW116505   4.972   5.596   4.471  0.0220  0.9963  0.9543
 5395SOL    HW216506   5.041   5.556   4.614  1.3519 -0.4316 -0.0529
 5396SOL     OW16507   3.980   4.879   0.288 -0.0410 -0.3741 -0.5088
 5396SOL    HW116508   4.022   4.968   0.269 -0.8755  0.8990  2.8786
 5396SOL    HW216509   3.889   4.876   0.248  0.0019  0.2993 -0.6741
 5397SOL     OW16510   5.285   4.793   5.332  0.3547 -1.1446  0.0907
 5397SOL    HW116511   5.246   4.767   5.244  0.7322 -2.6721  0.3418
 5397SOL    HW216512   5.353   4.725   5.360  0.1423 -0.7753  1.6189
 5398SOL     OW16513   3.453   5.456   0.661  0.3042  0.1092 -0.3770
 5398SOL    HW116514   3.403   5.520   0.602 -0.8823 -0.7286 -0.3057
 5398SOL    HW216515   3.551   5.460   0.638  0.0351  0.7209 -1.5179
 5399SOL     OW16516   4.983   0.633   3.749  0.0412  0.1561 -0.2925
 5399SOL    HW116517   5.065   0.587   3.782  0.8599  2.0158  0.3654
 5399SOL    HW216518   4.908   0.618   3.814  0.4992  0.3636  0.2865
 5400SOL     OW16519   5.420   4.978   4.706  0.3143  0.0702 -0.3010
 5400SOL    HW116520   5.411   5.051   4.638  0.5401  1.5937  1.2280
 5400SOL    HW216521   5.436   4.891   4.659  3.4150  1.4680 -2.1846
 5401SOL     OW16522   3.546   4.117   5.520 -0.2552 -0.1357  0.0590
 5401SOL    HW116523   3.638   4.155   5.515  0.8004 -2.5717 -0.8850
 5401SOL    HW216524   3.516   4.090   5.428 -2.8091  2.4146  0.0328
 5402SOL     OW16525   0.206   4.892   4.108 -0.6857  0.0405 -0.1232
 5402SOL    HW116526   0.133   4.887   4.040 -0.2524  0.6643 -0.6399
 5402SOL    HW216527   0.285   4.838   4.077 -0.4917  0.3182 -0.1160
 5403SOL     OW16528   4.073   0.442   3.718  0.0761 -0.6700 -0.3325
 5403SOL    HW116529   4.117   0.490   3.794 -3.4011 -0.5204  1.7999
 5403SOL    HW216530   4.106   0.480   3.631  2.9201  0.3607  1.0633
 5404SOL     OW16531   4.446   5.424   4.266 -0.4072  0.0748  0.2954
 5404SOL    HW116532   4.424   5.354   4.334  0.3756 -0.1964  0.2838
 5404SOL    HW216533   4.538   5.407   4.230  0.1709  1.6087  0.9485
 5405SOL     OW16534   3.447   0.101   3.894 -0.5603  0.8148 -0.3201
 5405SOL    HW116535   3.466   0.017   3.944  0.9805  1.2970 -0.0285
 5405SOL    HW216536   3.502   0.175   3.932 -1.3009  1.7783 -1.0758
 5406SOL     OW16537   5.592   4.941   4.948  0.4375  0.6293  0.3429
 5406SOL    HW116538   5.585   4.841   4.951  0.9726  0.4971 -1.3765
 5406SOL    HW216539   5.522   4.978   4.887  1.8228  1.0288 -1.0997
 5407SOL     OW16540   4.273   0.544   0.225 -0.0071 -0.5188 -0.2835
 5407SOL    HW116541   4.369   0.545   0.250 -0.1332 -0.5038  0.2063
 5407SOL    HW216542   4.246   0.452   0.196  0.2530 -0.4292 -0.8251
 5408SOL     OW16543   3.834   0.082   4.414  0.0024  0.4246 -0.7330
 5408SOL    HW116544   3.880   0.168   4.394  0.9069  0.8765  2.6291
 5408SOL    HW216545   3.745   0.101   4.455  0.2366 -0.2181  0.0894
 5409SOL     OW16546   4.229   4.372   5.532 -0.0982 -0.0205 -0.1067
 5409SOL    HW116547   4.231   4.423   5.446 -1.3484 -1.2098 -0.8851
 5409SOL    HW216548   4.322   4.365   5.569  0.5550  0.0552 -1.6527
 5410SOL     OW16549   5.299   4.251   3.457  0.0124  0.7831  0.3121
 5410SOL    HW116550   5.302   4.351   3.450  3.5526  0.8247  0.6776
 5410SOL    HW216551   5.290   4.225   3.553  2.5096  0.8615  0.6171
 5411SOL     OW16552   0.122   0.980   3.296  0.0952 -0.1868 -0.1230
 5411SOL    HW116553   0.165   0.918   3.230  1.1139  1.2140 -0.8123
 5411SOL    HW216554   0.048   0.931   3.343  1.2154 -2.0882 -0.2292
 5412SOL     OW16555   4.053   4.793   3.937 -0.6069 -0.2401  0.2760
 5412SOL    HW116556   4.098   4.731   4.001 -0.5559 -0.8562 -0.3382
 5412SOL    HW216557   3.954   4.779   3.940 -0.8306  1.3329  1.8531
 5413SOL     OW16558   5.374   4.904   3.771 -0.0569 -0.2531 -0.0299
 5413SOL    HW116559   5.317   4.967   3.823  1.2043 -0.0964  1.2015
 5413SOL    HW216560   5.364   4.923   3.673 -1.0206  0.6891  0.2394
 5414SOL     OW16561   0.731   5.307   4.555  0.0992 -0.6326 -0.2253
 5414SOL    HW116562   0.704   5.233   4.618  2.4011 -2.4207 -1.1726
 5414SOL    HW216563   0.657   5.326   4.492 -1.3216 -0.6040  1.3868
 5415SOL     OW16564   3.686   5.267   0.343  0.5912  0.4829  0.2915
 5415SOL    HW116565   3.781   5.290   0.324  0.5576 -0.0376 -0.5446
 5415SOL    HW216566   3.682   5.179   0.390  0.5915  1.1376  1.5598
 5416SOL     OW16567   4.374   5.522   3.375 -0.1903 -0.0323 -0.0815
 5416SOL    HW116568   4.419   5.461   3.440 -0.3670 -1.9111 -1.6344
 5416SOL    HW216569   4.330   5.468   3.303 -2.2305  1.8625 -0.3694
 5417SOL     OW16570   4.317   0.151   5.387 -0.1786 -0.8294 -0.7601
 5417SOL    HW116571   4.278   0.097   5.312  0.1310 -2.1145 -0.0321
 5417SOL    HW216572   4.273   0.240   5.390 -0.3933 -0.8585 -2.2868
 5418SOL     OW16573   5.157   3.582   4.696  0.1151  0.2023 -0.2812
 5418SOL    HW116574   5.071   3.574   4.646  0.7836  0.3076 -1.4936
 5418SOL    HW216575   5.199   3.491   4.704 -0.5884 -0.0183  1.2349
 5419SOL     OW16576   4.639   3.567   0.679 -0.4293 -0.2564  0.1350
 5419SOL    HW116577   4.676   3.611   0.598 -2.4901  3.3552  0.9228
 5419SOL    HW216578   4.709   3.563   0.750 -0.4749  3.6641  0.6133
 5420SOL     OW16579   0.375   3.604   3.524  0.2588  0.0361  0.1019
 5420SOL    HW116580   0.401   3.672   3.592 -1.2041  1.3706 -0.6249
 5420SOL    HW216581   0.308   3.541   3.564 -0.8458  1.0136 -0.1637
 5421SOL     OW16582  -0.020   4.666   4.941 -0.2925 -0.1447  0.1971
 5421SOL    HW116583   0.063   4.647   4.994 -1.6634 -0.4695  2.3491
 5421SOL    HW216584  -0.011   4.626   4.849  1.8578 -0.2490  0.3989
 5422SOL     OW16585   3.384   3.496   0.558  0.0180 -0.1027 -0.3518
 5422SOL    HW116586   3.437   3.474   0.641 -0.8161 -1.6686 -0.1970
 5422SOL    HW216587   3.424   3.448   0.480 -1.0297 -1.1716 -0.2611
 5423SOL     OW16588   0.278   0.374   5.361 -0.2154  0.1276  0.5243
 5423SOL    HW116589   0.364   0.344   5.403 -0.3223  0.4984  1.0274
 5423SOL    HW216590   0.286   0.370   5.262 -0.0105 -0.9368  0.5677
 5424SOL     OW16591   4.627   1.226   4.417 -0.0370  0.0713  0.1843
 5424SOL    HW116592   4.686   1.201   4.495  0.5633  0.5946 -0.0895
 5424SOL    HW216593   4.623   1.325   4.410  0.2282  0.0261 -0.6804
 5425SOL     OW16594   4.437   4.340   4.321  0.2022 -0.0812  0.5963
 5425SOL    HW116595   4.364   4.277   4.346  1.7492 -0.8851  3.5415
 5425SOL    HW216596   4.404   4.434   4.325 -0.5429 -0.3978  2.5248
 5426SOL     OW16597   5.528   3.835   4.967 -0.1221  0.2737 -0.3699
 5426SOL    HW116598   5.457   3.797   5.026 -1.3894  0.7080 -1.5550
 5426SOL    HW216599   5.524   3.935   4.971  2.7275  0.4630  2.1934
 5427SOL     OW16600   4.949   0.720   4.203 -0.0640 -0.2419  0.4438
 5427SOL    HW116601   5.015   0.695   4.275 -0.2979 -0.8439  0.4510
 5427SOL    HW216602   4.887   0.643   4.186 -2.1462  1.0080  1.9336
 5428SOL     OW16603   4.572   5.011   5.185  0.6273 -0.8166 -1.0668
 5428SOL    HW116604   4.590   4.987   5.281 -0.7541  1.0236 -0.2835
 5428SOL    HW216605   4.507   4.947   5.146  0.4055 -0.9761 -0.4416
 5429SOL     OW16606   4.565   4.826   0.506 -0.2005 -0.5555 -0.3648
 5429SOL    HW116607   4.514   4.746   0.537 -0.5863 -0.0318  0.3985
 5429SOL    HW216608   4.581   4.887   0.584 -0.0944  0.2044 -0.9692
 5430SOL     OW16609   4.831   4.991   0.584  0.0696  0.3619 -0.1218
 5430SOL    HW116610   4.762   5.062   0.594  0.8775  1.6262 -2.6659
 5430SOL    HW216611   4.792   4.914   0.532 -0.0004  0.1353  0.2581
 5431SOL     OW16612   4.366   3.764   0.441 -0.5207  0.4039 -0.0334
 5431SOL    HW116613   4.368   3.722   0.532 -0.3173 -2.0839 -1.0866
 5431SOL    HW216614   4.277   3.747   0.399  0.5642 -1.7579 -1.6413
 5432SOL     OW16615   0.553   4.127   4.343  0.2908 -0.1752  0.6460
 5432SOL    HW116616   0.610   4.190   4.289 -0.2673 -0.6845 -0.5915
 5432SOL    HW216617   0.531   4.168   4.431  0.8750  0.8753  0.3146
 5433SOL     OW16618   4.250   3.874   4.392  0.5894 -0.1236  0.3053
 5433SOL    HW116619   4.216   3.853   4.301  0.1495  2.1452 -0.1170
 5433SOL    HW216620   4.269   3.789   4.442 -1.9905 -1.4465 -0.8142
 5434SOL     OW16621   4.972   0.856   4.620 -0.3413 -0.0297  0.5154
 5434SOL    HW116622   5.007   0.826   4.709  1.5793 -0.1095 -0.2195
 5434SOL    HW216623   4.874   0.835   4.614 -0.1056 -1.7833  1.8659
 5435SOL     OW16624   5.187   4.854   5.052  0.0827 -0.0771  0.0464
 5435SOL    HW116625   5.231   4.767   5.031 -0.2249 -0.3159  0.3948
 5435SOL    HW216626   5.105   4.864   4.995  0.9330  0.6714 -1.0970
 5436SOL     OW16627   5.560   3.397   5.129  0.1828  0.3912  0.1867
 5436SOL    HW116628   5.560   3.304   5.166 -1.1004  0.4597  0.4016
 5436SOL    HW216629   5.577   3.462   5.202 -1.4948  0.4730  0.5261
 5437SOL     OW16630   4.404   0.188   4.099  0.2199  0.4740  0.3807
 5437SOL    HW116631   4.381   0.172   4.195 -0.8385  3.7372  0.8061
 5437SOL    HW216632   4.324   0.168   4.042  0.0827  0.7533  0.4734
 5438SOL     OW16633   4.959   4.363   5.236  0.0115  0.3110 -0.1493
 5438SOL    HW116634   4.919   4.360   5.328  0.6149 -0.7435  0.0912
 5438SOL    HW216635   4.966   4.459   5.207 -0.9739  0.6198  0.5375
 5439SOL     OW16636   5.396   0.492   3.638 -0.6834 -0.0137  0.3321
 5439SOL    HW116637   5.332   0.490   3.561 -0.8941  0.3602  0.4946
 5439SOL    HW216638   5.344   0.504   3.723 -0.4072  0.1150  0.4826
 5440SOL     OW16639   4.167   5.323   3.839 -0.7849 -0.2284  0.1908
 5440SOL    HW116640   4.226   5.342   3.917  0.0336 -1.6575 -0.0573
 5440SOL    HW216641   4.152   5.225   3.831 -0.6965 -0.1337 -1.5563
 5441SOL     OW16642   1.184   0.220   4.091  0.0471 -0.1436 -0.4060
 5441SOL    HW116643   1.214   0.221   3.995  1.7019 -1.5142  0.0358
 5441SOL    HW216644   1.214   0.135   4.134  2.3418  1.7711  2.2081
 5442SOL     OW16645   0.197   0.071   0.507 -0.1341 -0.2351  0.9106
 5442SOL    HW116646   0.241   0.046   0.421 -0.4797 -0.1674  0.7083
 5442SOL    HW216647   0.105   0.032   0.510  0.4851 -1.7081  2.0206
 5443SOL     OW16648   4.124   0.151   3.657  0.7055 -0.4953 -0.3001
 5443SOL    HW116649   4.128   0.190   3.748  0.8112 -0.4031 -0.3445
 5443SOL    HW216650   4.032   0.162   3.620  0.3634 -1.4935  0.2195
 5444SOL     OW16651   0.049   3.073   3.878  0.4181 -0.1197 -0.6357
 5444SOL    HW116652   0.112   3.023   3.817  1.7883  1.5177 -0.6158
 5444SOL    HW216653   0.092   3.086   3.967 -1.3055 -1.8738  0.5291
 5445SOL     OW16654   4.086   5.404   0.150  0.2647  0.4581  0.5227
 5445SOL    HW116655   4.002   5.408   0.096  1.3731 -1.1351 -1.4397
 5445SOL    HW216656   4.153   5.467   0.112  0.3563  0.9084  1.4029
 5446SOL     OW16657   3.266   1.026   3.984  0.4852  0.2352  0.6074
 5446SOL    HW116658   3.244   0.934   4.016  1.9313 -0.4456 -0.2534
 5446SOL    HW216659   3.293   1.023   3.888  0.6695  1.5455  0.5939
 5447SOL     OW16660   0.136   4.179   5.050  0.1561 -0.7288 -0.2799
 5447SOL    HW116661   0.214   4.202   4.992  0.9455 -1.7207  0.3547
 5447SOL    HW216662   0.060   4.148   4.993  0.7467 -1.2158 -0.8094
 5448SOL     OW16663   5.126   5.510   3.372 -0.1189 -0.1545  0.0225
 5448SOL    HW116664   5.081   5.554   3.450  0.7990 -0.0992  0.5381
 5448SOL    HW216665   5.162   5.421   3.400  2.0150  0.7270  0.2730
 5449SOL     OW16666   3.831   5.414   4.975 -0.8000 -0.5169  1.0305
 5449SOL    HW116667   3.851   5.359   4.894 -0.3517 -0.2289  0.9461
 5449SOL    HW216668   3.732   5.429   4.981 -0.7845  0.0384  0.1582
 5450SOL     OW16669   0.587   3.042   3.643  1.0106  0.0973  0.2537
 5450SOL    HW116670   0.661   3.001   3.590  3.5625  2.2487  1.9245
 5450SOL    HW216671   0.543   3.113   3.589  1.5288  0.1887 -0.0556
 5451SOL     OW16672   3.925   4.671   4.613  0.3591  0.0967  0.2504
 5451SOL    HW116673   3.855   4.641   4.548  1.1405 -4.1105  1.0475
 5451SOL    HW216674   3.883   4.686   4.703  0.2262 -1.0698  0.3995
 5452SOL     OW16675   4.793   0.028   4.360 -0.0533 -0.0652  0.5178
 5452SOL    HW116676   4.741  -0.050   4.396  0.6281 -0.1885  1.2647
 5452SOL    HW216677   4.738   0.075   4.291  0.0163 -1.9634 -0.9286
 5453SOL     OW16678   4.482   4.576   4.540 -0.6983 -0.3838 -0.1769
 5453SOL    HW116679   4.490   4.481   4.571 -0.7797 -0.7819 -1.3225
 5453SOL    HW216680   4.386   4.604   4.543 -0.7048 -0.4203 -0.0510
 5454SOL     OW16681   1.605   4.061   4.818  0.1375 -0.5850  1.2315
 5454SOL    HW116682   1.526   4.000   4.816  0.3970 -1.0772 -2.7312
 5454SOL    HW216683   1.677   4.024   4.759  1.0050  2.6340  0.0367
 5455SOL     OW16684   4.767   3.953   3.881  0.3375  0.4371  0.1058
 5455SOL    HW116685   4.781   3.882   3.812 -0.3478  1.3742 -1.0416
 5455SOL    HW216686   4.855   3.982   3.918  0.7344  0.0625 -0.5294
 5456SOL     OW16687   4.409   3.377   5.274 -0.6573 -0.2082 -0.1338
 5456SOL    HW116688   4.316   3.410   5.294 -1.0573 -1.0454 -0.5587
 5456SOL    HW216689   4.473   3.453   5.284 -1.2674  0.1781  1.0019
 5457SOL     OW16690   4.208   0.404   1.004 -0.5682 -0.4070 -0.1191
 5457SOL    HW116691   4.253   0.400   0.914  0.4027  1.3780  0.2474
 5457SOL    HW216692   4.112   0.378   0.993  0.0874 -2.7119 -1.1994
 5458SOL     OW16693   5.195   3.882   4.954  0.4037  0.5890  0.0907
 5458SOL    HW116694   5.212   3.980   4.944  2.0153  0.4829  1.4157
 5458SOL    HW216695   5.244   3.847   5.034  0.9729 -1.5611 -1.1096
 5459SOL     OW16696   5.241   3.905   4.330  0.1291  0.3291  0.4092
 5459SOL    HW116697   5.214   3.922   4.425  0.0614 -2.2041  0.8944
 5459SOL    HW216698   5.159   3.895   4.274  0.1401 -0.2705  0.4978
 5460SOL     OW16699   4.137   3.683   5.185  0.0811 -0.4984 -0.1462
 5460SOL    HW116700   4.139   3.596   5.236  1.0795  0.7405  2.0535
 5460SOL    HW216701   4.228   3.724   5.185  0.1845 -0.5087 -3.2185
 5461SOL     OW16702   4.240   3.534   4.728 -0.5097  0.3273 -0.0354
 5461SOL    HW116703   4.217   3.438   4.711 -1.8868  0.5863  0.2612
 5461SOL    HW216704   4.294   3.541   4.812 -0.4372 -0.1736 -0.0349
 5462SOL     OW16705   4.715   5.379   4.463 -0.0630  0.5881 -0.1607
 5462SOL    HW116706   4.804   5.349   4.498 -0.0800 -1.0624 -1.4008
 5462SOL    HW216707   4.645   5.364   4.533  0.2599 -0.4416 -0.0401
 5463SOL     OW16708   3.116   4.143   3.657  0.7942 -0.7630  0.3516
 5463SOL    HW116709   3.168   4.074   3.607  1.7087 -0.1687  0.4480
 5463SOL    HW216710   3.092   4.108   3.747  0.4316 -1.2938  0.0507
 5464SOL     OW16711   4.357   4.794   5.386 -0.1590  0.0441 -0.2723
 5464SOL    HW116712   4.357   4.812   5.288 -1.4107  2.3679  0.0685
 5464SOL    HW216713   4.407   4.709   5.405  2.6798  1.0053 -2.6321
 5465SOL     OW16714   5.510   4.937   5.254 -0.7761  0.0262 -0.0083
 5465SOL    HW116715   5.433   4.877   5.278 -0.6796 -0.5694 -1.1237
 5465SOL    HW216716   5.521   4.938   5.155 -0.0251  0.9809  0.0761
 5466SOL     OW16717   4.962   5.215   4.793 -0.3034  0.6966  0.5145
 5466SOL    HW116718   4.936   5.300   4.839  1.7890  1.4852  0.3835
 5466SOL    HW216719   5.053   5.187   4.825  0.6010  0.4605 -2.0226
 5467SOL     OW16720   4.166   5.563   4.298 -0.0956 -0.1143 -0.0783
 5467SOL    HW116721   4.227   5.642   4.294 -1.4528  0.9149 -1.1745
 5467SOL    HW216722   4.164   5.527   4.391 -0.8319  2.2704  0.8942
 5468SOL     OW16723   0.439   5.300   4.495 -0.3808  0.1980  0.4577
 5468SOL    HW116724   0.486   5.266   4.576 -0.0439 -1.1212 -0.2681
 5468SOL    HW216725   0.361   5.242   4.475  0.3101 -0.3130 -0.9035
 5469SOL     OW16726   4.388   4.186   5.050  0.0607  0.2676 -0.1191
 5469SOL    HW116727   4.446   4.127   4.993  1.1577 -0.0009  1.2262
 5469SOL    HW216728   4.431   4.275   5.060  1.1201 -0.4365  2.1969
 5470SOL     OW16729   3.953   4.835   5.569  0.0117  1.2243 -0.4063
 5470SOL    HW116730   3.943   4.755   5.511 -0.7951  1.9393 -1.2845
 5470SOL    HW216731   4.042   4.832   5.615 -0.5637 -0.8460  0.6677
 5471SOL     OW16732   3.560   5.392   4.924  0.5441 -0.3850 -0.4968
 5471SOL    HW116733   3.538   5.294   4.924 -0.8949 -0.0837 -1.0744
 5471SOL    HW216734   3.530   5.433   4.838 -1.4699  1.0863  0.7971
 5472SOL     OW16735   4.387   3.884   3.722 -0.0670 -0.0685  0.1778
 5472SOL    HW116736   4.440   3.956   3.767  0.9666 -0.5072 -0.2969
 5472SOL    HW216737   4.435   3.797   3.730 -1.1556 -0.6541  0.4759
 5473SOL     OW16738   4.948   4.773   3.226  0.3019  0.3900 -0.5144
 5473SOL    HW116739   4.981   4.797   3.318 -0.5353 -2.4847  0.6489
 5473SOL    HW216740   4.852   4.747   3.231  0.6083 -1.2160 -1.9052
 5474SOL     OW16741   4.813   5.138   5.542  0.6294 -0.0685 -0.1376
 5474SOL    HW116742   4.869   5.191   5.478  0.7802  1.0511  0.8675
 5474SOL    HW216743   4.745   5.198   5.584  0.6493 -0.7218  0.8621
 5475SOL     OW16744   0.981   3.554   2.843  0.7413  0.4412  0.2742
 5475SOL    HW116745   1.020   3.507   2.922  0.3625 -0.7175 -0.2207
 5475SOL    HW216746   0.905   3.613   2.873 -0.6285 -1.3943  0.5871
 5476SOL     OW16747   5.465   3.278   3.930 -0.4277  0.1322  0.2656
 5476SOL    HW116748   5.486   3.339   4.007  0.0315 -1.8100  1.7715
 5476SOL    HW216749   5.545   3.222   3.909 -0.4446  0.8506 -1.8992
 5477SOL     OW16750   5.493   0.512   4.223 -0.0872  0.6163 -0.1035
 5477SOL    HW116751   5.523   0.456   4.146  0.1360  1.0040 -0.3036
 5477SOL    HW216752   5.568   0.522   4.288 -0.5963 -0.5895  0.6967
 5478SOL     OW16753   0.105   5.410   4.340  0.7955  0.6607  1.2508
 5478SOL    HW116754   0.132   5.502   4.310 -0.0118  0.3422 -0.6008
 5478SOL    HW216755   0.007   5.408   4.358  0.1127 -0.5068 -1.8847
 5479SOL     OW16756   5.328   3.332   3.196 -0.2258  0.0026 -0.4231
 5479SOL    HW116757   5.242   3.285   3.215 -0.5051  0.4654 -0.5084
 5479SOL    HW216758   5.308   3.417   3.146  0.1663  0.7201  0.5959
 5480SOL     OW16759   3.696   4.141   2.649 -0.8529 -0.6846  0.3692
 5480SOL    HW116760   3.721   4.046   2.670 -1.4304 -0.6660  1.2087
 5480SOL    HW216761   3.608   4.162   2.692  0.1631  0.8285  1.8631
 5481SOL     OW16762   0.700   0.197   0.089 -0.5327  0.1095  0.1044
 5481SOL    HW116763   0.638   0.119   0.083  1.8409 -1.9136  0.3403
 5481SOL    HW216764   0.773   0.177   0.154  1.1170  1.8162 -1.0943
 5482SOL     OW16765   5.190   3.503   0.914  0.0393  0.0529  0.0691
 5482SOL    HW116766   5.261   3.565   0.948 -0.4320  0.7184 -0.1464
 5482SOL    HW216767   5.207   3.411   0.950  1.8859 -0.1655 -1.1995
 5483SOL     OW16768   0.297   0.037   0.258  0.6044  0.3355  0.2674
 5483SOL    HW116769   0.351  -0.034   0.213 -0.5955 -1.1025  0.9905
 5483SOL    HW216770   0.301   0.121   0.204  2.0957 -0.2507 -0.5998
 5484SOL     OW16771   0.629   4.905   5.114 -0.2467 -0.0340  0.2909
 5484SOL    HW116772   0.655   4.871   5.205 -0.1693 -1.6772 -0.3208
 5484SOL    HW216773   0.686   4.862   5.045  1.4275  3.0301 -0.4387
 5485SOL     OW16774   0.095   0.706   5.114  0.3747 -0.7064  0.3852
 5485SOL    HW116775   0.111   0.693   5.016  0.2592 -1.4444  0.4594
 5485SOL    HW216776   0.056   0.797   5.130 -0.5636 -0.9719 -0.3594
 5486SOL     OW16777   3.649   2.872   5.041 -0.4823  0.3626 -0.4009
 5486SOL    HW116778   3.654   2.793   5.102  0.0027  0.8525  0.2156
 5486SOL    HW216779   3.582   2.937   5.076 -1.1903  0.0401 -1.1381
 5487SOL     OW16780   3.935   5.457   0.369 -0.2432 -0.0898 -0.2385
 5487SOL    HW116781   3.981   5.527   0.424 -1.0102 -0.5072  0.9715
 5487SOL    HW216782   3.999   5.419   0.303  1.2041 -0.6580  1.3974
 5488SOL     OW16783   4.698   4.891   4.981 -0.0539  0.5283  0.6931
 5488SOL    HW116784   4.658   4.879   4.890  2.3320  1.0889 -0.5112
 5488SOL    HW216785   4.669   4.816   5.040  0.0185 -1.0490 -1.1813
 5489SOL     OW16786   3.924   5.461   4.541 -1.1384 -0.4613 -0.8151
 5489SOL    HW116787   3.897   5.557   4.537  2.0262  0.7196  1.6072
 5489SOL    HW216788   3.863   5.411   4.602 -1.3054  0.6393 -0.0686
 5490SOL     OW16789   1.066   4.529   4.195 -0.3731 -0.3608  0.7923
 5490SOL    HW116790   1.094   4.622   4.172 -0.3867 -0.8596 -1.4751
 5490SOL    HW216791   0.993   4.499   4.133  1.0633 -2.5815  0.0427
 5491SOL     OW16792   3.053   0.348   4.356  0.2642  0.2420  0.2219
 5491SOL    HW116793   2.987   0.383   4.290  0.9732  2.8633  0.7525
 5491SOL    HW216794   3.136   0.319   4.309  1.1422  2.9864 -0.1158
 5492SOL     OW16795   4.188   4.608   4.642 -0.2855 -0.4398 -0.4233
 5492SOL    HW116796   4.239   4.691   4.667  2.2364 -1.7711 -0.7752
 5492SOL    HW216797   4.102   4.633   4.598 -0.1167  1.9507  0.4627
 5493SOL     OW16798   4.841   4.387   3.960 -0.2836 -0.2242  0.0724
 5493SOL    HW116799   4.933   4.349   3.975 -0.3396 -1.3341 -2.0715
 5493SOL    HW216800   4.782   4.362   4.037  0.1182 -3.1858 -0.4834
 5494SOL     OW16801   4.304   5.281   5.004 -0.0133  0.3053  0.2147
 5494SOL    HW116802   4.344   5.361   5.048 -1.2380  1.6175 -0.9490
 5494SOL    HW216803   4.352   5.262   4.918 -1.0978  1.1680 -0.6022
 5495SOL     OW16804   0.170   0.355   4.635 -0.3252 -0.2232  0.6085
 5495SOL    HW116805   0.101   0.296   4.677  0.9560 -2.6693 -0.4701
 5495SOL    HW216806   0.257   0.305   4.628  1.0134  2.0083  0.0376
 5496SOL     OW16807   5.507   4.512   3.948  0.2901  0.0262 -0.2622
 5496SOL    HW116808   5.539   4.418   3.948 -0.5914 -0.2915 -1.2046
 5496SOL    HW216809   5.492   4.542   4.042  1.1865 -0.5505  0.0763
 5497SOL     OW16810   4.630   3.949   0.100 -1.3464 -0.1994  0.4229
 5497SOL    HW116811   4.613   3.934   0.198 -2.9676  0.4663  0.2711
 5497SOL    HW216812   4.555   3.908   0.047 -0.3820 -0.7253 -0.5620
 5498SOL     OW16813   3.777   5.431   0.814  0.3816  0.6865 -0.2633
 5498SOL    HW116814   3.807   5.336   0.821  0.5689  0.8216  1.0291
 5498SOL    HW216815   3.754   5.452   0.719  0.7913 -0.5073 -0.6432
 5499SOL     OW16816   5.150   5.377   5.507  0.0581 -1.1227  0.5394
 5499SOL    HW116817   5.194   5.467   5.518 -0.2313 -0.2433 -3.8318
 5499SOL    HW216818   5.209   5.307   5.548  2.6406  0.6227  0.0963
 5500SOL     OW16819   4.781   4.034   5.065  0.0561  0.2878 -0.2983
 5500SOL    HW116820   4.826   4.003   5.149 -1.1258  1.5081  0.8464
 5500SOL    HW216821   4.787   3.963   4.995  0.3575 -1.1055  1.0899
 5501SOL     OW16822   4.118   4.641   5.360  0.0105 -0.6449 -0.2428
 5501SOL    HW116823   4.187   4.703   5.398 -0.9160  1.5922 -2.0468
 5501SOL    HW216824   4.164   4.570   5.306  1.0757 -1.6387  1.8224
 5502SOL     OW16825   4.599   4.961   0.739 -0.4886  0.3963  0.2376
 5502SOL    HW116826   4.521   5.023   0.746  1.7362  3.3060  1.2934
 5502SOL    HW216827   4.646   4.956   0.826  0.1908 -1.8421 -0.1941
 5503SOL     OW16828   5.448   5.414   4.634 -0.0685  0.2189 -0.4002
 5503SOL    HW116829   5.432   5.321   4.601  2.4969 -1.1549  1.8027
 5503SOL    HW216830   5.380   5.436   4.704 -0.7031  0.0105 -0.9443
 5504SOL     OW16831   0.032   4.055   4.294  0.1976  0.0266  0.2008
 5504SOL    HW116832   0.038   3.997   4.375  0.8805  0.6992  0.6345
 5504SOL    HW216833   0.124   4.073   4.258 -0.0693  0.0860 -0.4803
 5505SOL     OW16834   3.828   4.602   4.937 -0.1669  0.0412  0.3687
 5505SOL    HW116835   3.872   4.516   4.914 -0.8655 -1.0468  2.7795
 5505SOL    HW216836   3.881   4.650   5.007 -1.9980 -0.6999  2.4009
 5506SOL     OW16837   0.228   4.262   4.670 -0.0186 -0.5125 -0.4073
 5506SOL    HW116838   0.257   4.308   4.753  1.6687 -0.6117 -0.9055
 5506SOL    HW216839   0.195   4.329   4.604  0.1005 -0.2666 -0.2176
 5507SOL     OW16840   5.578   4.835   0.255 -0.2620  0.2182  0.2432
 5507SOL    HW116841   5.589   4.746   0.212 -0.5493  0.3248 -0.0517
 5507SOL    HW216842   5.488   4.872   0.235 -1.0521 -0.4554  2.2741
 5508SOL     OW16843   3.935   5.261   4.747  0.1834  0.2007 -0.1296
 5508SOL    HW116844   4.027   5.298   4.738  0.5968 -0.6746  0.3113
 5508SOL    HW216845   3.916   5.198   4.672 -1.5728  3.2745 -2.5314
 5509SOL     OW16846   3.104   2.949   4.508  0.2992 -0.3012  0.1865
 5509SOL    HW116847   3.171   2.877   4.526 -1.2963 -1.8938  0.0553
 5509SOL    HW216848   3.068   2.984   4.594  1.0554  0.3559  0.2492
 5510SOL     OW16849   0.416   2.838   3.765  0.5605 -0.0600  0.2129
 5510SOL    HW116850   0.407   2.832   3.865  0.6998 -0.7881  0.1863
 5510SOL    HW216851   0.472   2.917   3.741 -0.3329  0.7274  0.6648
 5511SOL     OW16852   4.428   3.261   0.052  0.5034  0.6690 -0.3860
 5511SOL    HW116853   4.462   3.221  -0.033 -0.3301  1.8290 -1.2927
 5511SOL    HW216854   4.350   3.207   0.085  1.9841 -0.9053  0.7121
 5512SOL     OW16855   0.053   5.521   0.783  0.1442  0.2590  0.2899
 5512SOL    HW116856   0.009   5.581   0.717  1.2423  1.2156  0.3964
 5512SOL    HW216857   0.028   5.426   0.764 -0.2816  0.5950 -0.9188
 5513SOL     OW16858   2.035   1.272   5.173  0.0198  0.5623  0.1584
 5513SOL    HW116859   2.018   1.190   5.227  2.3504 -1.1037 -1.4541
 5513SOL    HW216860   1.961   1.338   5.189 -1.2018 -1.2272  2.5804
 5514SOL     OW16861   3.392   0.171   5.491  0.2611  0.6733 -0.4329
 5514SOL    HW116862   3.439   0.110   5.555 -0.8992  0.7956  0.5800
 5514SOL    HW216863   3.420   0.266   5.509  1.9715  0.5113 -1.9271
 5515SOL     OW16864   0.263   3.966   3.819 -0.1752 -0.1203 -0.2408
 5515SOL    HW116865   0.194   4.033   3.794 -0.5565  0.1667  1.4246
 5515SOL    HW216866   0.347   4.013   3.846  0.0486 -0.3803 -0.4753
 5516SOL     OW16867   4.673   3.532   4.245  0.7387  0.1680 -0.5416
 5516SOL    HW116868   4.591   3.571   4.205  1.3860  1.5811 -0.5296
 5516SOL    HW216869   4.658   3.434   4.263 -0.8258  0.3389 -0.7925
 5517SOL     OW16870   0.189   2.984   3.679  0.4213  0.4747 -0.5418
 5517SOL    HW116871   0.235   2.901   3.709 -0.4081  0.7605  1.6760
 5517SOL    HW216872   0.211   3.001   3.583  4.2286  0.1614  0.1268
 5518SOL     OW16873   4.271   4.856   4.566  0.3674  0.4674 -0.1518
 5518SOL    HW116874   4.356   4.860   4.513 -0.0184  1.1354 -0.7474
 5518SOL    HW216875   4.280   4.913   4.648  0.2328  1.1818 -0.6232
 5519SOL     OW16876   3.926   4.702   4.243 -0.5186 -0.2714  0.0417
 5519SOL    HW116877   3.984   4.770   4.287 -0.5499 -0.3032  0.1304
 5519SOL    HW216878   3.855   4.748   4.189  0.3747 -0.2136 -1.1115
 5520SOL     OW16879   4.376   4.625   4.898 -0.3708  0.2657 -0.2993
 5520SOL    HW116880   4.293   4.570   4.885  0.2870 -1.0689  0.8477
 5520SOL    HW216881   4.456   4.566   4.891  0.4396  1.3472 -0.3477
 5521SOL     OW16882   3.905   4.594   0.189 -0.4674 -0.2041  0.3804
 5521SOL    HW116883   3.995   4.558   0.209 -0.7512 -0.3402  1.4776
 5521SOL    HW216884   3.904   4.693   0.206 -0.2208 -0.0014 -0.7378
 5522SOL     OW16885   4.550   4.646   4.286 -0.2993 -0.1718 -0.4071
 5522SOL    HW116886   4.539   4.622   4.383 -0.9324  1.7348  0.0278
 5522SOL    HW216887   4.642   4.682   4.271  0.1151 -1.3189 -0.7368
 5523SOL     OW16888   4.728   5.025   4.187 -0.5322  0.6535  0.1616
 5523SOL    HW116889   4.631   5.002   4.177 -0.6086  1.2393 -0.5475
 5523SOL    HW216890   4.772   5.025   4.097  0.7678 -2.1881  0.6819
 5524SOL     OW16891   5.154   1.174   3.667 -1.2910 -0.1652  0.4668
 5524SOL    HW116892   5.093   1.243   3.706 -0.6448 -0.9928  3.1933
 5524SOL    HW216893   5.131   1.084   3.705 -1.6355 -1.4110 -2.4205
 5525SOL     OW16894   5.242   5.448   4.822  0.1567 -0.0877 -0.4045
 5525SOL    HW116895   5.273   5.466   4.915 -0.1232 -1.8841  0.0705
 5525SOL    HW216896   5.157   5.497   4.804  1.3856  2.1711 -0.5749
 5526SOL     OW16897   4.468   4.278   4.598  0.0359  0.2172  0.2012
 5526SOL    HW116898   4.480   4.187   4.636  1.3092  0.4295  0.3647
 5526SOL    HW216899   4.500   4.280   4.503 -0.4441  0.3745  0.0406
 5527SOL     OW16900   4.252   4.846   1.001 -0.2555  0.2250 -0.1761
 5527SOL    HW116901   4.264   4.758   0.955 -1.1381 -0.3366  0.6514
 5527SOL    HW216902   4.256   4.833   1.100 -1.7097  0.8964 -0.0080
 5528SOL     OW16903   0.666   5.356   0.578  0.3726 -0.0473  0.3005
 5528SOL    HW116904   0.641   5.345   0.482  0.4522 -0.4356  0.3204
 5528SOL    HW216905   0.639   5.447   0.610 -0.2940 -0.1710  0.1058
 5529SOL     OW16906   3.890   3.782   3.122  0.2660 -0.6260  0.1819
 5529SOL    HW116907   3.987   3.782   3.098 -0.2145  1.7221 -2.2624
 5529SOL    HW216908   3.848   3.697   3.088  1.0614 -0.6263 -0.8726
 5530SOL     OW16909   0.375   3.826   4.798 -0.1441  0.5851  0.3277
 5530SOL    HW116910   0.422   3.827   4.710  0.6562  0.1441  0.7401
 5530SOL    HW216911   0.278   3.810   4.784 -0.1726  1.4713 -0.5363
 5531SOL     OW16912   3.259   0.562   5.415 -0.1005  0.0747  0.5132
 5531SOL    HW116913   3.291   0.650   5.450  0.5289 -0.5391  1.5593
 5531SOL    HW216914   3.184   0.576   5.351 -0.0602  1.3621  0.7236
 5532SOL     OW16915   4.985   4.662   4.505  0.3645 -0.1722 -0.4167
 5532SOL    HW116916   5.051   4.704   4.567  0.3906 -1.9182  0.8321
 5532SOL    HW216917   4.906   4.631   4.557  1.1589 -3.2784 -0.8593
 5533SOL     OW16918   3.544   5.577   0.034  0.1069  0.3887  0.4745
 5533SOL    HW116919   3.605   5.579   0.114  1.5604  0.3321 -0.5903
 5533SOL    HW216920   3.479   5.501   0.044  2.1520 -1.4846  0.3124
 5534SOL     OW16921   5.002   4.051   3.968  0.0226  0.5540  0.2887
 5534SOL    HW116922   5.020   4.019   3.875  1.0355 -1.3671  1.0896
 5534SOL    HW216923   5.078   4.108   3.999  0.1173  0.4369  0.2712
 5535SOL     OW16924   3.914   4.399  -0.013  0.9350 -0.3002 -0.2986
 5535SOL    HW116925   4.013   4.396  -0.031  1.2010 -1.4589  1.1493
 5535SOL    HW216926   3.898   4.442   0.076 -0.0000  1.1776 -1.1327
 5536SOL     OW16927   3.974   5.272   5.281 -0.8002  0.4455 -0.1965
 5536SOL    HW116928   3.878   5.293   5.301 -0.9281  1.1198 -1.4268
 5536SOL    HW216929   3.980   5.224   5.193 -0.2656 -2.4155  1.2799
 5537SOL     OW16930   5.075   4.565   4.272  0.0159  0.4759 -0.4893
 5537SOL    HW116931   5.059   4.617   4.356  0.5161  2.6730 -1.6657
 5537SOL    HW216932   5.019   4.483   4.272 -2.7576  2.2363  0.4264
 5538SOL     OW16933   0.011   5.277   0.008  0.2740 -0.0810 -0.3315
 5538SOL    HW116934   0.047   5.206   0.069  1.3544 -0.3376 -1.2279
 5538SOL    HW216935   0.045   5.366   0.036  1.5967 -0.3104 -1.1075
 5539SOL     OW16936   4.930   4.660   5.144 -0.0519 -0.0700  0.2428
 5539SOL    HW116937   4.957   4.756   5.154  0.9420 -0.1719 -1.1474
 5539SOL    HW216938   4.933   4.635   5.047  0.1809 -1.6570  0.6361
 5540SOL     OW16939   3.530   5.021   4.655 -0.8142 -0.2479  0.3756
 5540SOL    HW116940   3.510   5.086   4.582  0.4824  0.4895  0.6337
 5540SOL    HW216941   3.621   4.982   4.641 -0.5415 -0.0987  1.5708
 5541SOL     OW16942   5.334   4.634   5.059  0.3075  0.2817 -0.4040
 5541SOL    HW116943   5.413   4.662   5.003 -1.2512  2.7343 -1.5434
 5541SOL    HW216944   5.367   4.595   5.145  2.7631  0.8056 -1.0186
 5542SOL     OW16945   0.166   3.296   3.347  0.3103 -0.0109  0.2123
 5542SOL    HW116946   0.184   3.346   3.262  1.3880  1.7261  1.4031
 5542SOL    HW216947   0.070   3.305   3.371  0.5598  2.0157  0.6600
 5543SOL     OW16948   0.331   0.072   3.968 -0.0369 -0.2607 -0.3046
 5543SOL    HW116949   0.241   0.077   3.924  0.5435 -0.6288 -1.5990
 5543SOL    HW216950   0.389   0.146   3.934  0.3179 -0.3410  0.1171
 5544SOL     OW16951   4.749   5.398   0.566  0.3354 -0.1625  0.1638
 5544SOL    HW116952   4.716   5.388   0.472 -1.3203 -1.0307  0.8015
 5544SOL    HW216953   4.677   5.435   0.624  0.8696 -0.9076  1.3648
 5545SOL     OW16954   5.220   4.206   4.013 -0.1387  0.1128  0.2551
 5545SOL    HW116955   5.247   4.302   4.011  0.8907 -0.1737 -0.1575
 5545SOL    HW216956   5.291   4.153   4.060 -0.3398 -0.5574 -0.1920
 5546SOL     OW16957   4.376   0.199   0.415  0.3228  0.3045 -0.1305
 5546SOL    HW116958   4.407   0.229   0.325  3.0499  1.0759  0.9378
 5546SOL    HW216959   4.303   0.259   0.448  0.7728  1.3275 -0.9645
 5547SOL     OW16960   3.949   0.777   3.695 -0.2422 -0.1261  0.4830
 5547SOL    HW116961   3.924   0.809   3.603  0.5006  1.8962  0.9347
 5547SOL    HW216962   3.870   0.785   3.756  0.1301  1.6507  0.7675
 5548SOL     OW16963   0.117   4.757   5.423 -0.2004  0.0433  0.2780
 5548SOL    HW116964   0.083   4.819   5.493 -0.3027 -0.4927  0.7083
 5548SOL    HW216965   0.165   4.809   5.353 -0.0813  0.5802  0.7532
 5549SOL     OW16966   4.509   5.444   4.700  0.2741 -0.3380 -0.4518
 5549SOL    HW116967   4.528   5.436   4.797 -1.3419 -0.6943 -0.1459
 5549SOL    HW216968   4.493   5.540   4.677  2.7360  0.0603 -0.8223
 5550SOL     OW16969   4.546   3.851   4.398 -0.1431  0.2407  0.4621
 5550SOL    HW116970   4.598   3.906   4.332 -1.4878  1.4452  0.3517
 5550SOL    HW216971   4.450   3.846   4.369 -0.5892  0.0672  1.8844
 5551SOL     OW16972   4.339   0.179   3.455  0.1269 -0.0036  0.3145
 5551SOL    HW116973   4.353   0.087   3.420 -1.0249  0.3659 -1.2258
 5551SOL    HW216974   4.246   0.188   3.491 -0.8855  1.3311 -2.3761
 5552SOL     OW16975   4.691   5.435   0.300 -0.8943 -0.2096  0.1002
 5552SOL    HW116976   4.603   5.451   0.254 -1.4370 -3.3532 -0.1675
 5552SOL    HW216977   4.749   5.378   0.242  1.3914  1.7476  0.3024
 5553SOL     OW16978   3.837   4.471   4.142 -0.1001 -0.6755  0.3552
 5553SOL    HW116979   3.895   4.540   4.184  1.1161 -1.6398  0.3233
 5553SOL    HW216980   3.742   4.486   4.168  0.4809 -0.6051  2.5813
 5554SOL     OW16981   4.671   5.356   3.217 -0.6435  0.1655  0.3110
 5554SOL    HW116982   4.665   5.344   3.316  0.1362  1.5620  0.5457
 5554SOL    HW216983   4.674   5.453   3.195  0.1625 -0.1407 -1.0240
 5555SOL     OW16984   4.588   5.263   0.014  0.2293  0.2875 -0.1105
 5555SOL    HW116985   4.558   5.290  -0.078  1.6561  2.2020 -0.0828
 5555SOL    HW216986   4.545   5.322   0.082  0.5344  0.0423  0.3001
 5556SOL     OW16987   0.305   4.718   4.534  0.3452  1.0597  0.1599
 5556SOL    HW116988   0.342   4.779   4.604  0.7499  0.1465  0.7515
 5556SOL    HW216989   0.379   4.667   4.490  0.0725  1.4385 -0.7749
 5557SOL     OW16990   0.332   4.925   4.741  0.5223 -0.3788  0.0238
 5557SOL    HW116991   0.313   4.902   4.837  2.8774  3.0324  1.5018
 5557SOL    HW216992   0.273   5.001   4.713  3.3839  2.3500  0.7858
 5558SOL     OW16993   0.057   3.864   4.526  0.9465  0.5754  0.0126
 5558SOL    HW116994   0.125   3.816   4.471  0.2803  0.9832 -1.2194
 5558SOL    HW216995  -0.034   3.828   4.504  0.4785  2.0612 -0.6022
 5559SOL     OW16996   4.705   5.125   4.699 -0.5766 -0.2777  0.1447
 5559SOL    HW116997   4.712   5.068   4.618 -0.3846  0.3481 -0.2832
 5559SOL    HW216998   4.797   5.147   4.732 -0.5835 -2.4887  1.9583
 5560SOL     OW16999   0.310   3.282   5.092  0.0691 -0.3953 -0.7910
 5560SOL    HW117000   0.390   3.259   5.036  0.2038 -1.3811 -0.2189
 5560SOL    HW217001   0.256   3.352   5.046  1.1886  0.1864 -1.2525
 5561SOL     OW17002   4.483   0.320   3.872 -0.1979 -0.2597 -0.1703
 5561SOL    HW117003   4.446   0.259   3.942  1.4005 -0.4423  0.5647
 5561SOL    HW217004   4.510   0.267   3.792  0.2381 -0.3829  0.0571
 5562SOL     OW17005   3.781   3.970   0.447  0.3743  0.4729  0.0405
 5562SOL    HW117006   3.761   3.879   0.411 -0.4473  0.9192 -0.6493
 5562SOL    HW217007   3.801   3.963   0.545  0.7090 -0.4923 -0.0823
 5563SOL     OW17008   5.149   4.724   3.853 -0.7093  0.1153  0.1783
 5563SOL    HW117009   5.175   4.821   3.845  1.6306 -0.4010  0.5687
 5563SOL    HW217010   5.169   4.692   3.945  0.6255 -1.2260 -0.5160
 5564SOL     OW17011   0.008   4.274   3.852 -0.0993  0.7618  0.1128
 5564SOL    HW117012  -0.036   4.184   3.860  0.2417  0.6869  1.3345
 5564SOL    HW217013   0.053   4.281   3.763  0.5974 -0.6166  0.3339
 5565SOL     OW17014   5.011   0.046   4.203  0.1883  0.1993 -0.2196
 5565SOL    HW117015   4.923   0.028   4.248  0.4032 -1.3185 -0.3443
 5565SOL    HW217016   5.006   0.132   4.153 -0.8981  0.6353  0.5929
 5566SOL     OW17017   3.385   3.136   4.327 -0.5298  0.0705  0.1712
 5566SOL    HW117018   3.468   3.190   4.339 -1.3687  1.4931 -0.1481
 5566SOL    HW217019   3.403   3.060   4.265  0.2096  1.1859 -1.0351
 5567SOL     OW17020   4.523   0.126   3.689  0.1972 -0.0802 -0.0389
 5567SOL    HW117021   4.439   0.130   3.635  0.7475 -2.5256 -1.1704
 5567SOL    HW217022   4.508   0.069   3.770  0.9937 -1.3334 -0.7488
 5568SOL     OW17023   3.958   4.721   5.132 -0.1124  0.4131  0.3477
 5568SOL    HW117024   3.877   4.760   5.174 -0.2853  1.9123 -1.2521
 5568SOL    HW217025   4.019   4.686   5.202 -2.0872 -0.7001  1.5894
 5569SOL     OW17026   4.518   0.230   0.180 -0.0486  0.6455 -0.5051
 5569SOL    HW117027   4.593   0.173   0.213 -0.8425  0.2389  0.6688
 5569SOL    HW217028   4.544   0.272   0.093  1.4661  0.3886 -0.2081
 5570SOL     OW17029   4.033   0.253   0.238  0.3475 -0.1756  0.1923
 5570SOL    HW117030   4.001   0.209   0.322 -1.1405 -1.9044 -1.1967
 5570SOL    HW217031   3.983   0.339   0.225  0.0535 -0.2620  0.7117
 5571SOL     OW17032   4.096   3.746   0.427  0.4719 -0.4472 -0.4024
 5571SOL    HW117033   4.067   3.698   0.510  0.1965 -0.0821 -0.2850
 5571SOL    HW217034   4.088   3.845   0.442  2.5257 -0.2881 -0.0805
 5572SOL     OW17035   4.460   5.199   4.797 -0.3616  0.1446 -0.2851
 5572SOL    HW117036   4.552   5.162   4.785  0.0617  0.1524  2.3672
 5572SOL    HW217037   4.458   5.294   4.767  0.6254  0.2737  0.0151
 5573SOL     OW17038   4.535   0.369   4.989 -0.3543  0.5192 -0.4651
 5573SOL    HW117039   4.574   0.458   4.967  2.0369 -0.7298 -1.6120
 5573SOL    HW217040   4.436   0.371   4.972 -0.2503  2.6937 -1.1610
 5574SOL     OW17041   4.959   4.626   4.862 -0.1776 -0.4650  0.2518
 5574SOL    HW117042   5.022   4.696   4.826 -1.5617  1.7053  1.8723
 5574SOL    HW217043   4.871   4.635   4.817 -0.5749 -0.6997  0.9761
 5575SOL     OW17044   3.978   4.377   4.890 -0.2372  0.4278 -0.6965
 5575SOL    HW117045   4.000   4.316   4.966  1.5850  1.5964 -0.2111
 5575SOL    HW217046   4.056   4.385   4.829 -1.0318  0.9606 -1.6795
 5576SOL     OW17047   5.388   4.057   4.147 -0.5756 -0.0874  0.7865
 5576SOL    HW117048   5.457   4.092   4.210  0.3267 -0.6024  0.1173
 5576SOL    HW217049   5.324   3.997   4.197 -0.7279  0.6266  1.4667
 5577SOL     OW17050   0.575   5.161   5.005 -0.4733 -0.7334  0.2525
 5577SOL    HW117051   0.591   5.065   5.029 -0.0987 -0.3700  1.5038
 5577SOL    HW217052   0.490   5.192   5.048  0.6062  0.1463  1.8218
 5578SOL     OW17053   3.687   0.925   4.579  0.5356  0.0125 -0.5530
 5578SOL    HW117054   3.599   0.897   4.619  1.3175 -1.6243  0.1444
 5578SOL    HW217055   3.704   0.872   4.496  0.5915  0.7767 -1.0385
 5579SOL     OW17056   5.203   0.982   3.333  0.5554  0.0716  0.2740
 5579SOL    HW117057   5.209   0.910   3.402  1.8863  1.1061  1.3114
 5579SOL    HW217058   5.107   0.996   3.306  0.0627 -0.6784  1.5715
 5580SOL     OW17059   5.248   4.674   4.099 -0.3344 -0.0769 -0.3756
 5580SOL    HW117060   5.189   4.639   4.171 -1.1241  2.5065  0.3343
 5580SOL    HW217061   5.344   4.656   4.123 -0.6683 -2.7932 -0.7232
 5581SOL     OW17062   4.727   4.883   4.514  0.2229 -0.1047  0.0385
 5581SOL    HW117063   4.774   4.856   4.430  2.8792  0.9127  1.0777
 5581SOL    HW217064   4.739   4.813   4.583  1.0911  0.5887  0.6104
 5582SOL     OW17065   5.219   0.442   4.176 -0.1388  0.5156 -0.1620
 5582SOL    HW117066   5.198   0.384   4.254  0.8269 -0.0143 -0.2846
 5582SOL    HW217067   5.305   0.490   4.192 -0.0385  0.5607 -0.8096
 5583SOL     OW17068   4.245   0.753   0.067  0.2681 -0.3108 -0.2972
 5583SOL    HW117069   4.262   0.683   0.137  2.2687 -0.8930 -1.2791
 5583SOL    HW217070   4.276   0.719  -0.022 -1.3863  0.7612 -1.3198
 5584SOL     OW17071   3.265   0.244   4.238  0.3736  0.7902 -0.1267
 5584SOL    HW117072   3.256   0.164   4.179  0.3019  1.4211 -0.9867
 5584SOL    HW217073   3.341   0.230   4.302  0.9939  0.4300 -0.9251
 5585SOL     OW17074   4.552   0.014   5.373 -0.1272  0.1215 -0.1834
 5585SOL    HW117075   4.517  -0.000   5.280  1.5294  1.4325 -1.0494
 5585SOL    HW217076   4.489   0.075   5.423 -1.8347 -1.7939  0.1377
 5586SOL     OW17077   5.143   2.648   0.938 -0.2382 -0.4330  0.3635
 5586SOL    HW117078   5.190   2.731   0.968  1.0910 -1.2701  0.6988
 5586SOL    HW217079   5.047   2.654   0.962  0.0919  0.4635  1.5557
 5587SOL     OW17080   4.671   0.137   4.122  0.4825 -0.2060 -0.4828
 5587SOL    HW117081   4.576   0.163   4.110 -0.1486 -0.9215  2.2932
 5587SOL    HW217082   4.695   0.067   4.054 -1.2280 -0.6393 -0.6878
 5588SOL     OW17083   4.948   0.269   4.419  0.6499  0.2439  0.2459
 5588SOL    HW117084   5.043   0.252   4.393  1.1428 -0.1655  2.1686
 5588SOL    HW217085   4.892   0.189   4.396  1.0357 -0.0646  0.3807
 5589SOL     OW17086   3.211   4.299   4.798  0.7182 -0.1691 -0.0288
 5589SOL    HW117087   3.231   4.382   4.851  0.3762  1.0841 -1.7686
 5589SOL    HW217088   3.285   4.233   4.811  1.1207  0.4852  1.2168
 5590SOL     OW17089   5.084   5.006   3.092  0.1027 -0.1595 -0.0925
 5590SOL    HW117090   5.041   4.939   3.153 -0.2463  0.8251  0.7783
 5590SOL    HW217091   5.037   5.094   3.101  1.6377  0.6763  0.0974
 5591SOL     OW17092   0.021   3.641   3.741 -0.1486 -0.7433 -0.4621
 5591SOL    HW117093   0.090   3.588   3.691  1.3939  0.5829  0.1606
 5591SOL    HW217094   0.012   3.731   3.699 -0.8453 -0.5876  0.0163
 5592SOL     OW17095   4.489   3.079   4.563 -0.0597 -0.5621 -0.2246
 5592SOL    HW117096   4.547   3.137   4.620 -0.5590 -1.1152  0.8801
 5592SOL    HW217097   4.416   3.040   4.619 -0.0772 -1.7869 -1.0696
 5593SOL     OW17098   4.276   5.017   3.562  0.4435  0.3856  0.4061
 5593SOL    HW117099   4.226   5.094   3.523  1.1707  0.8145  0.3103
 5593SOL    HW217100   4.372   5.041   3.572  0.5465 -0.2637  1.0408
 5594SOL     OW17101   5.245   4.148   4.969 -0.7240  0.0514 -0.6699
 5594SOL    HW117102   5.212   4.172   5.060 -0.1560 -0.3805 -0.3422
 5594SOL    HW217103   5.224   4.222   4.905 -2.8016 -0.4403 -0.6060
 5595SOL     OW17104   1.613   4.116   3.367  0.5170 -0.0209 -0.0308
 5595SOL    HW117105   1.573   4.171   3.293  1.1698  0.3593 -0.1022
 5595SOL    HW217106   1.559   4.128   3.450  0.9660  1.1638  0.1026
 5596SOL     OW17107   0.972   4.426   4.460  0.3309 -0.2326  0.4211
 5596SOL    HW117108   0.884   4.406   4.417  0.6706 -0.0593 -0.3615
 5596SOL    HW217109   1.033   4.469   4.394  0.3668  1.4341  1.4766
 5597SOL     OW17110   0.337   3.215   3.699 -0.8808 -0.0523  0.4222
 5597SOL    HW117111   0.386   3.234   3.614  0.9552 -3.3903  0.5607
 5597SOL    HW217112   0.280   3.134   3.688 -0.5269 -0.6306  2.3510
 5598SOL     OW17113   4.313   4.015   2.954 -0.3942 -0.0635  0.4033
 5598SOL    HW117114   4.342   4.022   2.858  0.6540  0.0641  0.7170
 5598SOL    HW217115   4.357   4.088   3.007 -1.4721  0.2684  0.8720
 5599SOL     OW17116   4.010   1.004   3.857 -0.4927 -0.1719 -0.0911
 5599SOL    HW117117   3.972   0.912   3.870 -1.7349  0.5322  1.6358
 5599SOL    HW217118   3.945   1.061   3.807 -0.0217 -0.0380 -0.5561
 5600NA      NA17119   1.632   0.622   3.051  0.6846  0.1262 -0.1292
 5601NA      NA17120   1.025   1.129   2.372  0.0138  0.3118  0.1791
 5602NA      NA17121   0.573   1.895   0.989 -0.1427  0.1450 -0.0731
 5603NA      NA17122   0.927   2.535   5.327 -0.0398  0.1951 -0.3367
 5604NA      NA17123   2.024   3.493   0.802  0.2086  0.1158 -0.0434
 5605NA      NA17124   0.188   5.338   3.395  0.0638  0.1496 -0.0678
 5606NA      NA17125   1.503   4.514   2.539  0.2159  0.5608 -0.4197
 5607NA      NA17126   0.085   0.356   0.174 -0.0252  0.4694  0.2411
 5608NA      NA17127   3.278   4.759   3.292  0.0870  0.3873  0.5976
 5609NA      NA17128   1.993   3.231   4.662 -0.1933 -0.2596  0.0108
 5610NA      NA17129   5.494   1.328   3.400  0.1720 -0.2090 -0.1910
 5611NA      NA17130   5.224   1.589   2.375  0.0636 -0.0087 -0.2234
 5612NA      NA17131   0.040   2.932   3.298  0.1679  0.2677 -0.0318
 5613NA      NA17132   4.786   2.809   4.280  0.2866 -0.0407  0.0180
 5614NA      NA17133   3.951   0.001   5.088  0.5558  0.1867  0.3369
 5615NA      NA17134   5.205   3.011   3.804 -0.2396  0.1866  0.2622
 5616CL      CL17135   0.112   3.569   2.165  0.3943 -0.3010 -0.1946
 5617CL      CL17136   1.128   4.323   5.593  0.1888 -0.0805  0.1299
 5618CL      CL17137   0.856   4.854   2.377  0.0558 -0.1813 -0.0757
 5619CL      CL17138   0.377   5.004   3.426 -0.1882  0.5369  0.0950
 5620CL      CL17139   3.506   0.148   4.453  0.0917 -0.4073 -0.2186
 5621CL      CL17140   2.128   0.143   4.709 -0.0312 -0.2369  0.5483
 5622CL      CL17141   2.979   0.947   0.652 -0.0259 -0.1322 -0.3262
 5623CL      CL17142   2.491   4.129   2.427 -0.2563 -0.0979  0.3615
 5624CL      CL17143   4.234   0.027   5.110 -0.1524  0.2329 -0.4575
 5625CL      CL17144   4.798   1.979   4.458 -0.1986 -0.0733 -0.2018
 5626CL      CL17145   4.349   0.626   5.341 -0.3712 -0.0621  0.5256
 5627CL      CL17146   4.789   2.730   0.925  0.3649 -0.1541 -0.0501
 5628CL      CL17147   3.801   3.440   0.324 -0.2189 -0.0069 -0.2184
 5629CL      CL17148   4.101   4.075   3.432 -0.0527  0.2536  0.1685
 5630CL      CL17149   4.366   2.401   4.041 -0.0251 -0.5246 -0.3859
 5631CL      CL17150   3.308   3.983   0.621 -0.4852 -0.1226 -0.0875
   5.59418   5.59418   5.59418
