; Define preprocessor options
define                  = -DPOSRES  ; Position restraint the solute atoms

; Run control
integrator              = md        ; Leap-frog integrator
nsteps                  = 50000     ; 2 * 50000 = 100 ps
dt                      = 0.002     ; 2 fs step size

; Output control
nstxout                 = 500       ; save coordinates every 1.0 ps
nstvout                 = 500       ; save velocities every 1.0 ps
nstenergy               = 500       ; save energies every 1.0 ps
nstlog                  = 500       ; update log file every 1.0 ps

; Bond dynamics
continuation            = no        ; First dynamics run, no continuation
constraint_algorithm    = lincs     ; holonomic constraints 
constraints             = h-bonds   ; constrain bonds involving Hydrogen
lincs_iter              = 1         ; accuracy of LINCS
lincs_order             = 4         ; also related to accuracy

; Neighbor searching and Nonbonded interactions
cutoff-scheme           = Verlet    ; Buffered neighbor searching
ns_type                 = grid      ; Search neighboring grid cells
nstlist                 = 10        ; 20 fs frequency to update neighbor list
rcoulomb                = 1.0       ; Short-range electrostatic cutoff (nm)
rvdw                    = 1.0       ; Short-range Van der Waals cutoff (nm)
DispCorr                = EnerPres  ; Account for long-range VdW corrections

; Electrostatics
coulombtype             = PME       ; Particle Mesh Ewald for long-range electrostatics
pme_order               = 4         ; cubic interpolation
fourierspacing          = 0.16      ; grid spacing for FFT

; Temperature coupling is ON
tcoupl                  = V-rescale             ; Modified Berendsen thermostat
tc-grps                 = Protein Non-Protein   ; Two coupling groups (adjust if needed)
tau_t                   = 0.1     0.1           ; Time constant (ps)
ref_t                   = 300     300           ; Target temperature (K)

; Pressure coupling is OFF for NVT
pcoupl                  = no        ; Fixed volume

; Velocity generation
gen_vel                 = yes       ; Assign velocities from Maxwell distribution
gen_temp                = 300       ; Temperature for Maxwell distribution
gen_seed                = -1        ; Pseudo-random seed