Protein in water
21091
    1MET      N    1   1.908   2.012   3.774  0.3276  0.3982 -0.3931
    1MET     H1    2   1.870   1.934   3.825 -1.9352  1.1255 -0.8667
    1MET     H2    3   1.878   1.991   3.679  0.3801 -0.8624 -0.1511
    1MET     H3    4   2.009   2.008   3.773  0.3313 -3.2569  0.7430
    1MET     CA    5   1.858   2.139   3.820 -0.4112  0.1316  0.9673
    1MET     HA    6   1.751   2.136   3.799 -0.3060  3.3555 -0.8397
    1MET     CB    7   1.882   2.177   3.968  0.3823  0.5105  0.3285
    1MET    HB1    8   1.844   2.278   3.984  1.3006  0.9310 -0.0660
    1MET    HB2    9   1.987   2.168   3.995  0.2950 -1.3189  0.1509
    1MET     CG   10   1.797   2.088   4.066 -0.6602  0.3786  0.6001
    1MET    HG1   11   1.852   1.994   4.067  0.7127  1.1404  1.9235
    1MET    HG2   12   1.694   2.082   4.031 -0.2777 -2.4015 -0.2444
    1MET     SD   13   1.793   2.146   4.238  0.4452 -0.2435 -0.1692
    1MET     CE   14   1.634   2.063   4.290 -0.3436 -0.0196  0.6342
    1MET    HE1   15   1.551   2.109   4.237 -1.3705 -1.6644  0.7594
    1MET    HE2   16   1.650   1.956   4.276  0.2495  0.2574 -1.0795
    1MET    HE3   17   1.624   2.088   4.395  1.7036  1.5615  0.5312
    1MET      C   18   1.925   2.247   3.727 -0.3577 -0.0401  0.4989
    1MET      O   19   2.037   2.233   3.674  1.3596 -0.1986  0.5913
    2LYS      N   20   1.866   2.367   3.728 -0.0748 -0.2575 -0.5840
    2LYS      H   21   1.784   2.372   3.786 -0.1748 -0.0850 -0.7394
    2LYS     CA   22   1.907   2.488   3.654  1.2475 -0.0241  0.1610
    2LYS     HA   23   1.884   2.464   3.551 -1.7953  1.7335  0.2997
    2LYS     CB   24   1.809   2.598   3.694 -0.2421 -0.5545 -0.4145
    2LYS    HB1   25   1.713   2.565   3.652 -0.5469 -0.0240 -0.1370
    2LYS    HB2   26   1.839   2.692   3.647  0.3992  1.0648  2.9497
    2LYS     CG   27   1.812   2.642   3.838 -0.2734 -0.2104 -1.0138
    2LYS    HG1   28   1.901   2.702   3.855 -0.2519  0.2309 -2.5310
    2LYS    HG2   29   1.811   2.554   3.903  2.3014  1.0177  0.8298
    2LYS     CD   30   1.673   2.725   3.864 -0.1632  0.0902  0.2899
    2LYS    HD1   31   1.595   2.649   3.870 -0.1147  0.0148 -0.0551
    2LYS    HD2   32   1.663   2.799   3.785  1.1756 -0.8670 -0.8255
    2LYS     CE   33   1.678   2.798   3.998 -0.1186 -0.0894  0.3273
    2LYS    HE1   34   1.767   2.859   4.010  0.1123 -0.3125 -0.2113
    2LYS    HE2   35   1.676   2.720   4.074  0.1705 -1.6248 -1.1753
    2LYS     NZ   36   1.561   2.885   4.017 -0.4667  0.6637  0.3720
    2LYS    HZ1   37   1.482   2.824   4.032 -0.9486  1.3736  0.8115
    2LYS    HZ2   38   1.571   2.934   4.105 -1.2137  0.3289  0.6512
    2LYS    HZ3   39   1.549   2.950   3.941 -0.9051  0.9954  0.7161
    2LYS      C   40   2.054   2.535   3.673  0.4638 -0.1327 -0.6983
    2LYS      O   41   2.106   2.593   3.581 -0.6038 -0.5617  0.0468
    3LEU      N   42   2.123   2.491   3.780 -0.4367 -0.1393  0.0669
    3LEU      H   43   2.064   2.443   3.847 -4.4618 -0.5099 -3.2938
    3LEU     CA   44   2.268   2.510   3.797  0.1151 -1.2376  0.0833
    3LEU     HA   45   2.298   2.615   3.795  0.1196 -1.2507 -1.1534
    3LEU     CB   46   2.321   2.446   3.925  0.4294 -0.9434  0.3122
    3LEU    HB1   47   2.430   2.454   3.921  0.4062 -0.6878 -3.0409
    3LEU    HB2   48   2.273   2.349   3.919 -2.2343  0.3310 -0.4347
    3LEU     CG   49   2.277   2.522   4.046  0.3514 -0.0836 -0.8937
    3LEU     HG   50   2.169   2.535   4.039  0.3038 -0.3447 -0.6532
    3LEU    CD1   51   2.310   2.448   4.176 -0.2617  0.2691  0.5754
    3LEU   HD11   52   2.291   2.505   4.266  0.2124 -0.7953  1.3714
    3LEU   HD12   53   2.251   2.356   4.176  1.9871 -1.2646  0.8397
    3LEU   HD13   54   2.414   2.416   4.186 -0.5236 -0.3292  1.5096
    3LEU    CD2   55   2.336   2.662   4.053  0.4680  0.3229 -0.5897
    3LEU   HD21   56   2.298   2.711   4.142  0.8036 -3.3153  1.7577
    3LEU   HD22   57   2.445   2.662   4.059  0.3860  1.0116  1.5389
    3LEU   HD23   58   2.309   2.716   3.963  0.7272  0.5763 -0.5146
    3LEU      C   59   2.349   2.448   3.684  0.3962 -0.1989 -0.6682
    3LEU      O   60   2.456   2.499   3.646 -0.0505  0.2389  0.4417
    4ALA      N   61   2.305   2.341   3.621  0.3548 -0.0107  0.1712
    4ALA      H   62   2.222   2.290   3.648 -1.3255  2.0335 -0.8830
    4ALA     CA   63   2.362   2.281   3.503 -1.4341 -0.1471  0.3191
    4ALA     HA   64   2.469   2.280   3.525 -1.1571  4.3746  0.1009
    4ALA     CB   65   2.308   2.143   3.480  0.1010 -0.0312 -0.1201
    4ALA    HB1   66   2.347   2.078   3.559  0.7694 -1.6305 -1.6950
    4ALA    HB2   67   2.199   2.143   3.485  0.0415  0.9998 -1.0707
    4ALA    HB3   68   2.333   2.106   3.381 -0.1053  1.9116 -0.9346
    4ALA      C   69   2.358   2.381   3.381  0.1240  0.3194 -0.1985
    4ALA      O   70   2.457   2.395   3.313 -0.3901  0.1293  0.4034
    5VAL      N   71   2.242   2.448   3.356 -0.2330  0.0456  0.3890
    5VAL      H   72   2.161   2.442   3.417 -0.3810  2.1867  0.4839
    5VAL     CA   73   2.229   2.548   3.254 -0.1677  0.7000 -0.0182
    5VAL     HA   74   2.250   2.500   3.158  0.7423  0.3927  0.3280
    5VAL     CB   75   2.076   2.591   3.248  0.7988  0.0861 -0.6750
    5VAL     HB   76   2.050   2.649   3.337 -1.1808 -2.4488  0.5004
    5VAL    CG1   77   2.054   2.685   3.130 -0.5697 -0.3407 -0.5126
    5VAL   HG11   78   2.077   2.628   3.040 -0.4893 -0.0493 -0.6792
    5VAL   HG12   79   1.949   2.709   3.146 -0.6443 -1.5878  1.0076
    5VAL   HG13   80   2.104   2.777   3.160 -2.3439 -0.3716  2.9654
    5VAL    CG2   81   1.980   2.471   3.229 -0.1051 -0.8390 -0.4259
    5VAL   HG21   82   2.008   2.398   3.306 -1.3356 -1.2248 -0.3158
    5VAL   HG22   83   1.883   2.509   3.261  0.9523  0.5322  1.3388
    5VAL   HG23   84   1.980   2.435   3.127 -0.7429  0.6179 -0.9628
    5VAL      C   85   2.319   2.672   3.274  0.1525  0.6167 -0.4099
    5VAL      O   86   2.374   2.720   3.177 -0.5882 -0.2772  0.2445
    6ASP      N   87   2.349   2.705   3.400 -0.4653 -0.0601  0.2045
    6ASP      H   88   2.313   2.647   3.474 -1.7167  0.0921 -0.2598
    6ASP     CA   89   2.440   2.816   3.437 -0.3724 -0.6021  0.5264
    6ASP     HA   90   2.416   2.899   3.370  0.9257 -0.5972  0.0361
    6ASP     CB   91   2.420   2.867   3.584  0.1717 -0.4048  0.5332
    6ASP    HB1   92   2.504   2.933   3.604  0.2341 -0.5862  0.8910
    6ASP    HB2   93   2.427   2.783   3.653 -0.0090  1.2527  2.6816
    6ASP     CG   94   2.295   2.954   3.611 -0.4888  0.0342  1.0102
    6ASP    OD1   95   2.243   3.014   3.511  0.3024  0.1713 -0.4286
    6ASP    OD2   96   2.244   2.959   3.729  0.0227  0.1277  0.4431
    6ASP      C   97   2.587   2.793   3.411  0.4061  0.4206 -0.0311
    6ASP      O   98   2.656   2.874   3.356 -0.2705  0.1364  0.4973
    7ALA      N   99   2.631   2.669   3.442  0.2495  0.1589 -0.3271
    7ALA      H  100   2.564   2.603   3.476  2.2256 -1.9369 -0.2805
    7ALA     CA  101   2.761   2.615   3.413  0.4936  0.0816 -0.0630
    7ALA     HA  102   2.835   2.685   3.452  0.3396 -0.1780  0.7187
    7ALA     CB  103   2.774   2.485   3.488 -0.5649  0.3418 -0.1855
    7ALA    HB1  104   2.863   2.426   3.467 -1.3884 -0.6055 -1.1049
    7ALA    HB2  105   2.770   2.495   3.597  2.8345  1.4210 -0.0579
    7ALA    HB3  106   2.690   2.421   3.461 -0.9301  0.3833  0.8089
    7ALA      C  107   2.786   2.613   3.262  1.0259  0.8497  0.3984
    7ALA      O  108   2.894   2.650   3.210  0.3694  0.2379 -0.2235
    8LEU      N  109   2.686   2.570   3.184 -0.6498  0.4611  0.1072
    8LEU      H  110   2.603   2.534   3.230  0.8969 -1.3046  1.7100
    8LEU     CA  111   2.691   2.569   3.043  0.5079  0.0377  0.2386
    8LEU     HA  112   2.781   2.515   3.013 -0.8340 -3.8775  2.5887
    8LEU     CB  113   2.583   2.486   2.984 -0.1652 -0.0118 -0.7799
    8LEU    HB1  114   2.572   2.510   2.878 -1.0263 -0.2116 -0.7362
    8LEU    HB2  115   2.484   2.523   3.010 -0.1775 -0.5481 -0.0534
    8LEU     CG  116   2.591   2.335   3.004  0.0948  0.6026 -1.0353
    8LEU     HG  117   2.619   2.305   3.105  0.7509 -1.0110 -1.6805
    8LEU    CD1  118   2.454   2.276   2.961 -0.2127  0.1814 -0.3758
    8LEU   HD11  119   2.471   2.169   2.963  2.6113  0.5519  2.9135
    8LEU   HD12  120   2.377   2.317   3.027  1.8516  1.4005  1.3815
    8LEU   HD13  121   2.424   2.299   2.858 -0.5536  0.7998 -0.1423
    8LEU    CD2  122   2.696   2.285   2.912 -0.4760  0.2321 -0.5697
    8LEU   HD21  123   2.661   2.313   2.813  0.6588 -0.0657 -1.0710
    8LEU   HD22  124   2.791   2.332   2.940 -0.2659 -1.4828  1.8450
    8LEU   HD23  125   2.707   2.177   2.920  1.2122  0.4538  0.8596
    8LEU      C  126   2.705   2.706   2.975  0.7863  0.5062  0.1666
    8LEU      O  127   2.772   2.731   2.873 -0.3337 -0.1259 -0.2705
    9LEU      N  128   2.647   2.803   3.046 -0.0487  0.2756 -0.4026
    9LEU      H  129   2.593   2.775   3.126  1.1077 -1.0035 -0.0383
    9LEU     CA  130   2.645   2.943   3.016 -0.8047 -0.2715 -0.0458
    9LEU     HA  131   2.631   2.958   2.909 -1.0831 -1.1122 -0.1334
    9LEU     CB  132   2.537   3.020   3.096 -0.1042 -0.5747  0.0252
    9LEU    HB1  133   2.562   3.126   3.104 -0.1621 -0.3175 -2.4545
    9LEU    HB2  134   2.524   2.979   3.196 -1.8968  0.7571  0.3704
    9LEU     CG  135   2.402   3.011   3.028 -0.1996 -0.1202  0.0209
    9LEU     HG  136   2.399   2.904   3.004 -0.6955 -0.0922 -0.0577
    9LEU    CD1  137   2.288   3.055   3.114 -0.0640  0.0342 -0.2524
    9LEU   HD11  138   2.194   3.039   3.061 -0.1659 -0.0237 -0.0519
    9LEU   HD12  139   2.294   2.977   3.189  0.9946 -0.5708 -0.9260
    9LEU   HD13  140   2.301   3.159   3.144  0.7506  0.8435 -3.0954
    9LEU    CD2  141   2.377   3.098   2.902 -0.0480  0.8522  0.4668
    9LEU   HD21  142   2.443   3.069   2.820 -3.0603 -1.1596 -1.4400
    9LEU   HD22  143   2.277   3.096   2.860 -0.2102 -3.6842  0.6271
    9LEU   HD23  144   2.402   3.200   2.930 -0.0865  0.4642  2.0063
    9LEU      C  145   2.790   2.995   3.045  0.4721  0.2864 -0.2867
    9LEU      O  146   2.860   3.038   2.954  0.0346 -0.7764  0.0394
   10ARG      N  147   2.841   2.984   3.167  0.3980  0.7305  0.1667
   10ARG      H  148   2.776   2.949   3.236 -1.3163  1.7874 -0.8568
   10ARG     CA  149   2.974   3.029   3.209  0.0699  0.0526  0.4492
   10ARG     HA  150   2.987   3.136   3.191 -1.9433  0.3814  0.7378
   10ARG     CB  151   2.986   2.999   3.358  0.3401  0.1742  0.5263
   10ARG    HB1  152   3.021   2.897   3.373  2.9378  0.7930 -0.7142
   10ARG    HB2  153   2.883   2.995   3.391 -0.1377  1.7163 -0.6358
   10ARG     CG  154   3.072   3.099   3.437  0.8695  0.0668  0.2988
   10ARG    HG1  155   3.037   3.199   3.411 -0.7206 -0.2968  0.9176
   10ARG    HG2  156   3.177   3.098   3.411  0.3347 -0.0178 -2.0808
   10ARG     CD  157   3.059   3.071   3.583 -0.6029  1.4787 -0.4537
   10ARG    HD1  158   3.110   2.976   3.601  0.9304  1.9439 -2.0094
   10ARG    HD2  159   2.953   3.056   3.604 -0.6132  0.2086 -1.2483
   10ARG     NE  160   3.124   3.173   3.662 -0.5199  0.3310 -0.0890
   10ARG     HE  161   3.220   3.197   3.639 -0.4321 -0.6107 -0.7780
   10ARG     CZ  162   3.076   3.258   3.754 -0.2089  0.5716  0.5185
   10ARG    NH1  163   2.955   3.265   3.796  0.2951  0.1971  0.0409
   10ARG   HH11  164   2.890   3.193   3.767  1.0861 -0.2224 -0.7612
   10ARG   HH12  165   2.926   3.332   3.866 -0.1205  0.7477 -0.6503
   10ARG    NH2  166   3.159   3.339   3.809 -0.1356  0.2411  0.3644
   10ARG   HH21  167   3.259   3.337   3.792 -0.2455  1.3411 -0.5369
   10ARG   HH22  168   3.131   3.398   3.886 -0.1158  0.2536  0.3619
   10ARG      C  169   3.087   2.968   3.126  0.5198  0.4669  0.1575
   10ARG      O  170   3.181   3.035   3.086  0.3945 -0.4270  0.3298
   11THR      N  171   3.078   2.848   3.089 -0.0318  1.8169  0.6186
   11THR      H  172   3.001   2.790   3.117  0.0761  2.2139  1.8074
   11THR     CA  173   3.177   2.774   3.010  0.0294 -0.7311 -0.0677
   11THR     HA  174   3.274   2.799   3.053  0.0344  1.6536 -1.2874
   11THR     CB  175   3.146   2.625   3.020  0.1417  0.2516  0.5139
   11THR     HB  176   3.045   2.608   2.984 -0.3616  2.6938  0.6067
   11THR    CG2  177   3.251   2.551   2.935  0.4229 -0.0021 -0.1342
   11THR   HG21  178   3.225   2.570   2.831 -0.6361  1.1763  0.3045
   11THR   HG22  179   3.350   2.579   2.970 -0.7427  1.8015  2.0217
   11THR   HG23  180   3.236   2.445   2.956  0.2432 -0.6263 -2.9891
   11THR    OG1  181   3.170   2.588   3.157  0.2351 -0.0393  0.3843
   11THR    HG1  182   3.087   2.605   3.202 -0.6493  1.1557 -1.5280
   11THR      C  183   3.185   2.825   2.868 -0.1671  0.4066  0.1803
   11THR      O  184   3.292   2.855   2.815  0.1657 -0.1259  0.6809
   12PHE      N  185   3.066   2.845   2.807  0.1776  0.5651  0.5018
   12PHE      H  186   2.982   2.797   2.837  0.0896 -0.1878 -0.9003
   12PHE     CA  187   3.056   2.910   2.675  0.2304 -0.2788 -0.2841
   12PHE     HA  188   3.116   2.843   2.613  1.2835  0.0736  0.3155
   12PHE     CB  189   2.910   2.893   2.623  0.0461  0.4447 -0.5514
   12PHE    HB1  190   2.839   2.947   2.685  1.6218  0.6433  1.1781
   12PHE    HB2  191   2.880   2.789   2.635  0.8777  0.2951  0.4027
   12PHE     CG  192   2.878   2.927   2.477  0.3077  0.6298 -0.4992
   12PHE    CD1  193   2.928   2.846   2.378 -0.3313 -0.1318  0.1002
   12PHE    HD1  194   2.993   2.764   2.404 -0.6017  0.4791  2.9574
   12PHE    CE1  195   2.902   2.876   2.247  0.5918  0.0807 -0.2633
   12PHE    HE1  196   2.934   2.809   2.169  0.0304 -0.5825  0.0618
   12PHE     CZ  197   2.843   2.998   2.206  0.3106 -0.3924  0.1589
   12PHE     HZ  198   2.834   3.034   2.104 -1.1497  1.1056  0.7861
   12PHE    CE2  199   2.807   3.087   2.312  0.5752 -0.7279  0.3566
   12PHE    HE2  200   2.773   3.184   2.278 -0.4421 -1.0517  0.4136
   12PHE    CD2  201   2.830   3.053   2.443  0.4172 -0.0724 -0.1812
   12PHE    HD2  202   2.804   3.125   2.519  0.2602  0.0116 -0.3136
   12PHE      C  203   3.100   3.056   2.664 -0.0163  0.3906 -0.2278
   12PHE      O  204   3.158   3.097   2.568 -0.5307  0.2524  0.3780
   13ALA      N  205   3.080   3.132   2.772  0.0184 -0.1821 -0.2536
   13ALA      H  206   3.022   3.097   2.847 -0.7748  0.3963 -0.5860
   13ALA     CA  207   3.134   3.271   2.784  0.3462 -0.0763 -0.4648
   13ALA     HA  208   3.110   3.330   2.695  0.2953  1.8366  0.7646
   13ALA     CB  209   3.054   3.331   2.899 -0.0988 -0.4570  0.2413
   13ALA    HB1  210   2.950   3.338   2.867  0.7560 -1.6772 -3.3810
   13ALA    HB2  211   3.063   3.264   2.983  0.9226 -0.3980  0.1971
   13ALA    HB3  212   3.107   3.419   2.935  1.0068 -1.0214  0.0412
   13ALA      C  213   3.287   3.279   2.809  0.6556 -0.6654  0.3688
   13ALA      O  214   3.355   3.355   2.742  0.0576 -0.2674  0.2435
   14GLU      N  215   3.344   3.192   2.888 -0.2239  0.1541  0.0739
   14GLU      H  216   3.288   3.128   2.943 -0.4506  1.0868  0.9668
   14GLU     CA  217   3.492   3.181   2.899  0.0829  0.2685  0.3077
   14GLU     HA  218   3.536   3.275   2.933  0.3163 -0.6505  2.6976
   14GLU     CB  219   3.529   3.063   2.998 -0.0055 -0.2030 -0.1280
   14GLU    HB1  220   3.638   3.055   2.998  0.0708  0.6957 -0.4806
   14GLU    HB2  221   3.493   2.966   2.964  0.4052 -0.2375 -0.4612
   14GLU     CG  222   3.491   3.105   3.137 -0.0389  0.2433  0.2924
   14GLU    HG1  223   3.383   3.118   3.151  0.4568  3.1057  2.2982
   14GLU    HG2  224   3.550   3.196   3.152  0.9051 -0.1599 -0.8148
   14GLU     CD  225   3.546   3.004   3.240  0.0237 -0.2564 -0.1599
   14GLU    OE1  226   3.638   2.924   3.208  0.5057 -0.4881 -0.1179
   14GLU    OE2  227   3.511   3.015   3.362 -0.4033  0.1729 -0.0608
   14GLU      C  228   3.554   3.138   2.757 -0.1670 -0.1486 -0.2344
   14GLU      O  229   3.661   3.191   2.726 -0.0528 -0.2736 -0.5500
   15SER      N  230   3.489   3.053   2.679 -0.0034 -0.6659  1.0496
   15SER      H  231   3.409   3.002   2.714  0.2252  0.1011  2.7535
   15SER     CA  232   3.534   3.026   2.539  0.0743 -0.4417 -0.0073
   15SER     HA  233   3.636   2.988   2.551 -0.1733 -1.5168 -1.1286
   15SER     CB  234   3.458   2.911   2.485  0.8212 -0.3642 -0.0641
   15SER    HB1  235   3.353   2.942   2.485  0.6946 -0.6077  2.1051
   15SER    HB2  236   3.476   2.826   2.552  2.0873 -0.4639 -0.5124
   15SER     OG  237   3.484   2.872   2.356 -0.3482  0.8342  0.1556
   15SER     HG  238   3.578   2.856   2.341  0.0024  0.1144  2.7063
   15SER      C  239   3.521   3.152   2.447 -0.3235  0.0262  0.6629
   15SER      O  240   3.616   3.184   2.375 -0.3331 -0.1122 -0.0719
   16SER      N  241   3.415   3.225   2.465  0.1567 -0.3144  0.2006
   16SER      H  242   3.339   3.198   2.526 -0.8774 -0.0808 -0.9593
   16SER     CA  243   3.386   3.345   2.384  0.5961  0.6517  0.1271
   16SER     HA  244   3.399   3.312   2.281 -1.3358 -2.7424  0.7908
   16SER     CB  245   3.239   3.378   2.404  0.3341 -0.3076  0.4572
   16SER    HB1  246   3.208   3.392   2.507  1.1165 -0.7315  0.7599
   16SER    HB2  247   3.181   3.296   2.361 -1.0658 -0.1639  1.9761
   16SER     OG  248   3.212   3.499   2.336 -0.4172 -0.1829 -1.0994
   16SER     HG  249   3.156   3.483   2.260 -0.6873 -3.5096 -0.3488
   16SER      C  250   3.478   3.463   2.415 -0.1793 -0.0329 -0.1142
   16SER      O  251   3.524   3.523   2.314  0.0651  0.4801  0.0115
   17ASP      N  252   3.518   3.480   2.542  0.5054 -0.5800  0.4435
   17ASP      H  253   3.476   3.418   2.609 -0.8352  1.6764  1.8390
   17ASP     CA  254   3.622   3.576   2.582 -0.5005  0.8927 -0.2969
   17ASP     HA  255   3.596   3.679   2.558  1.7396  1.2693 -1.3693
   17ASP     CB  256   3.641   3.552   2.733 -0.2638 -0.3316 -0.1747
   17ASP    HB1  257   3.651   3.447   2.763 -2.6526 -0.2661  1.0495
   17ASP    HB2  258   3.548   3.583   2.779  2.1805  0.6918  4.7787
   17ASP     CG  259   3.755   3.626   2.793  0.8537 -0.0505 -0.5841
   17ASP    OD1  260   3.806   3.721   2.738  0.0727 -0.1716 -0.6826
   17ASP    OD2  261   3.794   3.589   2.906  0.1044 -0.3169  0.0162
   17ASP      C  262   3.754   3.549   2.504  0.1912 -0.5423  0.4637
   17ASP      O  263   3.809   3.637   2.445 -0.9396 -0.6976  0.2262
   18LYS      N  264   3.800   3.423   2.511  0.1024 -0.3680  0.5431
   18LYS      H  265   3.742   3.350   2.549  0.9363 -1.3273  0.0124
   18LYS     CA  266   3.922   3.371   2.442  0.3334 -0.0791 -0.3785
   18LYS     HA  267   4.005   3.430   2.482 -0.6488  2.2793 -1.5733
   18LYS     CB  268   3.943   3.223   2.478  0.1637 -0.0762 -0.4975
   18LYS    HB1  269   4.018   3.181   2.411 -0.0668  0.6141 -1.2065
   18LYS    HB2  270   3.848   3.169   2.471  0.2307 -0.3302  0.4309
   18LYS     CG  271   4.002   3.206   2.618 -0.3669  0.5667 -0.4480
   18LYS    HG1  272   3.956   3.261   2.700  2.0797  0.4715  1.0973
   18LYS    HG2  273   4.102   3.249   2.613 -0.2753  0.2770 -1.2572
   18LYS     CD  274   4.006   3.063   2.667  0.6125 -0.6177 -0.2489
   18LYS    HD1  275   3.909   3.013   2.663  0.5632 -0.7592  1.7238
   18LYS    HD2  276   4.041   3.076   2.769  2.6710  0.4477 -1.0300
   18LYS     CE  277   4.106   2.973   2.590  0.3080  0.6027 -0.1501
   18LYS    HE1  278   4.204   3.012   2.617  0.2842 -0.6044  1.8322
   18LYS    HE2  279   4.096   2.967   2.481  0.1167  1.5315 -0.1972
   18LYS     NZ  280   4.085   2.832   2.646  0.2634 -0.1862 -0.2717
   18LYS    HZ1  281   3.988   2.804   2.650  0.3499 -0.4132  0.3863
   18LYS    HZ2  282   4.126   2.758   2.591 -0.9297  0.2302 -1.7896
   18LYS    HZ3  283   4.113   2.830   2.743  1.4545  2.1604 -0.4837
   18LYS      C  284   3.926   3.392   2.290  0.6153  0.2394  0.0424
   18LYS      O  285   4.027   3.438   2.243  0.4234 -0.2601 -0.0717
   19LEU      N  286   3.805   3.380   2.224 -0.3812  0.2092 -0.0296
   19LEU      H  287   3.719   3.353   2.269  0.2747 -0.5487  0.7901
   19LEU     CA  288   3.797   3.409   2.080 -0.0229  0.0289 -0.1876
   19LEU     HA  289   3.898   3.398   2.043 -0.1692  0.6335 -0.7934
   19LEU     CB  290   3.695   3.311   2.015 -0.2411  0.5482 -0.4952
   19LEU    HB1  291   3.694   3.325   1.907 -0.8721  0.8090 -0.4605
   19LEU    HB2  292   3.598   3.328   2.061 -0.7405  1.3974 -1.7921
   19LEU     CG  293   3.725   3.163   2.042 -0.5236 -0.0926  0.1616
   19LEU     HG  294   3.730   3.134   2.147  3.2700  0.2027  0.1930
   19LEU    CD1  295   3.616   3.078   1.980 -0.4419  0.1089  0.0773
   19LEU   HD11  296   3.643   2.973   1.987  1.4890  0.5775  0.3161
   19LEU   HD12  297   3.528   3.102   2.040  0.9268  1.6783  1.5789
   19LEU   HD13  298   3.600   3.095   1.874 -0.6582 -0.7133 -0.0265
   19LEU    CD2  299   3.860   3.123   1.985 -0.2090  0.2614  0.1021
   19LEU   HD21  300   3.942   3.158   2.048 -0.0694  0.5884 -0.2572
   19LEU   HD22  301   3.874   3.015   1.993 -0.0676  0.2956  0.3416
   19LEU   HD23  302   3.874   3.145   1.880  0.5819  1.6050  0.4636
   19LEU      C  303   3.774   3.561   2.045  0.2129 -0.1941  0.5981
   19LEU      O  304   3.815   3.597   1.932  0.4261 -0.1039 -0.0294
   20ARG      N  305   3.727   3.644   2.137  0.1215  0.1032 -0.8280
   20ARG      H  306   3.712   3.604   2.229  1.2462  0.4169 -0.4866
   20ARG     CA  307   3.713   3.786   2.115  0.6209 -0.0820  0.5501
   20ARG     HA  308   3.665   3.808   2.019 -0.3865  0.1714  1.1002
   20ARG     CB  309   3.609   3.842   2.222  0.2009  0.0605 -0.4504
   20ARG    HB1  310   3.652   3.820   2.319 -0.5291  0.6866  0.0274
   20ARG    HB2  311   3.517   3.786   2.203  0.1053 -0.4676  1.4106
   20ARG     CG  312   3.575   3.989   2.190 -0.2271  0.8160 -0.5512
   20ARG    HG1  313   3.567   4.014   2.084  1.7546  2.1349 -0.4397
   20ARG    HG2  314   3.658   4.045   2.231 -1.0029  2.1540 -0.7544
   20ARG     CD  315   3.439   4.012   2.256 -1.6843  0.0766  0.3464
   20ARG    HD1  316   3.439   4.006   2.365  0.4845  2.0012  0.5254
   20ARG    HD2  317   3.367   3.944   2.210 -0.8727  0.8911 -2.2857
   20ARG     NE  318   3.398   4.148   2.224  0.4116  0.2686  0.0558
   20ARG     HE  319   3.343   4.156   2.140  0.7632 -1.0028 -0.3155
   20ARG     CZ  320   3.446   4.263   2.268  0.0533  0.3482  0.1545
   20ARG    NH1  321   3.535   4.282   2.367 -0.4537 -0.1502 -0.1725
   20ARG   HH11  322   3.569   4.210   2.429  2.2940  1.0629 -0.1397
   20ARG   HH12  323   3.553   4.378   2.390  0.7050 -0.8572  2.1653
   20ARG    NH2  324   3.399   4.369   2.214 -0.1592  0.0506  0.1414
   20ARG   HH21  325   3.332   4.369   2.139 -0.1800  3.2669  0.0495
   20ARG   HH22  326   3.423   4.465   2.232  0.4584  0.0858 -0.7935
   20ARG      C  327   3.848   3.860   2.120  0.2143 -0.5242  0.1886
   20ARG      O  328   3.856   3.982   2.095  0.3151 -0.2292 -0.1230
   21ARG      N  329   3.964   3.797   2.150  0.2354  0.5277  0.5520
   21ARG      H  330   3.953   3.699   2.169  0.6595  0.0756 -1.2927
   21ARG     CA  331   4.095   3.859   2.183 -0.0702  0.2530 -0.4849
   21ARG     HA  332   4.091   3.965   2.157 -1.7416  0.7414  1.4533
   21ARG     CB  333   4.125   3.840   2.332  0.1958 -0.6983  0.1228
   21ARG    HB1  334   4.152   3.738   2.356 -2.0268 -0.9615  1.8620
   21ARG    HB2  335   4.037   3.857   2.395 -0.8234  1.3172 -1.6891
   21ARG     CG  336   4.235   3.929   2.373 -0.0770 -0.4587 -0.1812
   21ARG    HG1  337   4.211   4.031   2.344 -1.5466 -0.9223 -0.7301
   21ARG    HG2  338   4.323   3.915   2.312 -1.0774 -0.8719 -1.5813
   21ARG     CD  339   4.253   3.921   2.524  0.7162 -0.2337 -0.4248
   21ARG    HD1  340   4.251   3.821   2.568 -0.3322 -1.3227 -2.7551
   21ARG    HD2  341   4.171   3.979   2.567 -0.5465 -1.9504 -0.4220
   21ARG     NE  342   4.383   3.982   2.569  0.0245 -0.9821 -0.1026
   21ARG     HE  343   4.377   4.082   2.581 -1.8605 -1.0308 -0.2770
   21ARG     CZ  344   4.499   3.930   2.589  0.0793  0.8999  0.1576
   21ARG    NH1  345   4.521   3.803   2.565  0.0967 -0.0603 -0.3306
   21ARG   HH11  346   4.453   3.748   2.514 -0.4278  0.5371 -0.2902
   21ARG   HH12  347   4.618   3.777   2.576  0.2864  0.5960 -0.4347
   21ARG    NH2  348   4.600   3.998   2.628 -0.1542 -0.5593 -0.8597
   21ARG   HH21  349   4.590   4.086   2.676  1.3107 -0.9169  0.1823
   21ARG   HH22  350   4.687   3.951   2.651  0.2525  0.8137  0.5933
   21ARG      C  351   4.201   3.813   2.088  0.1474  0.0336 -0.0133
   21ARG    OC1  352   4.292   3.730   2.121 -0.6573  0.2594 -0.8111
   21ARG    OC2  353   4.209   3.865   1.976  0.0813  0.4523  0.0514
   22SOL     OW  354   5.082   0.674   5.521  0.0915  0.0757  0.0156
   22SOL    HW1  355   5.161   0.631   5.477  0.7390 -0.6192  1.7714
   22SOL    HW2  356   5.109   0.761   5.560 -0.5165  0.7575 -1.0387
   23SOL     OW  357   0.403   5.666   1.751  0.2197  0.1609  0.1887
   23SOL    HW1  358   0.496   5.677   1.786  0.4633 -0.6944 -0.1604
   23SOL    HW2  359   0.383   5.740   1.687  0.5492  0.5190  0.4927
   24SOL     OW  360   4.547   5.861   1.446 -0.0576  0.1524 -0.3477
   24SOL    HW1  361   4.631   5.852   1.392  1.8629 -1.4285  2.6313
   24SOL    HW2  362   4.569   5.895   1.537 -2.5874 -0.6647  0.6666
   25SOL     OW  363   1.197   2.967   2.112  0.1202 -0.0486 -0.1550
   25SOL    HW1  364   1.226   2.984   2.018 -1.0742 -1.2781 -0.7727
   25SOL    HW2  365   1.203   2.870   2.132  1.4447  0.3197  1.4443
   26SOL     OW  366   2.638   2.282   0.885 -0.0440 -0.5352 -0.6270
   26SOL    HW1  367   2.635   2.376   0.852  1.1725 -0.1127  0.4042
   26SOL    HW2  368   2.688   2.225   0.820  0.6751 -0.1136 -0.4471
   27SOL     OW  369   1.789   0.609   1.534  0.5231  0.0822 -0.1120
   27SOL    HW1  370   1.723   0.573   1.469 -1.1337  2.1574  0.2943
   27SOL    HW2  371   1.741   0.654   1.609  2.4010  1.4015  0.3796
   28SOL     OW  372   2.297   0.208   5.725 -0.4759  0.3188  0.4918
   28SOL    HW1  373   2.391   0.211   5.690 -0.4855  0.8602  0.4914
   28SOL    HW2  374   2.283   0.124   5.776 -0.0390  0.1552  0.3473
   29SOL     OW  375   5.056   0.461   0.373  0.1185 -0.2261  0.0725
   29SOL    HW1  376   5.050   0.364   0.347  2.8469 -0.1386 -1.2965
   29SOL    HW2  377   5.088   0.468   0.468  0.6548 -0.7105 -0.0604
   30SOL     OW  378   0.530   0.391   1.337  0.5352 -0.1705 -0.3109
   30SOL    HW1  379   0.506   0.311   1.393 -1.8095  0.8063  0.2124
   30SOL    HW2  380   0.531   0.365   1.241 -0.4706 -0.8157 -0.1647
   31SOL     OW  381   1.075   1.999   1.134 -0.3067 -0.2061 -0.7023
   31SOL    HW1  382   0.994   1.976   1.080 -0.7580 -0.5367  0.0971
   31SOL    HW2  383   1.154   1.950   1.098 -0.2784  0.7025 -1.9713
   32SOL     OW  384   1.428   2.031   2.332 -0.4071  0.7152  0.0486
   32SOL    HW1  385   1.338   2.008   2.370 -0.5436 -0.1259 -0.7349
   32SOL    HW2  386   1.424   2.028   2.232  0.5878  0.2689  0.0080
   33SOL     OW  387   5.651   0.903   0.355  0.1857  0.0185  0.8270
   33SOL    HW1  388   5.584   0.900   0.429  0.1227 -0.4574  0.7602
   33SOL    HW2  389   5.681   0.809   0.335  0.1187  0.1291  0.1825
   34SOL     OW  390   1.635   0.714   1.751 -0.3364  0.5040 -0.1366
   34SOL    HW1  391   1.545   0.753   1.733 -0.2790  0.7469  0.0911
   34SOL    HW2  392   1.627   0.644   1.822 -0.0226  2.0861  1.5282
   35SOL     OW  393   5.869   1.746   1.505  0.5668  0.1631  0.5163
   35SOL    HW1  394   5.893   1.842   1.514  1.2223  0.0735 -0.1961
   35SOL    HW2  395   5.773   1.738   1.478  1.1559  0.7381 -2.0419
   36SOL     OW  396   1.544   0.145   5.853  0.3780 -0.1554  0.0817
   36SOL    HW1  397   1.583   0.091   5.928 -0.9702 -0.8017  0.3443
   36SOL    HW2  398   1.460   0.101   5.820 -0.6482  1.6463  0.1475
   37SOL     OW  399   0.192   1.976   0.934 -0.2285  0.3270 -0.1498
   37SOL    HW1  400   0.252   1.896   0.939 -0.0842  0.4839  0.8309
   37SOL    HW2  401   0.208   2.035   1.013 -2.0872  0.0835  0.4486
   38SOL     OW  402   1.326   0.013   1.568  0.1416  0.0705  0.0789
   38SOL    HW1  403   1.274   0.028   1.652  0.6252 -0.6015  0.5099
   38SOL    HW2  404   1.306   0.086   1.503 -1.0581  0.0288  0.3699
   39SOL     OW  405   5.489   2.262   0.866 -0.0135 -0.3333  0.2364
   39SOL    HW1  406   5.398   2.303   0.870  0.8361  1.6354  0.3970
   39SOL    HW2  407   5.480   2.162   0.864 -2.1980 -0.1786 -0.9261
   40SOL     OW  408   5.928   1.276   0.109 -0.2113  0.4223 -0.4345
   40SOL    HW1  409   6.013   1.324   0.088 -1.4162  1.6576 -2.8818
   40SOL    HW2  410   5.950   1.186   0.147  2.1307  1.5679  1.2036
   41SOL     OW  411   5.842   2.304   1.415 -0.3617  0.0712  0.1977
   41SOL    HW1  412   5.810   2.234   1.479 -0.0298  1.0183  1.4520
   41SOL    HW2  413   5.864   2.262   1.327  3.2733 -2.0886  1.8938
   42SOL     OW  414   1.174   0.367   0.819  0.1927 -0.1593 -0.4001
   42SOL    HW1  415   1.270   0.343   0.807 -0.1614 -1.0149 -1.8148
   42SOL    HW2  416   1.117   0.305   0.765 -1.0840  1.0269 -0.4894
   43SOL     OW  417   0.912   5.760   1.474  0.0350  0.1959 -0.6593
   43SOL    HW1  418   0.882   5.755   1.569  0.8739 -1.9656 -0.4377
   43SOL    HW2  419   1.004   5.798   1.469  1.8341 -3.5886  0.0039
   44SOL     OW  420   5.558   1.129   0.791 -0.1137 -0.6117 -0.0739
   44SOL    HW1  421   5.507   1.045   0.810 -1.0925 -0.3515 -1.4490
   44SOL    HW2  422   5.650   1.106   0.759  0.3458 -1.0998  1.5142
   45SOL     OW  423   2.779   2.223   5.843  0.1905  0.1553 -0.4911
   45SOL    HW1  424   2.804   2.197   5.750  1.1352 -0.0222 -0.1933
   45SOL    HW2  425   2.862   2.237   5.897 -0.3546  0.2388  0.3317
   46SOL     OW  426   0.056   0.752   1.028 -1.2386 -0.7213  0.3380
   46SOL    HW1  427   0.058   0.802   0.941 -0.8888 -0.6149  0.4070
   46SOL    HW2  428   0.090   0.659   1.014  0.2635 -0.2335  0.6611
   47SOL     OW  429   0.676   1.426   0.595 -0.3116 -0.8392 -0.0489
   47SOL    HW1  430   0.736   1.381   0.530 -0.3516 -1.7039  0.4984
   47SOL    HW2  431   0.682   1.525   0.584  0.3928 -0.9542 -0.7169
   48SOL     OW  432   1.128   1.305   0.251 -0.6914  0.2785  0.5373
   48SOL    HW1  433   1.137   1.400   0.282 -0.9967  0.7219 -0.6747
   48SOL    HW2  434   1.151   1.299   0.154 -0.8949 -0.8574  0.5416
   49SOL     OW  435   4.919   5.889   2.531  0.0197  0.1532  0.6653
   49SOL    HW1  436   4.832   5.924   2.496 -0.4761 -0.5579  1.1679
   49SOL    HW2  437   4.908   5.795   2.562  0.6149  0.5179  2.0661
   50SOL     OW  438   0.151   1.190   5.770 -0.1637 -0.2903 -0.5750
   50SOL    HW1  439   0.144   1.096   5.803  0.3953 -0.3861 -0.7144
   50SOL    HW2  440   0.109   1.197   5.680  2.4087 -1.1404 -1.9625
   51SOL     OW  441   2.498   5.697   2.078  0.5023 -0.1970 -0.1976
   51SOL    HW1  442   2.522   5.620   2.018  0.7500  1.1699 -1.9547
   51SOL    HW2  443   2.581   5.748   2.100  0.4789 -0.9297  1.7545
   52SOL     OW  444   0.177   0.085   0.334  0.5299 -0.0397  0.2684
   52SOL    HW1  445   0.128   0.021   0.275  1.5513 -0.1026 -0.5303
   52SOL    HW2  446   0.202   0.039   0.419  0.6584 -0.5051 -0.0160
   53SOL     OW  447   0.764   0.065   0.328 -0.0652  0.6174  0.0204
   53SOL    HW1  448   0.762   0.004   0.408  0.9817  1.1990  0.5201
   53SOL    HW2  449   0.674   0.069   0.286 -0.1689 -1.2558 -0.0150
   54SOL     OW  450   2.307   0.494   5.647  0.4082 -0.6000 -0.3838
   54SOL    HW1  451   2.368   0.443   5.708  0.4516 -0.3978 -0.2593
   54SOL    HW2  452   2.212   0.474   5.671  0.4223 -1.0269 -0.6696
   55SOL     OW  453   1.573   2.498   1.161 -1.2110  0.7448  0.2587
   55SOL    HW1  454   1.549   2.484   1.257 -2.3410  1.8917  0.1726
   55SOL    HW2  455   1.489   2.513   1.108 -0.4763  2.4564 -0.4899
   56SOL     OW  456   5.309   1.614   3.478  0.6236 -0.0091  0.3056
   56SOL    HW1  457   5.331   1.702   3.436  0.9881  0.1629  0.8501
   56SOL    HW2  458   5.384   1.587   3.539  1.5285 -1.6897 -1.4141
   57SOL     OW  459   0.522   0.845   0.720  0.3537  0.1137  0.6071
   57SOL    HW1  460   0.495   0.759   0.763  0.0213  0.5090  1.1947
   57SOL    HW2  461   0.590   0.827   0.649 -0.3949 -0.7403  0.0910
   58SOL     OW  462   1.143   2.362   0.669  0.1993 -0.2415 -0.4734
   58SOL    HW1  463   1.109   2.279   0.626  0.1585  0.7035 -2.3393
   58SOL    HW2  464   1.239   2.377   0.644  1.0982 -1.1281  2.0771
   59SOL     OW  465   0.213   5.755   0.044 -0.6614  0.3665  0.0617
   59SOL    HW1  466   0.174   5.808  -0.031 -2.3262  0.7840  1.1427
   59SOL    HW2  467   0.196   5.658   0.029 -1.0332  0.4539 -0.0949
   60SOL     OW  468   0.542   0.272   1.083 -0.7128 -0.3208  0.6953
   60SOL    HW1  469   0.496   0.313   1.004 -1.3141 -0.1273  1.1354
   60SOL    HW2  470   0.636   0.250   1.060 -0.6168  0.5847  0.2098
   61SOL     OW  471   1.528   1.462   0.694 -0.2920 -0.1654 -0.1056
   61SOL    HW1  472   1.525   1.366   0.663  0.0368  0.0611 -0.8648
   61SOL    HW2  473   1.620   1.498   0.682 -0.7225  0.6616 -1.1698
   62SOL     OW  474   1.487   5.591   1.320  0.5326 -0.3394  0.1033
   62SOL    HW1  475   1.467   5.494   1.307 -0.4980 -0.1913  0.4121
   62SOL    HW2  476   1.440   5.644   1.249  2.7854 -0.1791 -1.3514
   63SOL     OW  477   0.412   5.437   1.256  0.7028 -0.6908  0.3674
   63SOL    HW1  478   0.433   5.354   1.307  3.2729  0.2733  1.0536
   63SOL    HW2  479   0.478   5.447   1.181  1.6647  1.6420  1.4490
   64SOL     OW  480   0.494   1.223   0.460 -0.5683  0.1927  0.0493
   64SOL    HW1  481   0.502   1.308   0.511 -0.5343  0.2540 -0.0574
   64SOL    HW2  482   0.415   1.227   0.399  0.3912  0.8179 -1.2040
   65SOL     OW  483   1.821   5.599   1.019  0.0389 -0.0186  0.4902
   65SOL    HW1  484   1.778   5.643   1.097  2.1025  2.2973  0.4437
   65SOL    HW2  485   1.784   5.639   0.934  0.1770 -0.1440  0.3710
   66SOL     OW  486   1.966   0.448   5.905  0.2391 -0.3298  0.2525
   66SOL    HW1  487   2.017   0.408   5.981 -1.3233 -2.5662  0.2244
   66SOL    HW2  488   2.011   0.426   5.819 -0.3179 -1.7203  0.2772
   67SOL     OW  489   0.030   1.278   0.548 -0.4776 -0.1451  0.1305
   67SOL    HW1  490   0.038   1.279   0.647 -1.9121 -0.1118  0.2629
   67SOL    HW2  491   0.092   1.208   0.510 -1.9449 -2.1582  1.2683
   68SOL     OW  492   4.779   2.489   2.682 -0.4330  0.2829  0.4562
   68SOL    HW1  493   4.800   2.510   2.586  0.8520 -1.3511  0.3339
   68SOL    HW2  494   4.843   2.536   2.742  0.0141 -0.2206  0.3859
   69SOL     OW  495   1.250   0.196   0.379 -0.0927  0.1198 -0.6810
   69SOL    HW1  496   1.269   0.294   0.388 -0.9892  0.1208  2.0263
   69SOL    HW2  497   1.151   0.182   0.375  0.0410 -0.6725 -1.3752
   70SOL     OW  498   1.066   1.206   1.374 -0.0434 -0.2453 -0.7371
   70SOL    HW1  499   1.145   1.151   1.400 -0.1456  0.0158  0.1544
   70SOL    HW2  500   1.088   1.261   1.293  0.3212 -0.9834 -1.1471
   71SOL     OW  501   0.543   0.897   0.232 -0.1275  0.5671 -0.0674
   71SOL    HW1  502   0.625   0.940   0.269 -0.1741 -0.6624  1.6037
   71SOL    HW2  503   0.540   0.801   0.260 -0.0093 -0.6174 -3.6564
   72SOL     OW  504   0.910   5.654   0.315  0.2815 -0.1326  0.9331
   72SOL    HW1  505   0.926   5.578   0.252  0.4490  0.7418 -0.1108
   72SOL    HW2  506   0.817   5.649   0.350 -0.0131 -0.3060  0.1493
   73SOL     OW  507   0.385   1.581   0.785  0.6088  0.1214  0.0236
   73SOL    HW1  508   0.291   1.575   0.818  0.5001 -0.2835 -0.3520
   73SOL    HW2  509   0.393   1.533   0.698  1.1695  0.1234  0.0703
   74SOL     OW  510   0.577   1.970   5.468 -0.6984  0.3359  0.3748
   74SOL    HW1  511   0.572   1.885   5.417 -1.4716  0.2295  0.6107
   74SOL    HW2  512   0.555   2.047   5.408  0.8067  0.4599 -0.0391
   75SOL     OW  513   3.599   1.110   0.728  0.1820 -0.1899 -0.1471
   75SOL    HW1  514   3.510   1.064   0.729  0.0839  0.0031  0.4016
   75SOL    HW2  515   3.662   1.062   0.789  0.7874 -0.9509 -1.3282
   76SOL     OW  516   1.396   2.594   1.991 -0.0910 -0.3988  0.3419
   76SOL    HW1  517   1.371   2.619   1.897 -2.7970  2.4878  1.6559
   76SOL    HW2  518   1.491   2.621   2.008 -0.2180  1.0093 -0.9756
   77SOL     OW  519   0.155   1.550   0.240 -0.1705  0.2341  0.8060
   77SOL    HW1  520   0.115   1.528   0.151 -1.0540 -0.1916  1.2938
   77SOL    HW2  521   0.084   1.542   0.311  0.5370  0.5082  1.5554
   78SOL     OW  522   2.345   0.883   1.500  0.8441  0.1035 -0.3621
   78SOL    HW1  523   2.368   0.788   1.477  0.9019 -0.1666  0.7544
   78SOL    HW2  524   2.421   0.943   1.474  1.3738 -0.3335  0.1366
   79SOL     OW  525   5.936   0.049   1.112  0.2418  0.3119 -0.2312
   79SOL    HW1  526   5.959   0.018   1.020  0.6105  3.9156 -1.4926
   79SOL    HW2  527   5.855   0.000   1.145 -0.7123 -0.1372 -3.0181
   80SOL     OW  528   1.974   1.028   5.965  0.6302 -0.3523  0.5633
   80SOL    HW1  529   1.972   0.997   5.870  1.1285 -0.2834  0.5251
   80SOL    HW2  530   2.039   0.971   6.017  1.1105  0.2463  0.6278
   81SOL     OW  531   0.255   0.788   2.475 -0.0953 -0.0165  0.2917
   81SOL    HW1  532   0.243   0.707   2.419  0.6073 -0.3217  0.5679
   81SOL    HW2  533   0.352   0.814   2.476 -0.0498 -0.1742  1.5773
   82SOL     OW  534   2.957   1.206   5.450  0.1151  0.1736  0.6101
   82SOL    HW1  535   3.052   1.195   5.479  0.7847 -0.0254 -1.4906
   82SOL    HW2  536   2.949   1.186   5.352 -2.0618  0.4126  0.6789
   83SOL     OW  537   0.927   2.315   0.218 -0.1939  0.0116 -0.4630
   83SOL    HW1  538   0.981   2.389   0.259  0.0160 -0.8760  0.9191
   83SOL    HW2  539   0.855   2.287   0.281 -2.2691  1.0880 -2.2304
   84SOL     OW  540   1.316   5.967   0.985  0.1636 -0.4635  0.1691
   84SOL    HW1  541   1.364   5.897   0.932  1.9246  0.7005  0.1592
   84SOL    HW2  542   1.260   6.023   0.924  1.7458  0.5143 -0.4561
   85SOL     OW  543   2.106   2.749   1.803 -0.1987 -0.4414 -0.2060
   85SOL    HW1  544   2.136   2.836   1.843 -0.7435 -0.6571  0.6880
   85SOL    HW2  545   2.011   2.732   1.827 -0.4527 -0.7399 -1.3444
   86SOL     OW  546   2.662   1.742   1.256  0.4695  0.0375  0.0769
   86SOL    HW1  547   2.671   1.841   1.266  1.5937 -0.1232  0.9176
   86SOL    HW2  548   2.587   1.710   1.313  0.3978  0.3468  0.1599
   87SOL     OW  549   5.453   0.630   1.409 -0.0880 -0.2665 -0.5875
   87SOL    HW1  550   5.543   0.603   1.444 -0.1255  0.0991 -0.1948
   87SOL    HW2  551   5.388   0.556   1.423 -0.0814 -0.1534  0.0531
   88SOL     OW  552   1.132   1.357   1.148 -0.1298 -0.1881 -0.3624
   88SOL    HW1  553   1.194   1.325   1.077  1.0695  0.1965  0.4767
   88SOL    HW2  554   1.098   1.448   1.125  2.5405  1.2362  0.8315
   89SOL     OW  555   5.855   5.861   5.413 -0.1745 -0.2511 -0.0370
   89SOL    HW1  556   5.773   5.816   5.449  1.7351 -2.3171  2.1029
   89SOL    HW2  557   5.894   5.921   5.483  0.5655  0.0758 -0.7109
   90SOL     OW  558   0.191   0.221   2.485 -0.4775 -0.5317  0.2842
   90SOL    HW1  559   0.251   0.226   2.406  0.1512 -1.3170  0.6952
   90SOL    HW2  560   0.153   0.128   2.492  1.2543 -1.1802  2.1479
   91SOL     OW  561   0.784   1.211   2.415  0.4964 -0.1626  0.0835
   91SOL    HW1  562   0.791   1.307   2.387 -0.8169  0.1646  0.7993
   91SOL    HW2  563   0.874   1.169   2.411  0.7219  0.3963 -2.6873
   92SOL     OW  564   0.188   0.066   1.338 -0.3641  0.3905  0.6470
   92SOL    HW1  565   0.091   0.040   1.337 -0.8573  2.1293 -0.2088
   92SOL    HW2  566   0.220   0.080   1.244  0.0494  2.0985  1.0047
   93SOL     OW  567   1.013   1.936   1.397  0.2950  0.3406 -0.2872
   93SOL    HW1  568   1.039   1.961   1.304  0.3680 -1.6801 -0.8677
   93SOL    HW2  569   1.086   1.882   1.438  0.5560  1.7788  1.2411
   94SOL     OW  570   1.164   0.620   0.730 -0.5203 -0.1923 -0.0194
   94SOL    HW1  571   1.151   0.524   0.755  0.0369 -0.3017 -0.1325
   94SOL    HW2  572   1.075   0.663   0.715 -0.7532 -1.3196 -2.3336
   95SOL     OW  573   0.688   5.688   0.534  0.3252  0.0118  0.2897
   95SOL    HW1  574   0.683   5.670   0.632  3.1978 -0.1481  0.4706
   95SOL    HW2  575   0.692   5.786   0.518 -1.5463  0.1162  0.1719
   96SOL     OW  576   0.909   1.601   0.036 -0.3467  0.0120 -0.5139
   96SOL    HW1  577   0.991   1.651   0.008  1.4146 -1.3553  1.8569
   96SOL    HW2  578   0.848   1.661   0.087 -0.0832  0.6682 -0.9695
   97SOL     OW  579   5.727   5.832   0.036  0.0452  0.6448 -0.1157
   97SOL    HW1  580   5.705   5.806  -0.058 -2.7349 -1.9513  1.0684
   97SOL    HW2  581   5.761   5.752   0.086 -1.6396  1.0602  1.8494
   98SOL     OW  582   0.028   0.441   0.321  0.1916 -0.0052 -0.7463
   98SOL    HW1  583  -0.043   0.407   0.258  1.5731 -0.1185 -2.3019
   98SOL    HW2  584   0.072   0.521   0.281 -0.9114  1.8527  1.4947
   99SOL     OW  585   1.020   0.631   1.562 -0.0048 -0.3230 -0.1034
   99SOL    HW1  586   0.921   0.638   1.575  0.0104 -0.5234  0.1176
   99SOL    HW2  587   1.065   0.634   1.650  0.1815 -0.3337 -0.1986
  100SOL     OW  588   0.624   1.704   1.234 -0.5397  0.0216 -0.0011
  100SOL    HW1  589   0.552   1.743   1.292  0.1824 -0.4395  1.2567
  100SOL    HW2  590   0.646   1.769   1.161 -0.7676  1.0971  0.8470
  101SOL     OW  591   1.320   5.271   5.792 -0.6117  1.0160 -0.0931
  101SOL    HW1  592   1.410   5.315   5.786 -1.1383  2.1507  0.1017
  101SOL    HW2  593   1.329   5.185   5.843  0.1334  1.7981  1.1418
  102SOL     OW  594   0.663   5.877   0.988 -0.1521  0.2750 -0.1590
  102SOL    HW1  595   0.699   5.846   1.076  1.2435 -1.0825 -1.1575
  102SOL    HW2  596   0.563   5.876   0.990 -0.1616 -2.1599  0.5986
  103SOL     OW  597   1.889   0.165   5.552 -0.5986  0.1368 -0.2231
  103SOL    HW1  598   1.945   0.090   5.589 -1.9088 -0.2570  1.0808
  103SOL    HW2  599   1.792   0.141   5.561 -1.1265  2.4928  1.4282
  104SOL     OW  600   0.427   0.146   1.468 -0.0310 -0.0204 -0.1710
  104SOL    HW1  601   0.330   0.133   1.445 -0.3467  0.4928  0.8368
  104SOL    HW2  602   0.435   0.196   1.554  1.1333  1.1325 -0.9018
  105SOL     OW  603   5.446   0.657   1.141  0.1078  0.0725  0.3459
  105SOL    HW1  604   5.495   0.584   1.095  0.8310  0.9948 -0.3853
  105SOL    HW2  605   5.461   0.650   1.240 -0.9607 -1.5571  0.4151
  106SOL     OW  606   5.804   1.718  -0.008 -0.0382 -0.5223  0.1413
  106SOL    HW1  607   5.771   1.648   0.056 -1.3623  0.9883  1.1850
  106SOL    HW2  608   5.764   1.806   0.016  0.8054  0.4250 -1.7612
  107SOL     OW  609   0.814   5.937   0.569 -0.1566 -0.0991  0.2379
  107SOL    HW1  610   0.900   5.890   0.588 -0.5202 -0.1325  1.9809
  107SOL    HW2  611   0.784   5.985   0.652 -1.6493  0.1648 -0.4372
  108SOL     OW  612   0.694   1.055   0.378  0.3073 -0.4569 -0.1896
  108SOL    HW1  613   0.782   1.099   0.398 -0.2211  0.7338 -0.4180
  108SOL    HW2  614   0.619   1.116   0.402 -0.4264 -0.2698 -2.6642
  109SOL     OW  615   1.557   0.171   0.941 -0.3904  0.2767 -0.0634
  109SOL    HW1  616   1.640   0.124   0.913 -0.7160 -0.5653  0.3566
  109SOL    HW2  617   1.492   0.105   0.978 -0.3925  1.1899  1.6724
  110SOL     OW  618   2.416   0.970   5.818 -0.0735 -0.1240  0.2532
  110SOL    HW1  619   2.344   1.025   5.775  0.4612  0.0514 -0.4338
  110SOL    HW2  620   2.452   0.904   5.752  1.3877  0.7552  0.1178
  111SOL     OW  621   1.648   0.444   0.633 -0.4229  0.3943 -0.9876
  111SOL    HW1  622   1.726   0.468   0.691  0.6802 -1.9064 -1.4176
  111SOL    HW2  623   1.650   0.501   0.551  1.1527 -0.0022 -1.2558
  112SOL     OW  624   0.836   0.276   5.969 -0.1551  0.6162  1.1325
  112SOL    HW1  625   0.854   0.352   6.032  0.3122  1.3656  0.1178
  112SOL    HW2  626   0.796   0.311   5.885  1.7841  0.0107 -0.1022
  113SOL     OW  627   0.578   1.143   5.708 -0.2631 -0.2795  0.4230
  113SOL    HW1  628   0.522   1.169   5.786 -2.7455  1.0619 -1.6728
  113SOL    HW2  629   0.652   1.209   5.696  1.9898 -2.0296  3.1677
  114SOL     OW  630   5.290   1.640   0.007 -0.4032  0.2485  0.0434
  114SOL    HW1  631   5.365   1.577  -0.013 -1.5300 -0.4823 -2.2483
  114SOL    HW2  632   5.215   1.590   0.050  0.0297  0.7973  1.4949
  115SOL     OW  633   0.870   1.442   0.929  0.5464 -0.6557  0.2573
  115SOL    HW1  634   0.939   1.494   0.980 -0.9350  1.7314 -0.0295
  115SOL    HW2  635   0.797   1.413   0.992  0.1979 -0.3070  0.0163
  116SOL     OW  636   1.133   2.110   5.787  0.0370  0.0178 -0.1166
  116SOL    HW1  637   1.123   2.210   5.785 -2.2267 -0.1667 -0.0756
  116SOL    HW2  638   1.075   2.072   5.858  2.1768 -1.2639  1.0609
  117SOL     OW  639   2.437   1.253   0.520 -0.1039  0.3485 -0.1758
  117SOL    HW1  640   2.364   1.217   0.577 -1.8275  1.1232 -1.7519
  117SOL    HW2  641   2.511   1.187   0.514 -1.5445 -1.3641 -0.0703
  118SOL     OW  642   0.825   2.047   0.860 -0.0781 -0.3494  0.3359
  118SOL    HW1  643   0.848   2.143   0.844 -1.1271 -0.1713 -0.2473
  118SOL    HW2  644   0.744   2.024   0.806 -0.7381 -1.1570  1.6283
  119SOL     OW  645   1.400   2.360   3.039  0.3261  0.1526  0.2609
  119SOL    HW1  646   1.326   2.419   3.072  1.2227  0.7702  1.2273
  119SOL    HW2  647   1.380   2.266   3.064  0.2260  0.4117  1.2073
  120SOL     OW  648   1.292   5.972   0.224  0.0981 -0.3762 -0.1234
  120SOL    HW1  649   1.290   6.051   0.286  0.7087 -0.9594  0.6692
  120SOL    HW2  650   1.224   5.905   0.254 -1.1379  0.2685 -1.4014
  121SOL     OW  651   0.069   1.126   2.014 -0.0887  0.5541  0.3342
  121SOL    HW1  652   0.009   1.168   2.083  1.6526  0.2227  2.1577
  121SOL    HW2  653   0.090   1.032   2.042 -0.7719 -0.2402 -1.6421
  122SOL     OW  654   0.417   0.345   0.617 -0.5760 -0.1044 -0.1033
  122SOL    HW1  655   0.488   0.414   0.608  0.5810 -1.1951  0.2410
  122SOL    HW2  656   0.365   0.338   0.532 -0.8182  1.2645 -0.0883
  123SOL     OW  657   1.037   1.559   0.654 -0.8232 -0.1855 -0.0699
  123SOL    HW1  658   1.066   1.552   0.749 -0.9988 -1.1219 -0.0800
  123SOL    HW2  659   1.117   1.554   0.594 -0.8441 -1.0984 -0.0289
  124SOL     OW  660   1.343   0.395   1.600  0.1969 -0.1641 -0.0369
  124SOL    HW1  661   1.340   0.493   1.582 -1.6129 -0.0537  0.6436
  124SOL    HW2  662   1.378   0.379   1.693 -0.1378 -0.1128  0.0998
  125SOL     OW  663   0.454   2.070   1.799  0.1067 -0.7383 -0.0978
  125SOL    HW1  664   0.454   2.109   1.707  0.5880 -1.4792 -0.4226
  125SOL    HW2  665   0.490   2.137   1.864 -0.6567 -0.0489 -0.3643
  126SOL     OW  666   0.644   1.915   0.722 -0.1869 -0.1607 -0.4176
  126SOL    HW1  667   0.708   1.843   0.697 -1.8932 -1.4425 -1.2282
  126SOL    HW2  668   0.581   1.933   0.646 -1.2806  0.5257  0.6110
  127SOL     OW  669   1.417   5.441   2.748  0.1425 -0.6893  0.1368
  127SOL    HW1  670   1.507   5.480   2.732 -0.2247  0.4356  0.6732
  127SOL    HW2  671   1.368   5.496   2.816 -0.1987 -2.4363  1.3787
  128SOL     OW  672   1.183   1.407   5.981 -0.5871  0.4869 -0.1095
  128SOL    HW1  673   1.093   1.436   5.947 -1.5016 -0.4209  1.3994
  128SOL    HW2  674   1.223   1.343   5.916 -1.2372  0.5575 -0.5962
  129SOL     OW  675   1.164   0.625   1.809  0.5654  0.0928 -0.3247
  129SOL    HW1  676   1.149   0.537   1.855  0.3295  0.4881  0.3709
  129SOL    HW2  677   1.102   0.694   1.848  1.1328  0.6963 -0.4781
  130SOL     OW  678   3.074   2.315   1.551  0.0799  0.2241 -0.1963
  130SOL    HW1  679   3.001   2.355   1.495 -2.1755 -0.7990  1.8480
  130SOL    HW2  680   3.033   2.260   1.624  2.9563 -1.4340  0.2958
  131SOL     OW  681   5.046   1.926   0.816 -0.4561  0.0206 -0.1200
  131SOL    HW1  682   5.099   1.929   0.731 -0.4884 -0.2281 -0.1491
  131SOL    HW2  683   4.963   1.873   0.802  0.2228 -1.2289  0.4483
  132SOL     OW  684   0.175   0.333   2.779 -0.1775  0.2007 -0.0198
  132SOL    HW1  685   0.273   0.319   2.793  0.1148  0.6815 -1.4527
  132SOL    HW2  686   0.146   0.285   2.696 -0.7628  1.6186 -0.6623
  133SOL     OW  687   1.990   0.912   1.459  0.5567  0.4324  0.1361
  133SOL    HW1  688   2.010   0.815   1.472 -2.0918  0.0842  2.6587
  133SOL    HW2  689   1.946   0.925   1.370 -0.4081 -0.9883  0.3623
  134SOL     OW  690   5.663   0.977   1.075 -0.4307  0.4180  0.1325
  134SOL    HW1  691   5.632   1.035   1.151  0.0518 -1.8770  2.2316
  134SOL    HW2  692   5.585   0.952   1.019 -1.1648  0.5511  1.0677
  135SOL     OW  693   1.474   5.325   2.072  0.3127  0.1740 -0.3187
  135SOL    HW1  694   1.457   5.256   2.002  2.6944  1.0388 -1.8879
  135SOL    HW2  695   1.476   5.416   2.029  2.3556  0.6874  0.7398
  136SOL     OW  696   5.070   1.256   1.603  0.3484  0.5137 -0.4275
  136SOL    HW1  697   5.116   1.284   1.687  0.6850  1.1400 -0.8069
  136SOL    HW2  698   5.113   1.302   1.525  0.3193 -0.3920 -0.9878
  137SOL     OW  699   0.728   0.807   0.514  0.2919  0.0515 -0.1267
  137SOL    HW1  700   0.801   0.749   0.477 -0.2858  0.3404 -1.7794
  137SOL    HW2  701   0.704   0.878   0.447 -0.3160  1.0505  1.0988
  138SOL     OW  702   2.385   5.931  -0.017 -0.3138 -0.1507 -0.3994
  138SOL    HW1  703   2.395   6.020   0.027 -2.6287  0.4324 -0.8985
  138SOL    HW2  704   2.396   5.859   0.051  0.3821  0.5510  0.2546
  139SOL     OW  705   0.285   5.783   2.055 -0.1885  0.3078 -0.1305
  139SOL    HW1  706   0.290   5.740   1.965 -0.2847  3.0879 -1.5828
  139SOL    HW2  707   0.190   5.813   2.072 -0.1073  0.0784  0.7616
  140SOL     OW  708   5.317   1.232   1.052  0.4194 -0.1389  0.4091
  140SOL    HW1  709   5.416   1.217   1.055  0.7855  1.9798  0.2110
  140SOL    HW2  710   5.296   1.323   1.088 -1.4035 -0.2985 -0.1636
  141SOL     OW  711   1.908   0.098   2.013 -0.2985  0.2986  0.4684
  141SOL    HW1  712   1.966   0.081   2.093 -0.1450 -2.4026 -0.1205
  141SOL    HW2  713   1.818   0.128   2.044 -0.0412 -0.0710  1.6457
  142SOL     OW  714   0.451   1.272   1.798 -0.0489 -0.6210  0.0576
  142SOL    HW1  715   0.401   1.358   1.791 -0.9029 -1.1659 -0.8088
  142SOL    HW2  716   0.432   1.229   1.887  0.5731  0.1913  0.5884
  143SOL     OW  717   0.139   1.201   2.704  0.6004 -0.2577 -0.1906
  143SOL    HW1  718   0.053   1.151   2.710  0.2019  0.5654  1.5741
  143SOL    HW2  719   0.199   1.175   2.779  1.0696  0.6549 -0.2256
  144SOL     OW  720   2.339   1.093   0.262 -0.6453 -0.1703 -0.6665
  144SOL    HW1  721   2.412   1.096   0.193 -0.3785 -1.0975 -0.4391
  144SOL    HW2  722   2.366   1.147   0.341 -0.5087  0.0654 -0.8729
  145SOL     OW  723   1.275   1.869   1.028  0.6101  0.3478 -0.0027
  145SOL    HW1  724   1.230   1.861   0.939  0.1299  0.4132  0.2309
  145SOL    HW2  725   1.323   1.784   1.049 -1.6760 -0.7969  0.9588
  146SOL     OW  726   0.341   2.713   1.827  0.0053 -0.4968 -0.3366
  146SOL    HW1  727   0.308   2.748   1.740 -0.1104 -1.2023 -0.5817
  146SOL    HW2  728   0.440   2.720   1.831 -0.0102 -0.2391 -0.4299
  147SOL     OW  729   0.656   0.518   0.632 -0.1843  0.6727 -0.2622
  147SOL    HW1  730   0.620   0.538   0.723  0.8610  1.9102 -0.0908
  147SOL    HW2  731   0.679   0.603   0.586 -1.4365  0.1064 -2.0193
  148SOL     OW  732   4.464   1.070   2.363 -0.2348  0.4467  0.0423
  148SOL    HW1  733   4.448   1.120   2.448 -1.4253 -1.4692  1.0144
  148SOL    HW2  734   4.436   1.127   2.285  1.2871  2.3973  0.8548
  149SOL     OW  735   1.221   1.078   0.343  0.3542 -0.1369 -0.0484
  149SOL    HW1  736   1.183   1.051   0.431 -1.0066 -1.2460 -0.9421
  149SOL    HW2  737   1.195   1.173   0.323  0.8623  0.1968  0.8172
  150SOL     OW  738   1.978   0.670   5.698 -0.8498  0.2061 -0.1804
  150SOL    HW1  739   1.932   0.620   5.624 -1.4827  1.7124 -0.8617
  150SOL    HW2  740   1.975   0.616   5.782 -2.6048 -0.3784 -0.5724
  151SOL     OW  741   0.339   0.086   1.082  0.0171 -0.2374  0.8258
  151SOL    HW1  742   0.360  -0.008   1.053 -1.3414 -0.5843  0.9054
  151SOL    HW2  743   0.425   0.136   1.096  0.8212 -0.2107 -3.1176
  152SOL     OW  744  -0.027   0.498   5.617 -0.6445 -0.0631 -0.0618
  152SOL    HW1  745   0.018   0.430   5.675 -0.1067  0.2383 -0.1171
  152SOL    HW2  746   0.040   0.538   5.555 -0.5130  1.8712  1.2387
  153SOL     OW  747   5.399   0.240   0.990  0.0257 -0.1496  0.2979
  153SOL    HW1  748   5.323   0.176   1.004 -0.3440  0.5070  1.4265
  153SOL    HW2  749   5.460   0.237   1.069 -0.6743  1.7709  0.9650
  154SOL     OW  750   1.438   0.035   2.172  0.5610  0.3000 -0.1770
  154SOL    HW1  751   1.349   0.040   2.127 -0.2056  1.7554  1.4019
  154SOL    HW2  752   1.433   0.080   2.261  2.8750  0.3816 -0.0312
  155SOL     OW  753   1.003   4.805   1.256  0.4049 -0.6587 -0.8456
  155SOL    HW1  754   1.015   4.860   1.339  0.5829 -0.0377 -1.2711
  155SOL    HW2  755   0.909   4.769   1.253 -0.6893  1.9825 -1.9041
  156SOL     OW  756   4.416   1.506   0.707 -0.0864  0.0983 -0.1602
  156SOL    HW1  757   4.400   1.541   0.614 -2.7916 -0.2649  0.1135
  156SOL    HW2  758   4.366   1.562   0.773  0.0284 -0.9648  0.8587
  157SOL     OW  759   5.817   0.983   0.832  0.2538 -0.1103  0.0271
  157SOL    HW1  760   5.878   1.060   0.850 -0.0622 -0.2349  1.8583
  157SOL    HW2  761   5.761   0.965   0.914  0.0521 -2.0350 -0.4826
  158SOL     OW  762   0.875   1.284   0.423  0.4840 -0.1463  0.0356
  158SOL    HW1  763   0.952   1.312   0.367  1.1303 -1.0491  0.4606
  158SOL    HW2  764   0.905   1.270   0.517 -0.7157  2.0551  0.8403
  159SOL     OW  765   0.243   0.591   1.774  0.4871  0.0349 -0.1034
  159SOL    HW1  766   0.235   0.664   1.706  0.6943 -0.6493 -0.8672
  159SOL    HW2  767   0.252   0.503   1.728 -0.2293 -0.5320  0.8214
  160SOL     OW  768   0.134   1.910   1.378 -0.3480  0.0236  0.5760
  160SOL    HW1  769   0.178   1.847   1.315 -2.9621 -1.3484 -0.0103
  160SOL    HW2  770   0.139   1.874   1.471  0.9814  0.6266  0.7679
  161SOL     OW  771   0.211   1.982   1.880 -0.5076 -0.0281 -0.3645
  161SOL    HW1  772   0.164   1.957   1.795  0.8696  2.2474 -1.9099
  161SOL    HW2  773   0.294   2.034   1.858 -0.1505  0.7321  2.4044
  162SOL     OW  774   0.427   0.974   1.567 -0.1275 -0.1646 -0.4701
  162SOL    HW1  775   0.375   1.052   1.600  1.2393  0.4708  0.2541
  162SOL    HW2  776   0.443   0.983   1.469 -0.3582  0.2243 -0.4721
  163SOL     OW  777   0.482   1.687   0.412  0.0819 -0.5223 -0.0200
  163SOL    HW1  778   0.458   1.632   0.492 -1.7844  0.1179 -0.0979
  163SOL    HW2  779   0.467   1.633   0.329 -0.7218 -0.2757 -0.0461
  164SOL     OW  780   0.814   0.380   0.234 -0.2126 -0.0255 -0.1648
  164SOL    HW1  781   0.844   0.464   0.278  0.8517 -0.3594 -0.2292
  164SOL    HW2  782   0.884   0.309   0.245 -0.5479 -0.5326 -1.1794
  165SOL     OW  783   5.093   0.448   1.773  0.4174  0.3527 -0.2651
  165SOL    HW1  784   5.070   0.504   1.853 -1.1693  0.4061 -0.7237
  165SOL    HW2  785   5.115   0.507   1.696  0.6177  0.3175 -0.2354
  166SOL     OW  786   0.796   0.804   1.244 -0.6396  0.1645 -0.0140
  166SOL    HW1  787   0.753   0.728   1.292 -3.4225  0.7383 -1.3469
  166SOL    HW2  788   0.842   0.770   1.162 -0.0462 -0.2892  0.5016
  167SOL     OW  789   5.605   2.416   1.901 -0.4430 -0.0670  0.3245
  167SOL    HW1  790   5.651   2.327   1.905 -1.5877 -0.8307 -1.8233
  167SOL    HW2  791   5.657   2.478   1.842 -0.6038  0.0962  0.3522
  168SOL     OW  792   0.933   0.776   0.717 -0.0069  0.0912 -0.3384
  168SOL    HW1  793   0.888   0.864   0.734 -0.4553  0.0546 -1.3183
  168SOL    HW2  794   0.922   0.750   0.621  0.6006 -0.7717 -0.1873
  169SOL     OW  795   5.730   1.660   0.954  0.1163 -0.1731 -0.1208
  169SOL    HW1  796   5.696   1.614   0.872 -0.8968 -1.7748  1.1264
  169SOL    HW2  797   5.734   1.759   0.938 -1.9737 -0.2381 -1.4592
  170SOL     OW  798   1.339   5.386   0.084 -0.2899  0.5203 -0.0917
  170SOL    HW1  799   1.312   5.295   0.052  0.5901  0.7525 -1.5616
  170SOL    HW2  800   1.281   5.455   0.041 -0.7206  0.7057  0.7514
  171SOL     OW  801   0.848   0.014   0.047  0.1782 -0.6748  0.1198
  171SOL    HW1  802   0.843   0.105   0.007  1.3070 -0.2858  0.8084
  171SOL    HW2  803   0.853   0.022   0.147  1.3096 -1.4253  0.1469
  172SOL     OW  804   1.395   1.694   0.541  0.6275 -0.0114  0.2813
  172SOL    HW1  805   1.443   1.728   0.460 -1.2023 -0.9171 -1.2663
  172SOL    HW2  806   1.448   1.619   0.582  1.2043 -0.0724 -0.5409
  173SOL     OW  807   0.694   1.581   1.766 -0.0214  0.0694 -0.0061
  173SOL    HW1  808   0.596   1.562   1.766  0.1065 -0.6470 -0.8318
  173SOL    HW2  809   0.712   1.666   1.716 -0.1272 -0.3755 -0.8105
  174SOL     OW  810   0.185   2.021   5.923  0.1723 -0.2412  0.1776
  174SOL    HW1  811   0.237   2.106   5.937 -0.5726 -0.0189  1.7754
  174SOL    HW2  812   0.095   2.043   5.886  0.5377 -0.4807 -0.8817
  175SOL     OW  813   0.131   1.879   1.650  0.4698  0.0436  0.0401
  175SOL    HW1  814   0.157   1.786   1.622  0.9822 -0.2804  1.5360
  175SOL    HW2  815   0.034   1.880   1.673  0.9499 -0.7800  2.4130
  176SOL     OW  816   1.574   0.200   4.876  0.2023 -0.6788 -0.0644
  176SOL    HW1  817   1.663   0.159   4.896  1.5140  1.6969 -0.6878
  176SOL    HW2  818   1.557   0.197   4.778  0.4372  0.4552 -0.1470
  177SOL     OW  819   1.837   5.856   5.178 -0.1574 -0.0266 -0.7153
  177SOL    HW1  820   1.850   5.953   5.196  1.9670 -0.4476  0.3945
  177SOL    HW2  821   1.745   5.840   5.143 -0.1673  2.5136 -2.0745
  178SOL     OW  822   0.376   0.381   0.910 -0.1174 -0.0271 -0.6097
  178SOL    HW1  823   0.278   0.392   0.927  0.1354 -0.6944  1.6324
  178SOL    HW2  824   0.391   0.349   0.816 -1.9454  1.0984 -1.3290
  179SOL     OW  825   4.746   2.706   2.123 -0.1739  0.0022  0.8119
  179SOL    HW1  826   4.740   2.608   2.143 -1.6146  0.2061  1.5226
  179SOL    HW2  827   4.839   2.729   2.094 -0.3841 -2.0134 -1.8414
  180SOL     OW  828   1.132   1.035   0.620 -0.3682  0.4855 -0.3981
  180SOL    HW1  829   1.163   0.989   0.704  0.6794  2.6805  0.4981
  180SOL    HW2  830   1.060   1.100   0.643 -0.7947  0.3840 -1.4042
  181SOL     OW  831   0.390   1.495   1.368  0.5028  0.0610 -0.7306
  181SOL    HW1  832   0.373   1.397   1.354  0.9501  0.0299 -1.1156
  181SOL    HW2  833   0.423   1.535   1.282  0.9785  0.4033 -0.3934
  182SOL     OW  834   0.416   1.573   0.182 -0.7291  0.2352  0.1354
  182SOL    HW1  835   0.324   1.578   0.222 -0.8061  0.3716 -0.0569
  182SOL    HW2  836   0.418   1.625   0.097 -0.5244  0.0699  0.0391
  183SOL     OW  837   0.551   2.604   1.558  0.3367 -0.1637  0.0324
  183SOL    HW1  838   0.553   2.654   1.645  2.8592  0.9181 -0.5686
  183SOL    HW2  839   0.628   2.542   1.553  0.9572  0.6811 -1.8937
  184SOL     OW  840   1.009   0.428   1.058 -0.2914  0.1228  0.4867
  184SOL    HW1  841   1.032   0.391   1.148  0.3196 -1.1946 -0.1833
  184SOL    HW2  842   1.084   0.410   0.994 -0.5457  1.3856 -0.2072
  185SOL     OW  843   1.895   5.765   2.181  0.4663 -0.0228  0.2405
  185SOL    HW1  844   1.960   5.807   2.244  0.3467  1.1969 -0.4247
  185SOL    HW2  845   1.806   5.809   2.190  0.4806  0.2512 -0.8492
  186SOL     OW  846   5.853   1.985   5.618 -0.0687 -0.2549 -0.1697
  186SOL    HW1  847   5.798   2.053   5.570  1.1947  1.5391  0.8022
  186SOL    HW2  848   5.916   1.942   5.553 -0.0801  0.3422 -0.5904
  187SOL     OW  849  -0.001   5.684   1.026 -0.3710  0.1246  0.0492
  187SOL    HW1  850   0.019   5.766   0.972  1.2711 -0.3134 -0.0498
  187SOL    HW2  851  -0.005   5.709   1.123  1.6359  0.1181  0.1744
  188SOL     OW  852   1.864   1.969   1.440  0.5775  0.4274 -0.0887
  188SOL    HW1  853   1.785   1.916   1.470 -0.7801  1.4075 -1.7336
  188SOL    HW2  854   1.861   1.980   1.340  2.5357  0.9190 -0.1387
  189SOL     OW  855   0.205   2.120   3.608  0.5985 -0.5663  0.2107
  189SOL    HW1  856   0.209   2.034   3.658 -0.5895 -0.4364  0.5753
  189SOL    HW2  857   0.250   2.192   3.662 -0.5898 -0.4471  1.0845
  190SOL     OW  858   0.241   1.634   1.544 -0.1046  0.1090  0.3058
  190SOL    HW1  859   0.312   1.596   1.484  1.1203  2.2421  0.2781
  190SOL    HW2  860   0.169   1.566   1.558  1.5074 -1.8518 -0.3685
  191SOL     OW  861   0.774   0.534   1.886  0.4436 -0.1415 -0.1862
  191SOL    HW1  862   0.870   0.510   1.902  0.7201  1.0832  0.0548
  191SOL    HW2  863   0.725   0.533   1.973  0.4623  0.1860 -0.1715
  192SOL     OW  864   2.464   1.138   1.479 -0.0731  0.0899  0.1056
  192SOL    HW1  865   2.405   1.139   1.560  0.4913 -1.6289  0.5966
  192SOL    HW2  866   2.556   1.168   1.505 -0.8535  3.8213 -0.8783
  193SOL     OW  867   0.976   0.143   1.450  0.2854 -0.6138 -0.5858
  193SOL    HW1  868   0.883   0.110   1.469  0.0677  0.0627 -0.4503
  193SOL    HW2  869   1.033   0.066   1.422 -0.1142 -1.1660  0.0891
  194SOL     OW  870   0.472   2.568   5.785 -0.0229  0.3741  0.3865
  194SOL    HW1  871   0.392   2.549   5.728  2.1006 -2.6445 -1.9327
  194SOL    HW2  872   0.517   2.651   5.753 -0.3716  0.2094 -0.5494
  195SOL     OW  873   0.902   2.157   1.500 -0.1547  0.3569 -0.2127
  195SOL    HW1  874   0.805   2.133   1.489 -0.1457  0.6913 -1.2246
  195SOL    HW2  875   0.958   2.089   1.454  0.0741  0.2920  0.1677
  196SOL     OW  876   0.936   1.911   4.879 -0.4241  0.2251  0.2720
  196SOL    HW1  877   0.873   1.890   4.804  1.1322  0.8574 -1.3021
  196SOL    HW2  878   0.995   1.832   4.896 -0.6767  0.1352  0.7182
  197SOL     OW  879   5.652   0.986   1.587 -0.3568 -0.0260 -0.1226
  197SOL    HW1  880   5.711   0.925   1.534  0.9288  1.9156 -1.0266
  197SOL    HW2  881   5.701   1.020   1.666 -0.8037  0.4170 -0.0308
  198SOL     OW  882   5.902   0.193   1.656 -0.2329  0.4237 -0.1574
  198SOL    HW1  883   5.926   0.097   1.647 -0.7426  0.2108  0.6075
  198SOL    HW2  884   5.963   0.249   1.600 -1.4266 -0.5296 -2.5235
  199SOL     OW  885   5.641   1.398   0.788  0.2272 -0.1160  0.7668
  199SOL    HW1  886   5.640   1.394   0.688 -0.8567  1.5548  0.6855
  199SOL    HW2  887   5.622   1.307   0.825  0.3394 -0.6909 -0.5437
  200SOL     OW  888   0.399   5.846   0.996 -0.5099  0.3245 -0.1247
  200SOL    HW1  889   0.375   5.785   1.070 -0.9365  0.3553 -0.2355
  200SOL    HW2  890   0.409   5.794   0.911  1.4942  0.0492  0.2292
  201SOL     OW  891   4.983   0.241   1.003 -0.3860 -0.1429 -0.3059
  201SOL    HW1  892   5.046   0.163   1.013  0.7934  0.8848  0.6462
  201SOL    HW2  893   5.033   0.319   0.966  0.1070  1.9804  4.1436
  202SOL     OW  894   5.375   1.523   0.858 -0.5126 -0.5404  0.5524
  202SOL    HW1  895   5.457   1.507   0.912 -1.1453 -3.7115  0.7799
  202SOL    HW2  896   5.380   1.470   0.773 -0.7148  2.2538 -1.3371
  203SOL     OW  897   0.961   5.678   1.123 -0.1382  0.1429  0.3241
  203SOL    HW1  898   0.988   5.621   1.201  0.0031  0.2077  0.3231
  203SOL    HW2  899   0.880   5.732   1.148  0.1575  0.4784  0.5726
  204SOL     OW  900   1.454   2.207   2.748  0.3976 -0.5440 -0.4249
  204SOL    HW1  901   1.411   2.260   2.821  1.9915  1.4128 -0.8265
  204SOL    HW2  902   1.409   2.227   2.662  2.2738  1.9459 -0.9438
  205SOL     OW  903   0.874   1.542   1.284  0.4636  0.4786 -0.1995
  205SOL    HW1  904   0.850   1.450   1.313  1.7163  0.0449 -0.4823
  205SOL    HW2  905   0.791   1.593   1.262 -0.2852 -0.3123  0.7420
  206SOL     OW  906   1.374   2.153   1.383 -0.2044 -0.2724  0.3812
  206SOL    HW1  907   1.325   2.147   1.470 -1.2442 -0.1811 -0.1805
  206SOL    HW2  908   1.385   2.062   1.344  0.9460 -0.3970  0.9628
  207SOL     OW  909   1.362   3.050   0.677  0.0810  0.3473 -0.0192
  207SOL    HW1  910   1.275   3.021   0.637  1.1669 -0.1863 -2.1814
  207SOL    HW2  911   1.366   3.022   0.772 -3.5499  3.5347  1.3538
  208SOL     OW  912   1.008   2.017   0.013 -0.5654  0.2211 -0.2854
  208SOL    HW1  913   1.059   2.074   0.078 -0.2315 -0.4956  0.0902
  208SOL    HW2  914   0.911   2.044   0.015 -0.7014 -0.2918  1.0851
  209SOL     OW  915   1.448   5.879   0.767  0.3468 -0.1658 -0.2797
  209SOL    HW1  916   1.448   5.787   0.729  0.5880 -0.2314 -0.1237
  209SOL    HW2  917   1.416   5.944   0.698 -0.2798 -0.4267 -0.2397
  210SOL     OW  918   0.168   0.341   1.913  0.4833 -0.0530  0.4797
  210SOL    HW1  919   0.166   0.440   1.923  0.0399  0.0648 -0.5716
  210SOL    HW2  920   0.076   0.307   1.894  0.5522 -0.7244  1.2991
  211SOL     OW  921   0.649   5.425   1.120  0.4223 -0.4323  0.2382
  211SOL    HW1  922   0.695   5.337   1.107  0.9154  0.0073 -1.1701
  211SOL    HW2  923   0.667   5.484   1.042 -1.1417  0.3929  0.4516
  212SOL     OW  924   0.705   1.304   1.103  0.5386 -0.1897 -0.0417
  212SOL    HW1  925   0.722   1.324   1.200  0.5019 -1.4669  0.2487
  212SOL    HW2  926   0.712   1.206   1.088 -0.8929 -0.1571 -1.0715
  213SOL     OW  927   1.468   1.365   5.308  0.9794 -0.5553 -0.0315
  213SOL    HW1  928   1.411   1.321   5.239 -1.3222  0.7804  0.9224
  213SOL    HW2  929   1.444   1.331   5.399  1.0466  0.6662  0.4677
  214SOL     OW  930   0.487   1.272   0.799  0.1115 -0.0624 -0.1097
  214SOL    HW1  931   0.496   1.370   0.817 -0.5293 -0.2440  1.3268
  214SOL    HW2  932   0.561   1.242   0.738 -0.0570  1.4247 -1.1012
  215SOL     OW  933   1.489   0.426   1.066 -0.3390  0.0935  0.0956
  215SOL    HW1  934   1.513   0.333   1.040 -1.6489 -0.3806  0.4893
  215SOL    HW2  935   1.417   0.460   1.005  0.7734  1.2254 -0.6535
  216SOL     OW  936   0.387   1.177   5.881 -0.4234 -0.2241  0.4956
  216SOL    HW1  937   0.395   1.266   5.926  0.7500  0.1921 -0.4708
  216SOL    HW2  938   0.309   1.178   5.818  0.2036  0.4991 -0.2888
  217SOL     OW  939   1.062   0.976   0.132  0.1790  0.1824 -0.0871
  217SOL    HW1  940   0.979   1.033   0.134  0.8810  1.2169  0.2936
  217SOL    HW2  941   1.129   1.013   0.197  1.4301  0.1148 -1.3010
  218SOL     OW  942   5.692   1.052   1.952 -0.2957  0.4675  0.2286
  218SOL    HW1  943   5.715   0.954   1.947 -0.3260  0.3935  1.2911
  218SOL    HW2  944   5.702   1.093   1.862  2.3613  0.0585  0.2565
  219SOL     OW  945   0.491   2.232   0.082 -0.1108 -0.3421  0.5409
  219SOL    HW1  946   0.586   2.222   0.055 -0.0414  1.7274 -0.1710
  219SOL    HW2  947   0.484   2.223   0.182  0.8297 -0.4990  0.6006
  220SOL     OW  948   5.751   1.322   1.374  0.3496  0.5704  0.9130
  220SOL    HW1  949   5.838   1.272   1.373 -0.0269 -0.1044 -0.4897
  220SOL    HW2  950   5.725   1.341   1.469 -0.0726 -2.9634  1.6514
  221SOL     OW  951   2.428   5.736   0.179 -0.2939 -0.8023  0.0977
  221SOL    HW1  952   2.476   5.767   0.261 -1.1923  0.2431  0.2583
  221SOL    HW2  953   2.341   5.694   0.205 -0.9187  0.1835 -0.3381
  222SOL     OW  954   0.039   5.660   1.331  0.0349 -0.1286 -0.3547
  222SOL    HW1  955   0.054   5.561   1.325 -0.0139 -0.3023  1.6605
  222SOL    HW2  956   0.050   5.689   1.426 -1.0764  1.6300 -0.7302
  223SOL     OW  957   0.864   1.823   1.583  0.2588  0.0587 -0.6480
  223SOL    HW1  958   0.766   1.816   1.597  0.3409  0.6498  0.3051
  223SOL    HW2  959   0.883   1.887   1.508 -0.0373  2.2947  1.0727
  224SOL     OW  960   0.899   0.992   1.420  0.2902  0.1750  0.5436
  224SOL    HW1  961   0.939   1.071   1.372 -0.6244  0.8563  0.8951
  224SOL    HW2  962   0.868   0.925   1.352  0.8128  0.2288  0.2380
  225SOL     OW  963   5.928   1.501   1.070 -0.3774  0.0952  0.1292
  225SOL    HW1  964   5.939   1.492   1.169 -1.0782  0.8072  0.2876
  225SOL    HW2  965   5.885   1.589   1.049  2.1671  1.1852 -0.9945
  226SOL     OW  966   1.246   5.706   0.517  0.1646 -0.0676  0.8023
  226SOL    HW1  967   1.229   5.609   0.532 -1.2601 -0.5111 -2.6299
  226SOL    HW2  968   1.344   5.721   0.505  0.2078 -1.9055 -2.3125
  227SOL     OW  969   1.825   1.221   1.173  0.4932 -0.2430  0.4571
  227SOL    HW1  970   1.736   1.259   1.150  1.4870  0.3033 -3.1462
  227SOL    HW2  971   1.859   1.263   1.257 -1.9961  0.5259  1.1722
  228SOL     OW  972   0.689   1.002   5.958 -0.2909  0.1130 -0.2636
  228SOL    HW1  973   0.603   1.002   5.906  0.7787 -1.2252 -2.1740
  228SOL    HW2  974   0.715   0.908   5.978  0.9099  0.4838 -0.0230
  229SOL     OW  975   5.609   1.667   1.418  0.6380 -0.0880  0.2815
  229SOL    HW1  976   5.622   1.612   1.335  1.6939  2.3023 -1.2249
  229SOL    HW2  977   5.513   1.693   1.425  0.9808  2.1021 -1.8973
  230SOL     OW  978   1.856   4.834   1.026 -0.4057  0.4010 -0.0921
  230SOL    HW1  979   1.884   4.926   0.997 -1.7619  0.8680  0.0308
  230SOL    HW2  980   1.763   4.816   0.994 -0.7960 -0.2620  1.3576
  231SOL     OW  981   0.128   0.486   0.952  0.1022  0.6254 -0.0928
  231SOL    HW1  982   0.113   0.392   0.984 -0.9543  0.7985 -0.0302
  231SOL    HW2  983   0.059   0.509   0.883  0.4098  1.3175 -0.1755
  232SOL     OW  984   1.790   0.332   1.854 -0.2579  0.1588 -0.4501
  232SOL    HW1  985   1.802   0.356   1.758  1.1170  0.0451 -0.3380
  232SOL    HW2  986   1.711   0.272   1.864  0.2626 -0.8020 -1.7106
  233SOL     OW  987   0.114   1.533   5.577 -0.0383  0.1766 -0.2972
  233SOL    HW1  988   0.170   1.611   5.551  0.9910 -0.6185 -0.5456
  233SOL    HW2  989   0.065   1.553   5.661  2.8405 -0.0841  1.5620
  234SOL     OW  990   5.904   2.088   5.876 -0.3066 -0.0329  0.7745
  234SOL    HW1  991   5.902   2.038   5.790 -1.6394  1.0747  0.1127
  234SOL    HW2  992   5.828   2.058   5.934 -0.3970  0.3730  0.8703
  235SOL     OW  993   1.717   0.884   3.773  0.6175  0.1902 -0.2166
  235SOL    HW1  994   1.645   0.953   3.781  0.6035  0.3330 -1.4156
  235SOL    HW2  995   1.738   0.868   3.677  0.7578 -1.3465  0.0368
  236SOL     OW  996   5.941   5.637   2.349  0.2139 -0.0710  0.3562
  236SOL    HW1  997   5.937   5.704   2.422  0.2033 -1.1495  1.3697
  236SOL    HW2  998   5.848   5.618   2.316  0.3456  1.7723 -1.2556
  237SOL     OW  999   5.975   0.852   2.069  0.1938  0.0774  0.2783
  237SOL    HW1 1000   6.032   0.770   2.077 -0.1914 -0.2407 -0.1518
  237SOL    HW2 1001   5.890   0.829   2.023 -0.5984  0.4048  1.5364
  238SOL     OW 1002   0.322   2.077   3.326  0.1678 -0.5249 -0.1099
  238SOL    HW1 1003   0.313   1.978   3.315 -0.9491 -0.6394  1.4001
  238SOL    HW2 1004   0.289   2.103   3.417  3.1605  0.8939  0.6984
  239SOL     OW 1005   0.720   1.489   2.020  0.1871  0.1495  0.1804
  239SOL    HW1 1006   0.752   1.395   2.034  0.4086  0.2917  0.6453
  239SOL    HW2 1007   0.701   1.503   1.923 -1.7650 -0.9751  0.3431
  240SOL     OW 1008   1.426   5.467   1.018  0.6284  0.3553  0.5426
  240SOL    HW1 1009   1.355   5.479   1.087  0.1020  2.4876 -0.2973
  240SOL    HW2 1010   1.503   5.416   1.058  0.2440  1.3092  2.6404
  241SOL     OW 1011   1.564   0.551   3.133 -0.4184 -0.0791  0.0788
  241SOL    HW1 1012   1.583   0.593   3.222 -0.6854  1.6039 -0.6188
  241SOL    HW2 1013   1.612   0.602   3.061 -2.7928  0.6686 -1.0789
  242SOL     OW 1014   0.405   0.742   2.019 -0.0560 -0.1413  0.0038
  242SOL    HW1 1015   0.424   0.644   2.020  0.5576 -0.0238  0.7915
  242SOL    HW2 1016   0.466   0.788   1.955 -0.0972 -0.2240 -0.0947
  243SOL     OW 1017   1.111   0.123   3.453  0.0426 -0.3488  0.2138
  243SOL    HW1 1018   1.121   0.126   3.553  2.3869  0.4078  0.0221
  243SOL    HW2 1019   1.146   0.036   3.419  0.3973 -0.1210 -0.0174
  244SOL     OW 1020   1.098   0.912   2.686 -0.3617  0.4410 -0.2523
  244SOL    HW1 1021   1.190   0.874   2.679 -1.0915 -1.2018 -1.7593
  244SOL    HW2 1022   1.043   0.855   2.747  0.1863  2.8053  2.7008
  245SOL     OW 1023   0.268   0.534   3.119 -0.0322 -0.1492  0.2491
  245SOL    HW1 1024   0.194   0.470   3.096  1.1086 -0.9319 -1.4061
  245SOL    HW2 1025   0.229   0.612   3.167 -1.7406 -1.1741  0.6552
  246SOL     OW 1026   0.887   2.194   2.132  0.2696  0.3637  0.1611
  246SOL    HW1 1027   0.852   2.140   2.055  3.4290 -0.0005 -1.2043
  246SOL    HW2 1028   0.824   2.187   2.209 -1.0261 -2.6959 -0.9885
  247SOL     OW 1029   1.581   2.257   2.177  0.4089  0.0734 -0.0119
  247SOL    HW1 1030   1.619   2.179   2.226  1.7250  1.1745  0.7760
  247SOL    HW2 1031   1.621   2.261   2.085  0.2208 -0.2719 -0.1083
  248SOL     OW 1032   0.341   0.038   2.912  0.8216 -0.2711  0.4320
  248SOL    HW1 1033   0.372   0.080   2.998  1.0047 -1.7666  1.1229
  248SOL    HW2 1034   0.245   0.013   2.920  1.1541 -1.5295  0.6693
  249SOL     OW 1035   1.758   5.856   1.672  0.0940  0.1110  0.3622
  249SOL    HW1 1036   1.677   5.823   1.625  0.0724  0.0800  0.4210
  249SOL    HW2 1037   1.782   5.793   1.746  1.6087 -1.2321 -1.1850
  250SOL     OW 1038   0.455   0.472   2.015 -0.0856  0.3410 -0.1483
  250SOL    HW1 1039   0.532   0.475   2.079 -0.5768  0.0245  0.4671
  250SOL    HW2 1040   0.438   0.377   1.988  0.6080  0.5387 -1.3706
  251SOL     OW 1041   1.147   1.445   3.014 -0.4040 -0.1459  0.0142
  251SOL    HW1 1042   1.093   1.472   2.935 -1.1371  0.0436  0.5697
  251SOL    HW2 1043   1.086   1.424   3.091  0.2554 -1.0616  0.3067
  252SOL     OW 1044   0.730   0.657   3.119  0.1544  0.6804  0.0302
  252SOL    HW1 1045   0.668   0.679   3.044 -1.2201  0.1861  0.9987
  252SOL    HW2 1046   0.793   0.585   3.089 -0.0649  0.8209 -0.7953
  253SOL     OW 1047   1.899   3.111   3.190  0.1607 -0.2494 -0.2165
  253SOL    HW1 1048   1.898   3.031   3.131 -0.4265 -1.0855  0.9024
  253SOL    HW2 1049   1.969   3.100   3.261 -0.7771 -0.3726  0.7170
  254SOL     OW 1050   1.068   1.085   4.745 -0.3625  0.0108  0.1593
  254SOL    HW1 1051   1.165   1.060   4.750  0.1894  0.8938 -3.2323
  254SOL    HW2 1052   1.036   1.074   4.651 -3.1364  1.3145  0.8391
  255SOL     OW 1053   1.141   1.782   2.192 -0.1615  0.0735 -0.0486
  255SOL    HW1 1054   1.133   1.872   2.234 -1.9216 -0.1932  0.2385
  255SOL    HW2 1055   1.155   1.713   2.263  0.9192  0.0556 -0.2495
  256SOL     OW 1056   1.364   5.946   3.971  0.1134 -0.4066 -0.2145
  256SOL    HW1 1057   1.446   5.894   3.996  0.1783 -0.7926 -1.1867
  256SOL    HW2 1058   1.289   5.883   3.951  0.3440 -0.1816 -1.9473
  257SOL     OW 1059   5.930   1.570   2.437  0.0436  0.2711 -0.4136
  257SOL    HW1 1060   5.890   1.510   2.506  0.6187 -1.1778 -1.2767
  257SOL    HW2 1061   6.028   1.580   2.454 -0.0164  0.8399 -0.3758
  258SOL     OW 1062   1.635   1.630   2.167 -0.3036  0.8159 -0.2325
  258SOL    HW1 1063   1.656   1.620   2.264  0.1137  0.5703 -0.3435
  258SOL    HW2 1064   1.544   1.593   2.148 -0.0170  0.0226 -0.0936
  259SOL     OW 1065   5.977   2.899   2.497 -0.1251 -0.1355  0.0704
  259SOL    HW1 1066   5.894   2.948   2.474 -0.7339 -1.3534 -0.4425
  259SOL    HW2 1067   5.983   2.815   2.441  2.4122  0.8677 -1.3505
  260SOL     OW 1068   1.126   5.286   1.343  0.1232 -0.3576  0.6953
  260SOL    HW1 1069   1.055   5.221   1.314 -1.5743  1.4928  0.4417
  260SOL    HW2 1070   1.083   5.372   1.368  2.2761  0.6182  1.2306
  261SOL     OW 1071   0.665   0.353   2.950  0.1878  0.1935  0.5434
  261SOL    HW1 1072   0.621   0.328   3.036 -1.6965 -1.6612 -0.8402
  261SOL    HW2 1073   0.595   0.363   2.879  1.8150 -0.7515 -1.3027
  262SOL     OW 1074   5.978   1.338   4.334  0.2051 -0.7818 -0.5212
  262SOL    HW1 1075   5.928   1.420   4.308  0.3412 -0.9140 -1.2162
  262SOL    HW2 1076   6.068   1.338   4.291 -0.6142 -2.3514 -2.3736
  263SOL     OW 1077   0.579   1.098   2.561 -0.3562 -0.8373 -0.4483
  263SOL    HW1 1078   0.672   1.123   2.535 -0.0461  0.5941  1.7974
  263SOL    HW2 1079   0.514   1.160   2.517  0.0932  0.9003  1.1876
  264SOL     OW 1080   1.474   1.151   4.121 -0.5777  0.1682 -0.1329
  264SOL    HW1 1081   1.425   1.188   4.200  0.3947  1.8581 -0.2627
  264SOL    HW2 1082   1.559   1.108   4.152 -0.5697  0.1448 -0.1872
  265SOL     OW 1083   1.230   5.671   3.778 -0.3767 -0.2035 -0.4985
  265SOL    HW1 1084   1.251   5.757   3.731 -1.5748  0.6401  0.4476
  265SOL    HW2 1085   1.132   5.656   3.776 -0.4767 -0.1211  1.7161
  266SOL     OW 1086   0.154   1.056   3.211 -0.0263  0.1522 -0.5813
  266SOL    HW1 1087   0.059   1.053   3.243  0.2181 -1.1553  0.1263
  266SOL    HW2 1088   0.212   1.095   3.282  0.2158 -0.7879 -0.2470
  267SOL     OW 1089   0.658   0.392   2.407  0.3671 -0.0911  0.3485
  267SOL    HW1 1090   0.561   0.396   2.431 -0.1034  1.5488 -1.6122
  267SOL    HW2 1091   0.709   0.460   2.461  0.5977 -1.3471  1.8062
  268SOL     OW 1092   1.363   1.767   3.055 -0.4321  0.0562  0.1826
  268SOL    HW1 1093   1.406   1.766   3.145 -0.2963  1.1252  0.1352
  268SOL    HW2 1094   1.430   1.741   2.986 -0.5809 -0.9398  0.3935
  269SOL     OW 1095   0.644   5.710   1.891  0.3214 -0.4523 -0.0868
  269SOL    HW1 1096   0.671   5.653   1.968  0.3021 -0.7124 -0.2676
  269SOL    HW2 1097   0.608   5.797   1.924 -0.0255 -0.7069  0.2104
  270SOL     OW 1098   1.375   5.912   2.566  0.6834  0.4411  0.2069
  270SOL    HW1 1099   1.326   5.825   2.567 -1.6964  1.6312  2.7239
  270SOL    HW2 1100   1.327   5.977   2.506  1.3655  0.5659 -0.2131
  271SOL     OW 1101   2.696   2.259   2.390 -0.6463  0.4780 -0.3248
  271SOL    HW1 1102   2.639   2.325   2.340 -0.4590  1.1776  0.3643
  271SOL    HW2 1103   2.757   2.309   2.451  0.7312 -0.2578 -1.0595
  272SOL     OW 1104   5.491   0.561   0.606 -0.2205  0.1769 -0.3586
  272SOL    HW1 1105   5.430   0.485   0.583 -2.6731  1.9313 -0.0574
  272SOL    HW2 1106   5.538   0.542   0.692 -1.1450 -0.7995 -0.0476
  273SOL     OW 1107   1.650   5.388   3.383  0.4252  0.0965 -0.1007
  273SOL    HW1 1108   1.682   5.293   3.382 -0.9932 -0.4033 -0.8279
  273SOL    HW2 1109   1.564   5.395   3.332 -1.1558  1.1926  2.5425
  274SOL     OW 1110   2.970   1.628   1.007 -0.1117  0.2582 -0.2077
  274SOL    HW1 1111   3.025   1.700   1.050  1.1256 -1.2918  0.8995
  274SOL    HW2 1112   2.981   1.632   0.908  1.1759  0.6396 -0.0625
  275SOL     OW 1113   1.504   0.681   2.157  0.2474 -0.5045 -0.8233
  275SOL    HW1 1114   1.511   0.653   2.062  1.0749  0.4511 -1.0555
  275SOL    HW2 1115   1.493   0.780   2.163 -1.5622 -0.6966  0.0277
  276SOL     OW 1116   1.769   0.002   3.077 -0.0446  0.3757 -0.1076
  276SOL    HW1 1117   1.759   0.029   2.982  1.6737  0.1206 -0.4032
  276SOL    HW2 1118   1.832   0.065   3.123  2.5226 -1.8753 -0.3081
  277SOL     OW 1119   1.598   5.955   3.310  0.1109 -0.1773 -0.2482
  277SOL    HW1 1120   1.607   6.039   3.363 -0.8631  0.8466 -1.6270
  277SOL    HW2 1121   1.637   5.969   3.219 -3.3300  0.1294 -1.8341
  278SOL     OW 1122   0.624   0.491   3.353 -0.0746  0.1308 -0.3469
  278SOL    HW1 1123   0.713   0.505   3.396  1.1366  0.6546 -2.8435
  278SOL    HW2 1124   0.597   0.574   3.305 -1.6352 -0.2351 -0.1429
  279SOL     OW 1125   1.016   1.113   1.786 -0.2296  0.6430  0.2012
  279SOL    HW1 1126   1.113   1.126   1.806 -0.2727  1.0632  0.1477
  279SOL    HW2 1127   0.961   1.155   1.859 -0.3719 -0.9811  1.0866
  280SOL     OW 1128   1.386   0.866   2.954  0.0012  0.2743  0.6056
  280SOL    HW1 1129   1.475   0.910   2.939  0.0593  0.3831  1.2294
  280SOL    HW2 1130   1.313   0.931   2.934  0.0085 -0.2675 -1.3824
  281SOL     OW 1131   0.813   1.739   2.752  0.5002  0.2378  0.4252
  281SOL    HW1 1132   0.756   1.744   2.670  1.6438 -2.2306 -0.6010
  281SOL    HW2 1133   0.875   1.817   2.753 -0.3991  0.9957 -0.3449
  282SOL     OW 1134   5.893   5.077   5.825  0.0668 -0.0530  0.4678
  282SOL    HW1 1135   5.931   5.132   5.751 -0.8243  0.5473  0.4453
  282SOL    HW2 1136   5.840   5.002   5.787 -0.2210  0.1346  0.5021
  283SOL     OW 1137   1.850   0.595   2.689 -0.3946 -0.1432  0.3801
  283SOL    HW1 1138   1.819   0.665   2.752  1.9181  1.8079 -0.4982
  283SOL    HW2 1139   1.794   0.596   2.606  1.0140  2.4427 -0.6544
  284SOL     OW 1140   0.866   1.196   2.010 -0.1069  0.4013 -0.0202
  284SOL    HW1 1141   0.798   1.158   2.073  0.0697  1.3958  0.7945
  284SOL    HW2 1142   0.937   1.244   2.062 -0.3967  1.9697 -1.0031
  285SOL     OW 1143   1.042   0.210   3.944  0.0835  0.0392 -0.4927
  285SOL    HW1 1144   0.969   0.278   3.955 -0.1729 -0.3560  0.3393
  285SOL    HW2 1145   1.126   0.245   3.985 -0.1986 -0.3683  0.4601
  286SOL     OW 1146   0.852   2.015   3.629 -0.1031  0.0795 -0.4804
  286SOL    HW1 1147   0.890   1.988   3.541 -2.1826 -1.5762 -0.9392
  286SOL    HW2 1148   0.820   2.110   3.624 -0.3793 -0.0616 -1.5864
  287SOL     OW 1149   1.175   1.993   2.379  0.0000  0.1720  0.3773
  287SOL    HW1 1150   1.175   2.052   2.298  0.7998  0.9443  0.9215
  287SOL    HW2 1151   1.097   2.016   2.437 -0.4848 -0.2750 -0.0888
  288SOL     OW 1152   2.556   1.069   2.724  1.2025  0.7293  0.1695
  288SOL    HW1 1153   2.511   1.025   2.647  0.7318  0.8219  0.3852
  288SOL    HW2 1154   2.489   1.126   2.773  1.2971  0.0701  1.0923
  289SOL     OW 1155   1.423   1.572   3.732  0.2690 -0.2009 -0.3951
  289SOL    HW1 1156   1.460   1.517   3.807 -0.4295  0.0811  0.1645
  289SOL    HW2 1157   1.401   1.664   3.766 -0.0781 -0.0796 -0.9381
  290SOL     OW 1158   5.247   0.845   2.264  0.3403 -0.2308  0.1851
  290SOL    HW1 1159   5.176   0.814   2.326 -0.3924 -2.8548 -1.7917
  290SOL    HW2 1160   5.227   0.939   2.235 -1.3297 -0.2872  1.0257
  291SOL     OW 1161   1.481   5.184   3.147 -0.5248  0.4726 -0.3695
  291SOL    HW1 1162   1.488   5.168   3.049 -0.5110 -1.3797 -0.1031
  291SOL    HW2 1163   1.476   5.282   3.165 -0.6019  0.8329 -2.2130
  292SOL     OW 1164   1.172   0.685   3.280  0.3414 -0.6160  0.5906
  292SOL    HW1 1165   1.163   0.605   3.221 -0.7127  0.2943 -0.5360
  292SOL    HW2 1166   1.165   0.657   3.376 -0.8641 -1.7734  0.1925
  293SOL     OW 1167   1.340   1.450   1.740 -0.5258  0.3401 -0.1505
  293SOL    HW1 1168   1.334   1.379   1.670 -0.7259 -0.9152  1.0916
  293SOL    HW2 1169   1.249   1.470   1.776 -0.1743 -0.9513  1.5691
  294SOL     OW 1170   0.484   0.354   3.182 -0.1096  0.1608  0.5804
  294SOL    HW1 1171   0.553   0.402   3.236  0.5872 -0.8370  0.6159
  294SOL    HW2 1172   0.424   0.420   3.138  1.0259  1.0714  0.3464
  295SOL     OW 1173   1.187   0.979   1.550 -0.0466 -0.0350  0.2040
  295SOL    HW1 1174   1.222   0.903   1.495  0.8530 -0.9972  1.9981
  295SOL    HW2 1175   1.088   0.986   1.538  0.1666  0.0743 -1.8090
  296SOL     OW 1176   0.230   1.111   1.718  0.0896  0.3579  0.5214
  296SOL    HW1 1177   0.256   1.200   1.758 -0.7675 -0.2185  2.5077
  296SOL    HW2 1178   0.280   1.038   1.764  0.0012 -0.2680 -0.3561
  297SOL     OW 1179   2.034   5.858   2.555 -0.1002 -0.9119 -0.3172
  297SOL    HW1 1180   1.969   5.845   2.631 -0.1385  0.7746 -0.0267
  297SOL    HW2 1181   2.083   5.772   2.539  0.4415 -1.1252  2.1157
  298SOL     OW 1182   0.441   2.614   2.965 -0.0504  0.8650  1.2596
  298SOL    HW1 1183   0.535   2.585   2.945 -0.1446  1.1293  0.3965
  298SOL    HW2 1184   0.384   2.534   2.979  0.0387  0.6534  0.4921
  299SOL     OW 1185   1.729   0.968   2.570  0.1248  0.1021  0.0133
  299SOL    HW1 1186   1.660   0.897   2.580  0.9797 -0.5286  1.8415
  299SOL    HW2 1187   1.766   0.966   2.478  0.4598 -2.1528  0.1415
  300SOL     OW 1188   1.147   0.755   1.331  0.3121  0.5494  0.2403
  300SOL    HW1 1189   1.113   0.738   1.424 -0.7053  0.3449 -0.1513
  300SOL    HW2 1190   1.195   0.673   1.298 -2.9773 -1.1021 -0.9475
  301SOL     OW 1191   1.195   0.459   3.127 -0.4905  0.0027 -0.3929
  301SOL    HW1 1192   1.252   0.466   3.045  3.1146  1.2088  1.9639
  301SOL    HW2 1193   1.222   0.378   3.179  0.0382  1.2477  1.3711
  302SOL     OW 1194   5.562   0.465   3.106 -0.7688 -0.3584  0.1112
  302SOL    HW1 1195   5.512   0.401   3.048 -1.4722  0.2187  0.0571
  302SOL    HW2 1196   5.659   0.441   3.107 -0.5221  0.2859 -2.2655
  303SOL     OW 1197   0.289   0.077   4.852  0.2750  0.2722  0.6386
  303SOL    HW1 1198   0.230   0.132   4.911 -0.3732  1.0368 -0.6836
  303SOL    HW2 1199   0.233   0.027   4.785  0.9246 -1.2154  1.1479
  304SOL     OW 1200   5.820   0.420   3.156  0.4302 -0.1431 -0.1901
  304SOL    HW1 1201   5.826   0.515   3.186 -0.9785 -0.0819 -0.0426
  304SOL    HW2 1202   5.902   0.396   3.104  0.2675  1.5126 -1.2756
  305SOL     OW 1203   1.880   0.412   3.780  0.7427 -0.1474  0.3519
  305SOL    HW1 1204   1.794   0.362   3.786 -0.1254  1.4753  3.2177
  305SOL    HW2 1205   1.870   0.487   3.715 -0.1288  0.1862  0.8569
  306SOL     OW 1206   1.633   0.988   3.102 -0.1571  0.2925 -0.2469
  306SOL    HW1 1207   1.682   0.902   3.112 -0.8450  0.0595  1.5245
  306SOL    HW2 1208   1.613   1.004   3.005 -0.4184 -1.7507 -0.5794
  307SOL     OW 1209   0.451   5.693   3.367 -0.0928 -0.1851 -0.1984
  307SOL    HW1 1210   0.400   5.776   3.342 -0.0899 -0.4449 -1.0853
  307SOL    HW2 1211   0.524   5.677   3.300 -1.1160 -1.8058 -0.9886
  308SOL     OW 1212   5.434   5.074   1.882  0.0300  0.3340  0.1224
  308SOL    HW1 1213   5.470   5.092   1.791 -0.2202 -0.2811 -0.1017
  308SOL    HW2 1214   5.427   4.975   1.896 -0.5718  0.4359  0.5572
  309SOL     OW 1215   1.225   5.695   2.537 -0.0176  0.2042 -0.0834
  309SOL    HW1 1216   1.268   5.607   2.516 -1.0669 -0.1982 -0.6270
  309SOL    HW2 1217   1.210   5.745   2.452  0.8012  1.0264  0.2460
  310SOL     OW 1218   5.847   5.704   1.983 -0.1601 -0.3950  0.0849
  310SOL    HW1 1219   5.798   5.727   1.898  0.4764  1.0648  0.0872
  310SOL    HW2 1220   5.924   5.644   1.961 -0.1454 -0.2309 -0.3239
  311SOL     OW 1221   5.748   0.002   3.030 -0.5504  0.1904 -0.9178
  311SOL    HW1 1222   5.746  -0.054   2.948  0.6896 -0.2798 -0.6548
  311SOL    HW2 1223   5.776   0.095   3.006 -2.1670  0.6062 -1.2909
  312SOL     OW 1224   1.682   0.247   3.894 -0.3059 -0.3096  0.2363
  312SOL    HW1 1225   1.732   0.175   3.846 -1.2706 -0.6067 -0.3436
  312SOL    HW2 1226   1.696   0.238   3.993 -1.1049 -1.8360  0.2391
  313SOL     OW 1227   2.005   2.729   1.039  0.3164  0.4306  0.4945
  313SOL    HW1 1228   1.952   2.761   0.960 -1.8071 -0.0622  1.6405
  313SOL    HW2 1229   2.096   2.700   1.009  0.6996  3.0881 -1.2872
  314SOL     OW 1230   5.459   2.043   2.604 -0.1150  0.5632 -0.1988
  314SOL    HW1 1231   5.523   2.050   2.527  0.1926  0.1537  0.0202
  314SOL    HW2 1232   5.396   2.122   2.602  0.0087  0.6517 -0.7604
  315SOL     OW 1233   2.463   0.390   3.618 -0.3634  0.4933 -0.0268
  315SOL    HW1 1234   2.371   0.355   3.601 -0.4392 -0.1364  1.5614
  315SOL    HW2 1235   2.471   0.421   3.713  1.4425 -0.7609  0.2971
  316SOL     OW 1236   1.655   0.210   2.112  0.1028  0.0826  0.4252
  316SOL    HW1 1237   1.582   0.142   2.103 -0.7981  0.9828  0.7908
  316SOL    HW2 1238   1.616   0.298   2.139  1.0896  1.0671 -1.1843
  317SOL     OW 1239   0.415   0.460   2.467  0.4548  0.5900  0.2969
  317SOL    HW1 1240   0.349   0.410   2.522  0.6416  0.1573  0.1362
  317SOL    HW2 1241   0.368   0.514   2.398  0.2202  1.1027  0.8485
  318SOL     OW 1242   5.477   0.270   2.181  0.1234  0.2210 -0.1511
  318SOL    HW1 1243   5.526   0.321   2.110 -1.0930  0.2876 -0.9622
  318SOL    HW2 1244   5.408   0.212   2.139 -1.1151  0.8034  1.0222
  319SOL     OW 1245   1.320   4.976   2.770  0.0981 -0.2386 -0.4879
  319SOL    HW1 1246   1.240   4.919   2.789 -0.2663  0.2048 -0.6478
  319SOL    HW2 1247   1.334   4.981   2.671 -1.1801  1.6435 -0.6426
  320SOL     OW 1248   1.524   5.410   2.350  0.1227 -0.2639 -0.2762
  320SOL    HW1 1249   1.577   5.494   2.334 -0.5470  0.9373  3.0443
  320SOL    HW2 1250   1.493   5.374   2.262 -1.6579  4.3869 -1.8868
  321SOL     OW 1251   1.372   5.824   2.944 -0.0735 -0.2798 -0.3871
  321SOL    HW1 1252   1.422   5.799   3.027 -0.7613  1.5697  0.6547
  321SOL    HW2 1253   1.301   5.756   2.926 -0.1601 -0.5281  0.7924
  322SOL     OW 1254   1.994   1.536   3.800 -0.1242 -0.1604 -0.6106
  322SOL    HW1 1255   1.930   1.465   3.830  0.2563  0.2406  1.3128
  322SOL    HW2 1256   2.087   1.508   3.823  0.1534  0.3927 -1.0474
  323SOL     OW 1257   2.122   0.939   1.896  0.8093  0.1436  0.2078
  323SOL    HW1 1258   2.194   0.986   1.947  0.0970  1.4592  0.0291
  323SOL    HW2 1259   2.083   0.867   1.954  0.7980  0.8613  1.1221
  324SOL     OW 1260   0.444   1.814   1.422  0.4186  0.7910  0.3755
  324SOL    HW1 1261   0.390   1.887   1.463 -1.0804 -0.5986  1.0081
  324SOL    HW2 1262   0.388   1.764   1.356  1.7260  0.8201 -0.7890
  325SOL     OW 1263   1.533   0.274   3.135  0.1167 -0.5783 -0.3072
  325SOL    HW1 1264   1.462   0.230   3.191 -0.2867  0.3531 -0.0659
  325SOL    HW2 1265   1.538   0.372   3.157  2.0171 -0.7512  0.2517
  326SOL     OW 1266   1.476   1.218   0.502 -0.2590  0.0121  0.3919
  326SOL    HW1 1267   1.403   1.160   0.467 -1.2233  1.1180  0.5036
  326SOL    HW2 1268   1.511   1.276   0.428  0.9841 -0.9622  0.1785
  327SOL     OW 1269   0.743   5.862   2.519  0.1665  0.2502 -0.2274
  327SOL    HW1 1270   0.654   5.903   2.499 -0.2302 -0.6124 -0.2446
  327SOL    HW2 1271   0.775   5.895   2.608 -1.7045 -1.9394  1.3595
  328SOL     OW 1272   1.760   2.443   1.842  0.4400  0.5935 -0.3317
  328SOL    HW1 1273   1.830   2.444   1.771 -1.2435 -0.1630 -2.1166
  328SOL    HW2 1274   1.743   2.349   1.871  1.3291  0.9162  1.3840
  329SOL     OW 1275   2.173   2.017   3.893 -0.1796  0.4684 -0.1075
  329SOL    HW1 1276   2.178   1.928   3.939  1.0919  1.0429  0.9106
  329SOL    HW2 1277   2.262   2.041   3.855 -0.9128  0.5751 -1.8607
  330SOL     OW 1278   2.977   1.617   4.070  0.1387  0.3665 -0.3163
  330SOL    HW1 1279   3.014   1.527   4.046 -0.0678 -0.0542  0.8759
  330SOL    HW2 1280   3.053   1.679   4.091  0.2553  0.1042  0.0686
  331SOL     OW 1281   1.102   1.757   3.131  0.0484 -0.6756 -0.0081
  331SOL    HW1 1282   1.133   1.737   3.224  0.4685 -2.3186 -0.4650
  331SOL    HW2 1283   1.179   1.749   3.068 -0.1262  0.9242 -0.4596
  332SOL     OW 1284   2.730   1.449   3.189 -0.2367 -0.4093  0.1933
  332SOL    HW1 1285   2.723   1.521   3.258  1.4540 -0.1424  0.1273
  332SOL    HW2 1286   2.777   1.485   3.108  0.3012 -1.4826  0.0140
  333SOL     OW 1287   1.313   4.684   3.738 -0.3145  0.2996  0.4298
  333SOL    HW1 1288   1.231   4.720   3.692  0.1839 -0.0863 -0.8009
  333SOL    HW2 1289   1.308   4.585   3.741  0.6028  0.2054 -0.6486
  334SOL     OW 1290   0.762   0.599   2.553  0.4018  0.4717 -0.3037
  334SOL    HW1 1291   0.747   0.674   2.489  0.2134  1.3430  0.7292
  334SOL    HW2 1292   0.727   0.624   2.643  2.3847  0.0692  0.6393
  335SOL     OW 1293   1.044   0.269   1.669 -0.1651 -0.4355  0.1071
  335SOL    HW1 1294   1.022   0.218   1.586  2.0369 -3.0590  0.9498
  335SOL    HW2 1295   1.108   0.343   1.647  0.5261 -1.2106 -0.5585
  336SOL     OW 1296   0.933   1.090   3.281  0.1572 -0.3193  0.5510
  336SOL    HW1 1297   0.864   1.019   3.287 -1.8433  1.5987  1.5505
  336SOL    HW2 1298   0.937   1.125   3.187  1.2230 -1.7294  0.0310
  337SOL     OW 1299   1.286   1.101   1.890  0.2285 -0.2456 -0.3506
  337SOL    HW1 1300   1.313   1.165   1.962  0.2202  2.0419 -2.2528
  337SOL    HW2 1301   1.352   1.106   1.814 -1.3969 -0.2497 -1.8217
  338SOL     OW 1302   0.748   2.537   2.971  0.0378 -0.1328  0.2219
  338SOL    HW1 1303   0.792   2.448   2.959  1.0820  0.2888  0.8005
  338SOL    HW2 1304   0.802   2.593   3.034 -0.5734  0.9390 -0.1772
  339SOL     OW 1305   0.529   0.942   1.827 -0.4597 -0.1431 -0.0268
  339SOL    HW1 1306   0.627   0.946   1.845 -0.4174 -2.3954  0.5228
  339SOL    HW2 1307   0.513   0.950   1.728  0.8105 -4.8510 -0.8535
  340SOL     OW 1308   0.411  -0.014   3.415  0.3935  0.1571 -0.0447
  340SOL    HW1 1309   0.509  -0.008   3.435  0.2394  0.4514  0.6610
  340SOL    HW2 1310   0.360   0.042   3.481 -0.3512 -1.0929  0.4683
  341SOL     OW 1311   0.340   2.033   1.541 -0.8395 -0.2422 -0.1795
  341SOL    HW1 1312   0.269   1.992   1.598  0.4948 -0.7396  1.1868
  341SOL    HW2 1313   0.345   2.131   1.560 -0.2359 -0.4464  0.7823
  342SOL     OW 1314   1.202   2.401   2.695  0.1759 -0.2269 -0.3943
  342SOL    HW1 1315   1.112   2.423   2.658 -0.0973  1.4819  1.1649
  342SOL    HW2 1316   1.246   2.333   2.636 -0.3450  2.0279 -3.6710
  343SOL     OW 1317   2.122   0.191   1.134 -0.5044  0.3381 -0.0885
  343SOL    HW1 1318   2.170   0.183   1.221  0.3873  2.8147 -0.2474
  343SOL    HW2 1319   2.027   0.216   1.150 -0.3187  0.8819  0.1871
  344SOL     OW 1320   1.526   0.640   3.773 -0.6783 -0.0703 -0.2817
  344SOL    HW1 1321   1.451   0.701   3.747 -1.4644 -0.2462  1.4374
  344SOL    HW2 1322   1.607   0.694   3.794 -0.8142  0.2398 -0.5425
  345SOL     OW 1323   2.056   1.048   3.027  0.1246  0.7399  0.4867
  345SOL    HW1 1324   2.088   1.071   2.935 -0.6398  2.0162  0.5107
  345SOL    HW2 1325   1.992   1.118   3.058 -0.4447 -0.2345  1.5804
  346SOL     OW 1326   1.065   1.082   3.958  0.3431  0.6032  0.9741
  346SOL    HW1 1327   0.966   1.083   3.941  0.6072 -1.6529 -1.4809
  346SOL    HW2 1328   1.106   1.166   3.923 -0.3876  0.2217 -0.9141
  347SOL     OW 1329   1.200   5.727   3.181  0.1336 -0.3761 -0.7917
  347SOL    HW1 1330   1.248   5.678   3.254  2.2114  0.2732 -1.6548
  347SOL    HW2 1331   1.230   5.822   3.179 -0.8838 -0.0586 -1.6583
  348SOL     OW 1332   0.182   0.397   3.557  0.1327 -0.0083  0.0924
  348SOL    HW1 1333   0.200   0.428   3.651  0.4583  0.0499  0.0118
  348SOL    HW2 1334   0.135   0.469   3.507  0.0257 -0.0108  0.1874
  349SOL     OW 1335   1.424   0.994   3.550 -0.0447 -0.8055  0.6134
  349SOL    HW1 1336   1.390   0.902   3.571  1.7976 -1.5274  0.6275
  349SOL    HW2 1337   1.480   0.990   3.467 -0.2885  0.4107  0.3765
  350SOL     OW 1338   2.112   0.651   2.645 -0.8760  0.2077 -0.4156
  350SOL    HW1 1339   2.163   0.577   2.690 -0.8771 -0.6290 -1.7346
  350SOL    HW2 1340   2.015   0.629   2.643 -0.5970 -1.1961 -3.2964
  351SOL     OW 1341   0.409   0.210   2.291  0.1282  0.2612  0.0643
  351SOL    HW1 1342   0.487   0.272   2.292  0.4789 -0.1748  0.4602
  351SOL    HW2 1343   0.380   0.194   2.197  2.6444 -2.1765 -0.4171
  352SOL     OW 1344   5.954   0.929   3.673 -0.0193 -0.0224 -0.6350
  352SOL    HW1 1345   6.023   0.865   3.706 -1.2971 -0.3618  1.6288
  352SOL    HW2 1346   5.946   1.005   3.737 -0.1576  1.2125 -2.0683
  353SOL     OW 1347   1.315   0.900   4.248 -0.2622 -0.7062  0.8855
  353SOL    HW1 1348   1.324   0.900   4.149  2.1157 -1.5795  1.0338
  353SOL    HW2 1349   1.325   0.993   4.283 -0.1975 -0.5145  0.3628
  354SOL     OW 1350   1.396   1.222   2.813  0.3208  0.2501  0.0160
  354SOL    HW1 1351   1.427   1.286   2.883  0.4648 -1.6651  1.8008
  354SOL    HW2 1352   1.308   1.183   2.841  1.0061 -1.5175 -0.1860
  355SOL     OW 1353   1.507   1.048   3.836  0.3181 -0.2275 -0.2321
  355SOL    HW1 1354   1.495   1.093   3.924  3.4091  1.2951 -0.4500
  355SOL    HW2 1355   1.455   1.097   3.766  0.8542  0.9124  0.1396
  356SOL     OW 1356   1.309   4.762   3.302 -0.2435 -0.2900  0.6179
  356SOL    HW1 1357   1.393   4.768   3.248 -1.4805  1.1364 -1.2536
  356SOL    HW2 1358   1.326   4.796   3.394  1.0937  0.5235  0.1012
  357SOL     OW 1359   1.235   0.106   2.397 -0.5435 -0.2815  0.0901
  357SOL    HW1 1360   1.171   0.040   2.356 -1.9131  0.9393  0.1814
  357SOL    HW2 1361   1.187   0.160   2.465  0.8509  0.0623  0.8224
  358SOL     OW 1362   0.443   0.259   3.992 -0.0062 -0.7346 -0.3023
  358SOL    HW1 1363   0.493   0.174   3.979 -0.6307 -1.2024  0.2764
  358SOL    HW2 1364   0.389   0.279   3.910 -0.2602 -1.1691 -0.2427
  359SOL     OW 1365   0.696   0.374   3.748  0.1802  0.8167  0.2321
  359SOL    HW1 1366   0.609   0.417   3.725  0.1342  1.3768  1.3652
  359SOL    HW2 1367   0.767   0.444   3.752  0.8913  0.2349 -1.5950
  360SOL     OW 1368   1.911   1.555   2.655 -0.2438 -0.8997  0.3094
  360SOL    HW1 1369   1.813   1.550   2.674 -0.7155 -1.7673 -2.0493
  360SOL    HW2 1370   1.930   1.636   2.599  0.4747 -0.5065  1.0960
  361SOL     OW 1371   1.314   1.007   5.043  0.5373  0.3225  0.0087
  361SOL    HW1 1372   1.314   0.993   4.944  0.4954  1.0708 -0.1016
  361SOL    HW2 1373   1.230   0.970   5.082  1.5438 -2.0523  0.0813
  362SOL     OW 1374   0.956   5.514   1.368  0.1751  0.6967  0.3846
  362SOL    HW1 1375   0.873   5.458   1.372 -0.0261  1.0645  1.4232
  362SOL    HW2 1376   0.944   5.596   1.424  0.2268  2.1298 -1.5923
  363SOL     OW 1377   1.692   0.087   1.246  0.2865 -0.3650 -0.1564
  363SOL    HW1 1378   1.594   0.072   1.236  0.1807  0.7714 -1.0733
  363SOL    HW2 1379   1.742   0.024   1.188  0.0107  0.2439 -1.0733
  364SOL     OW 1380   1.268   0.983   2.453  0.4073  0.1979  0.2501
  364SOL    HW1 1381   1.313   1.011   2.368  0.1681  0.3724  0.1819
  364SOL    HW2 1382   1.169   0.984   2.440  0.3153  1.3939  0.8849
  365SOL     OW 1383   0.459   0.772   1.169  0.1867  0.0308  0.4293
  365SOL    HW1 1384   0.476   0.855   1.222 -1.0043 -0.4946  1.6746
  365SOL    HW2 1385   0.432   0.698   1.230 -0.3086 -0.8556 -0.8275
  366SOL     OW 1386   0.241   0.584   2.289 -0.8698 -0.6676 -0.3173
  366SOL    HW1 1387   0.141   0.585   2.299 -0.9287  1.6987 -0.5696
  366SOL    HW2 1388   0.265   0.593   2.192 -0.3970 -1.1212 -0.2486
  367SOL     OW 1389   2.146   1.186   4.204  0.0689 -0.7007 -0.2441
  367SOL    HW1 1390   2.173   1.147   4.293  0.5918 -0.8775 -0.4755
  367SOL    HW2 1391   2.176   1.124   4.131  0.5955 -0.0397 -0.5989
  368SOL     OW 1392   0.964   5.657   3.723  0.0593  0.2590  0.0260
  368SOL    HW1 1393   0.922   5.708   3.798  0.4726  0.2495  0.2666
  368SOL    HW2 1394   0.920   5.683   3.637 -0.9905 -0.3359  0.3560
  369SOL     OW 1395   5.869   0.174   2.128 -0.2838  0.1761 -0.1070
  369SOL    HW1 1396   5.798   0.121   2.175  0.6549 -1.7847 -0.7557
  369SOL    HW2 1397   5.866   0.269   2.158 -0.9360 -0.5798  2.4816
  370SOL     OW 1398   1.582   1.025   2.839 -0.3131 -0.1996  0.1801
  370SOL    HW1 1399   1.639   1.098   2.801  0.6776 -0.2666  1.4526
  370SOL    HW2 1400   1.515   0.995   2.771 -0.2737  1.3977 -0.6047
  371SOL     OW 1401   0.683   1.982   2.976 -0.4960 -0.1307  0.7391
  371SOL    HW1 1402   0.615   1.960   3.046 -0.6229 -0.7714  0.4265
  371SOL    HW2 1403   0.771   1.944   3.003  0.2831  2.4523  2.1595
  372SOL     OW 1404   2.239   1.647   2.442  0.1913 -0.0333 -0.1809
  372SOL    HW1 1405   2.263   1.673   2.536  2.7197  1.1257 -1.0582
  372SOL    HW2 1406   2.245   1.728   2.383 -0.3102 -0.9480 -1.5329
  373SOL     OW 1407   0.704   0.926   3.527 -0.7205  1.3281  0.4871
  373SOL    HW1 1408   0.660   0.860   3.588 -1.7004  1.5260  0.0268
  373SOL    HW2 1409   0.674   0.909   3.433 -1.6769  2.9356  0.4650
  374SOL     OW 1410   0.483   5.559   4.341 -0.7159  0.1342 -0.4258
  374SOL    HW1 1411   0.384   5.545   4.344 -0.6480 -0.3360 -0.2893
  374SOL    HW2 1412   0.526   5.483   4.292 -0.1422 -1.3415  2.1571
  375SOL     OW 1413   2.986   5.674   4.094  0.6105 -0.2400 -0.7067
  375SOL    HW1 1414   3.021   5.657   4.186  2.4525 -0.6926 -1.4566
  375SOL    HW2 1415   2.948   5.767   4.089  0.7533 -0.1096  0.4156
  376SOL     OW 1416   0.087   0.120   3.109 -0.5232 -0.3896 -0.4974
  376SOL    HW1 1417   0.068   0.046   3.044 -0.2757 -1.5805  0.7230
  376SOL    HW2 1418   0.183   0.115   3.137 -0.3534  0.7744 -0.8311
  377SOL     OW 1419   2.473   1.110   4.154 -0.1587 -0.0095 -0.7339
  377SOL    HW1 1420   2.468   1.040   4.225  2.0696  0.2126 -0.2884
  377SOL    HW2 1421   2.493   1.198   4.196  0.2799  0.2878 -1.5468
  378SOL     OW 1422   0.346   1.930   2.922 -0.5496 -0.2333  0.2074
  378SOL    HW1 1423   0.260   1.918   2.873 -1.1449  3.3970  0.0632
  378SOL    HW2 1424   0.330   1.987   3.003  1.9076  2.3670 -0.9437
  379SOL     OW 1425   5.162   0.258   2.755 -0.1800  0.6259 -0.0524
  379SOL    HW1 1426   5.181   0.171   2.801 -2.0939  0.1044 -0.1563
  379SOL    HW2 1427   5.211   0.332   2.802 -0.2710 -0.2046  1.4121
  380SOL     OW 1428   5.705   3.006   3.978  0.2966 -0.7914  0.7853
  380SOL    HW1 1429   5.777   3.064   3.939 -0.0002 -0.4925  0.6767
  380SOL    HW2 1430   5.673   3.046   4.063 -2.5783  1.3502 -1.1160
  381SOL     OW 1431   5.831   0.518   1.230  0.3580 -0.2344  0.0152
  381SOL    HW1 1432   5.802   0.613   1.218  0.6126  0.0149  1.2110
  381SOL    HW2 1433   5.760   0.468   1.280 -0.2569 -0.9726 -1.5501
  382SOL     OW 1434   0.879   0.232   2.380 -0.9225 -0.1411  0.1938
  382SOL    HW1 1435   0.925   0.222   2.468  0.0163  1.2904 -0.0826
  382SOL    HW2 1436   0.790   0.276   2.393 -0.6820  0.2887  0.4179
  383SOL     OW 1437   1.262   1.522   2.748  0.2644  0.1780 -0.2484
  383SOL    HW1 1438   1.349   1.527   2.698  1.3025 -1.4824  1.2666
  383SOL    HW2 1439   1.281   1.508   2.846 -1.7168  0.1798  0.1689
  384SOL     OW 1440   5.189   0.624   0.219 -0.3672  0.3924  0.8148
  384SOL    HW1 1441   5.283   0.622   0.252 -0.4943 -0.5650  1.1174
  384SOL    HW2 1442   5.132   0.562   0.273 -1.0213  0.4058  0.1612
  385SOL     OW 1443   1.322   1.851   4.706 -0.1394 -0.3479  0.6961
  385SOL    HW1 1444   1.282   1.930   4.753  1.3072  0.9809 -0.2122
  385SOL    HW2 1445   1.250   1.787   4.681 -1.5117  1.2592  0.3836
  386SOL     OW 1446   1.631   2.045   3.148  0.5131 -0.0669  0.3054
  386SOL    HW1 1447   1.698   2.104   3.103  0.4086  0.7412  1.1842
  386SOL    HW2 1448   1.648   1.950   3.123  0.8671  0.2983 -0.9001
  387SOL     OW 1449   0.027   2.753   1.734 -0.3217 -0.1955 -0.4788
  387SOL    HW1 1450  -0.015   2.839   1.705 -0.2911 -0.2076 -0.5579
  387SOL    HW2 1451   0.099   2.727   1.671  0.1269  0.0682 -0.0788
  388SOL     OW 1452   1.350   1.500   3.474 -0.2513  0.2319 -0.2054
  388SOL    HW1 1453   1.266   1.448   3.492  0.1830 -1.2712 -2.2529
  388SOL    HW2 1454   1.386   1.535   3.561 -2.2505 -0.2239  0.8695
  389SOL     OW 1455   2.643   5.683   2.565 -0.5854  0.4274  0.3866
  389SOL    HW1 1456   2.641   5.610   2.633 -0.5037 -0.9174 -1.0103
  389SOL    HW2 1457   2.553   5.727   2.562 -1.8101 -1.9540 -1.1559
  390SOL     OW 1458   2.429   5.682   1.600  0.3708 -0.5116  0.8162
  390SOL    HW1 1459   2.482   5.755   1.555 -0.1898  0.2232  1.3331
  390SOL    HW2 1460   2.386   5.718   1.682  0.5490 -1.5848  1.4004
  391SOL     OW 1461   1.698   1.556   4.004  0.2190  0.5451  0.2348
  391SOL    HW1 1462   1.754   1.474   3.990  0.2257  0.4406  0.8294
  391SOL    HW2 1463   1.749   1.637   3.974  0.2888  0.3522 -0.1715
  392SOL     OW 1464   0.794   1.293   1.381  0.4345 -0.1026 -0.2086
  392SOL    HW1 1465   0.885   1.255   1.400  0.9422  1.4041  0.5472
  392SOL    HW2 1466   0.735   1.278   1.461  0.3145 -0.2277 -0.3210
  393SOL     OW 1467   0.545   1.466   4.767  0.4442  0.3389 -0.8997
  393SOL    HW1 1468   0.617   1.512   4.819 -1.0688  1.6511  0.1514
  393SOL    HW2 1469   0.545   1.369   4.789 -0.0079  0.8169  1.4870
  394SOL     OW 1470   0.925   1.126   3.007  0.0555 -0.1508 -0.5432
  394SOL    HW1 1471   0.837   1.082   2.989  0.0660  0.2583 -1.6299
  394SOL    HW2 1472   0.931   1.211   2.956  0.4366  0.6479  0.7796
  395SOL     OW 1473   1.757   1.735   4.517 -0.0998 -0.3264  0.4373
  395SOL    HW1 1474   1.713   1.706   4.432 -1.4699 -1.3885  1.4650
  395SOL    HW2 1475   1.856   1.739   4.503 -0.1046 -2.4081 -0.6812
  396SOL     OW 1476   1.616   5.539   3.609  0.3261 -0.3581 -0.4181
  396SOL    HW1 1477   1.612   5.636   3.585 -1.9141 -0.4955 -0.8081
  396SOL    HW2 1478   1.645   5.486   3.529  1.5798 -0.0370 -0.1960
  397SOL     OW 1479   0.030   5.491   1.949 -0.1128 -0.3055 -0.3078
  397SOL    HW1 1480   0.126   5.474   1.924 -0.5697 -1.8554 -1.1316
  397SOL    HW2 1481   0.000   5.423   2.015 -0.9804 -0.5751 -0.9567
  398SOL     OW 1482   1.061   0.899   1.075  0.3746  0.5799  0.4352
  398SOL    HW1 1483   0.993   0.836   1.037  1.3798  0.6183 -1.5460
  398SOL    HW2 1484   1.101   0.859   1.157 -1.1080 -0.0044  0.9087
  399SOL     OW 1485   2.017   0.461   1.977 -0.2999 -0.1927  0.3251
  399SOL    HW1 1486   2.069   0.423   2.054  0.2707 -3.2303 -1.4145
  399SOL    HW2 1487   1.939   0.402   1.957 -0.6006  0.6789 -1.2810
  400SOL     OW 1488  -0.008   1.339   1.869  0.1141 -0.2263  0.7801
  400SOL    HW1 1489   0.035   1.252   1.895  1.0438 -0.2394 -0.7356
  400SOL    HW2 1490   0.017   1.409   1.936 -0.7983 -1.1420  2.1272
  401SOL     OW 1491   2.416   1.632   2.906 -0.0091  0.6154 -0.0425
  401SOL    HW1 1492   2.343   1.603   2.967  0.1013 -0.8344 -0.5543
  401SOL    HW2 1493   2.482   1.558   2.896 -0.4522  0.4800 -2.5604
  402SOL     OW 1494   0.391   0.582   2.871 -0.2880 -0.1256  0.0789
  402SOL    HW1 1495   0.339   0.572   2.956  0.4121 -0.8586  0.4339
  402SOL    HW2 1496   0.347   0.651   2.814 -1.8380 -0.9454  0.2119
  403SOL     OW 1497   0.644   1.251   1.595  0.0159 -0.3517  0.3143
  403SOL    HW1 1498   0.621   1.283   1.687 -1.1179  1.5288 -0.5540
  403SOL    HW2 1499   0.597   1.166   1.575  1.1498 -1.3777  1.8412
  404SOL     OW 1500   5.128   0.854   1.459 -0.2541 -0.4697  0.2533
  404SOL    HW1 1501   5.049   0.845   1.399 -0.8849 -3.3867  1.3576
  404SOL    HW2 1502   5.189   0.926   1.425 -2.1833  0.2139 -1.9471
  405SOL     OW 1503   1.381   5.137   1.893  0.7476  0.1744 -0.1528
  405SOL    HW1 1504   1.313   5.065   1.909 -0.0324  1.0769  0.7510
  405SOL    HW2 1505   1.406   5.139   1.796  0.0832 -0.6979 -0.3505
  406SOL     OW 1506   1.292   1.932   3.409 -0.0284  0.4054 -0.1629
  406SOL    HW1 1507   1.352   1.888   3.342  0.6807  1.1441 -0.0319
  406SOL    HW2 1508   1.280   2.029   3.385 -0.8741  0.3556  0.0237
  407SOL     OW 1509   1.604   5.749   3.126  0.3243 -0.2553 -0.0880
  407SOL    HW1 1510   1.681   5.796   3.081 -1.0171  2.3168  0.1410
  407SOL    HW2 1511   1.592   5.786   3.218 -1.0119 -0.8235 -0.0223
  408SOL     OW 1512   5.882   1.984   1.762  0.4777  0.1698  0.4935
  408SOL    HW1 1513   5.854   2.038   1.842 -0.4571  0.7173 -0.1840
  408SOL    HW2 1514   5.843   2.025   1.679 -0.7012 -1.8257 -0.0044
  409SOL     OW 1515   1.027   1.352   3.740  0.2031 -0.2127 -0.1906
  409SOL    HW1 1516   1.069   1.363   3.650  0.0105  0.5189 -0.1982
  409SOL    HW2 1517   1.099   1.341   3.809  0.4249  0.8189 -0.2301
  410SOL     OW 1518   0.084   5.897   2.927 -0.3991  0.0710  0.3810
  410SOL    HW1 1519   0.108   5.826   2.994 -0.1972  1.0949  1.4131
  410SOL    HW2 1520   0.059   5.853   2.841  2.1854 -1.1562  0.1829
  411SOL     OW 1521   0.530   0.067   2.713 -0.1932 -0.1611 -0.1937
  411SOL    HW1 1522   0.470   0.054   2.792 -1.3453 -0.1211 -1.0379
  411SOL    HW2 1523   0.624   0.045   2.739 -0.0732  2.3468  1.9254
  412SOL     OW 1524   1.697   0.515   3.589  0.5952 -0.4612  0.2004
  412SOL    HW1 1525   1.667   0.564   3.508  1.3542 -1.2580 -0.5930
  412SOL    HW2 1526   1.635   0.534   3.665 -0.3769 -0.0432 -0.6783
  413SOL     OW 1527   0.046   5.871   2.091 -0.4719  0.2619  0.3851
  413SOL    HW1 1528   0.008   5.947   2.144 -0.2622  0.2888  0.4961
  413SOL    HW2 1529  -0.028   5.808   2.068 -0.6202  0.4138  0.4328
  414SOL     OW 1530   0.596   1.906   1.039 -0.6339  0.5546 -0.1262
  414SOL    HW1 1531   0.537   1.982   1.067 -0.4430  0.3854  0.7890
  414SOL    HW2 1532   0.647   1.931   0.958 -0.8471  1.2689 -0.0480
  415SOL     OW 1533   1.165   0.543   3.526 -0.1156  0.3595 -0.3648
  415SOL    HW1 1534   1.209   0.462   3.487  0.2250  0.7048 -0.7055
  415SOL    HW2 1535   1.128   0.521   3.616 -0.1923 -0.2247 -0.5354
  416SOL     OW 1536   0.178   1.725   2.549 -0.0304 -0.3153 -0.3932
  416SOL    HW1 1537   0.171   1.743   2.450  1.1232 -0.7082 -0.5641
  416SOL    HW2 1538   0.237   1.646   2.564  1.2110  0.7680  0.6903
  417SOL     OW 1539   1.288   5.428   2.516  0.3814  1.3255 -0.0015
  417SOL    HW1 1540   1.372   5.442   2.464 -0.1417  1.0759 -0.9347
  417SOL    HW2 1541   1.311   5.410   2.612  1.3320  2.5624  0.0399
  418SOL     OW 1542   1.784   0.750   4.678  0.1145 -0.2980  0.4141
  418SOL    HW1 1543   1.839   0.826   4.714  1.4697 -1.1560  0.2253
  418SOL    HW2 1544   1.702   0.741   4.734 -0.9926  2.3795 -0.5917
  419SOL     OW 1545   1.551   1.691   2.877 -0.2919  0.5281 -0.8775
  419SOL    HW1 1546   1.566   1.599   2.840  0.5065  0.0148  0.6574
  419SOL    HW2 1547   1.567   1.759   2.805  1.4337 -0.4190 -1.4264
  420SOL     OW 1548   1.719   0.751   2.869  0.3560 -0.7788 -0.2686
  420SOL    HW1 1549   1.738   0.844   2.837  0.0029 -0.4721  0.3916
  420SOL    HW2 1550   1.732   0.746   2.968 -0.7406 -1.1393 -0.1268
  421SOL     OW 1551   1.304   0.275   3.315 -0.4362 -0.2752 -0.0742
  421SOL    HW1 1552   1.347   0.304   3.401  1.6462 -1.8928 -0.4944
  421SOL    HW2 1553   1.230   0.211   3.335 -0.0282 -0.5705  0.5432
  422SOL     OW 1554   2.033   0.186   3.719 -0.0619  0.1670 -0.0828
  422SOL    HW1 1555   2.113   0.192   3.659 -0.4443  0.0200 -0.6113
  422SOL    HW2 1556   1.988   0.275   3.724 -1.6259 -0.4396 -2.2429
  423SOL     OW 1557   1.180   5.827   2.293  0.6142 -0.3809 -0.1212
  423SOL    HW1 1558   1.098   5.869   2.333  0.0836 -1.4136 -0.0762
  423SOL    HW2 1559   1.154   5.776   2.211  1.2633 -0.4941 -0.2592
  424SOL     OW 1560   2.481   0.471   3.886  0.0367 -0.5336 -0.1032
  424SOL    HW1 1561   2.396   0.507   3.924  0.0077 -1.1443  0.4317
  424SOL    HW2 1562   2.515   0.397   3.945  0.3942 -0.9871 -0.8713
  425SOL     OW 1563   0.430   1.424   1.062  0.6450 -0.4448  0.6487
  425SOL    HW1 1564   0.397   1.374   0.981 -0.3059  0.6214  0.3522
  425SOL    HW2 1565   0.524   1.397   1.082  0.4126 -1.7948  0.0580
  426SOL     OW 1566   1.129   1.734   3.420  0.3150  0.7202 -0.0353
  426SOL    HW1 1567   1.158   1.660   3.480  0.2254  0.6288 -0.1034
  426SOL    HW2 1568   1.192   1.811   3.428  1.1935  0.1173 -0.9766
  427SOL     OW 1569   0.951   0.995   2.281 -0.5897  0.0575  0.6081
  427SOL    HW1 1570   0.986   1.058   2.351 -0.6289 -1.1774  1.7737
  427SOL    HW2 1571   1.016   0.989   2.206  0.7919 -0.6659  1.8123
  428SOL     OW 1572   5.848   0.428   2.205  0.3331 -0.1187 -0.2425
  428SOL    HW1 1573   5.779   0.497   2.185 -1.0913 -0.9263  1.5614
  428SOL    HW2 1574   5.920   0.468   2.262  0.0796  0.1415 -0.1010
  429SOL     OW 1575   0.058   1.040   1.513 -0.8670  0.2434 -0.1802
  429SOL    HW1 1576   0.010   0.954   1.495 -0.9417 -0.1135  1.5374
  429SOL    HW2 1577   0.128   1.024   1.582  0.4102  1.1876 -1.2210
  430SOL     OW 1578   0.327   1.792   3.348  0.3782 -0.1448  0.0581
  430SOL    HW1 1579   0.356   1.778   3.442 -1.9939  0.9157  1.0382
  430SOL    HW2 1580   0.293   1.705   3.310 -1.2323 -0.0624  1.1995
  431SOL     OW 1581   1.031   1.407   2.324  0.2711  0.4079  0.2482
  431SOL    HW1 1582   0.943   1.456   2.323 -0.7268 -1.1704  2.8033
  431SOL    HW2 1583   1.053   1.378   2.231 -2.2155  0.3418 -0.4034
  432SOL     OW 1584   1.444   1.308   3.277  0.0468  0.9586 -0.0706
  432SOL    HW1 1585   1.415   1.367   3.352 -0.0710 -1.2252  1.7098
  432SOL    HW2 1586   1.369   1.247   3.252  0.3971  1.0203 -1.3381
  433SOL     OW 1587   1.018   0.129   2.608  0.3624 -0.2832  0.2110
  433SOL    HW1 1588   1.049   0.036   2.629  2.1940  0.1851 -0.2253
  433SOL    HW2 1589   1.035   0.188   2.688 -0.1625 -0.1859  0.2502
  434SOL     OW 1590   0.882   0.222   2.871  0.0918  0.1264 -0.3911
  434SOL    HW1 1591   0.805   0.263   2.920  1.9683  0.6404  2.3788
  434SOL    HW2 1592   0.900   0.275   2.788 -1.1250  1.3892  0.1020
  435SOL     OW 1593   1.676   1.670   2.429 -0.2722 -0.4959  0.5030
  435SOL    HW1 1594   1.773   1.686   2.450 -0.5385  0.6981  0.8934
  435SOL    HW2 1595   1.630   1.757   2.412 -1.1722 -1.0908 -0.2074
  436SOL     OW 1596   0.943   0.337   3.334  0.5920 -0.0227 -0.0936
  436SOL    HW1 1597   1.004   0.281   3.390 -0.0341 -0.5074  0.1282
  436SOL    HW2 1598   0.898   0.278   3.265 -0.5734  0.0508  0.5672
  437SOL     OW 1599   5.679   1.359   1.648  0.5416  0.3728  0.2043
  437SOL    HW1 1600   5.621   1.366   1.730 -0.3439 -0.3620 -0.3395
  437SOL    HW2 1601   5.749   1.289   1.664 -0.4440 -0.7219 -0.1164
  438SOL     OW 1602   1.797   5.231   2.426  0.2613 -0.2683 -0.7711
  438SOL    HW1 1603   1.718   5.201   2.478 -0.3420  0.8307 -1.0200
  438SOL    HW2 1604   1.830   5.156   2.369  0.9818 -1.5168  1.1945
  439SOL     OW 1605   0.231   4.612   3.480 -0.6896  0.2484  0.8345
  439SOL    HW1 1606   0.145   4.562   3.479 -0.3953 -0.2543 -0.0681
  439SOL    HW2 1607   0.293   4.574   3.412  0.1193  0.8387  1.2196
  440SOL     OW 1608   0.692   0.658   1.680  0.0062 -0.7840 -0.3953
  440SOL    HW1 1609   0.694   0.758   1.677 -2.3687 -0.6401  0.2528
  440SOL    HW2 1610   0.740   0.625   1.761 -2.5618  0.1513  1.6442
  441SOL     OW 1611   0.983   1.682   3.926  0.4962  0.2508  0.1806
  441SOL    HW1 1612   0.987   1.782   3.921 -2.5311  0.4788  0.8528
  441SOL    HW2 1613   0.899   1.650   3.883  2.0518 -2.1693 -1.2471
  442SOL     OW 1614   1.025   1.608   1.066 -0.5250 -0.1330 -0.7557
  442SOL    HW1 1615   0.997   1.691   1.018 -0.9020 -0.7928 -1.7027
  442SOL    HW2 1616   0.984   1.607   1.157 -0.1039  0.9577 -0.5466
  443SOL     OW 1617   0.476   0.442   3.611 -0.4077 -0.3418  0.4911
  443SOL    HW1 1618   0.386   0.468   3.575  0.2638  1.2778 -0.1162
  443SOL    HW2 1619   0.539   0.428   3.535  0.1927 -0.1213  0.9407
  444SOL     OW 1620   0.709   0.106   1.485 -0.2169  0.4632  0.3024
  444SOL    HW1 1621   0.618   0.113   1.443  0.4263 -0.5139 -1.3585
  444SOL    HW2 1622   0.703   0.055   1.570 -1.3144  1.0325  0.5872
  445SOL     OW 1623   5.487   0.996   3.179 -0.6941 -0.2555  0.1576
  445SOL    HW1 1624   5.434   1.078   3.155  1.9798  0.8912 -2.3870
  445SOL    HW2 1625   5.463   0.922   3.117 -0.5646 -0.2981  0.1595
  446SOL     OW 1626   1.261   2.161   1.849  0.1933 -0.7889 -0.5369
  446SOL    HW1 1627   1.165   2.151   1.875 -0.0660 -0.5477 -1.3887
  446SOL    HW2 1628   1.303   2.233   1.905 -0.1657 -0.7797 -0.2761
  447SOL     OW 1629  -0.009   0.853   4.513  0.1706  0.0626  0.0873
  447SOL    HW1 1630  -0.021   0.899   4.424  2.0386 -0.5756 -0.5601
  447SOL    HW2 1631   0.073   0.889   4.557 -1.4481  1.3167  2.2315
  448SOL     OW 1632   0.934   4.128   5.363 -0.0073 -0.0247 -0.2434
  448SOL    HW1 1633   0.866   4.147   5.291  0.1740 -0.4630 -0.5313
  448SOL    HW2 1634   0.919   4.037   5.400 -0.2566  0.2930  0.4576
  449SOL     OW 1635   5.597   0.035   3.265 -0.9396 -0.2522  0.2015
  449SOL    HW1 1636   5.657   0.021   3.187  1.6242 -0.2367  2.0540
  449SOL    HW2 1637   5.587  -0.050   3.316 -1.1102  0.1320  0.8349
  450SOL     OW 1638   1.378   0.634   5.110 -0.0653 -0.5920 -0.2188
  450SOL    HW1 1639   1.424   0.553   5.073 -0.2303 -1.0713  0.6186
  450SOL    HW2 1640   1.316   0.607   5.183  0.8520  0.4340  0.9687
  451SOL     OW 1641   0.734   1.154   5.385 -0.4145 -0.1052 -0.3824
  451SOL    HW1 1642   0.804   1.203   5.438 -0.3221 -0.0919 -0.5167
  451SOL    HW2 1643   0.681   1.220   5.332  1.1120 -0.3044 -2.2642
  452SOL     OW 1644   2.198   5.599   4.127 -0.2000  0.3290 -0.1308
  452SOL    HW1 1645   2.215   5.588   4.225 -0.2848  0.0713 -0.1454
  452SOL    HW2 1646   2.282   5.580   4.077  0.0173  1.0822 -0.0716
  453SOL     OW 1647   1.281   0.904   3.970  0.2507  0.0556 -0.0902
  453SOL    HW1 1648   1.210   0.973   3.956 -0.2853 -0.4999 -0.1916
  453SOL    HW2 1649   1.364   0.931   3.922 -0.4908 -0.1773 -1.5893
  454SOL     OW 1650   1.070   1.254   5.458 -0.2624 -0.5751  0.0323
  454SOL    HW1 1651   1.000   1.320   5.486 -0.9559 -0.6832 -1.3627
  454SOL    HW2 1652   1.080   1.256   5.359  0.5427 -1.7498  0.0685
  455SOL     OW 1653   0.191   0.825   5.663  0.1307 -0.1372  0.9830
  455SOL    HW1 1654   0.252   0.746   5.668  0.9340  0.3832 -0.1283
  455SOL    HW2 1655   0.196   0.877   5.748 -0.1941 -1.1131  1.6145
  456SOL     OW 1656   1.905   0.951   4.837 -0.0676  0.2050 -0.5274
  456SOL    HW1 1657   1.915   0.929   4.934 -1.8212 -1.1950 -0.5948
  456SOL    HW2 1658   1.880   1.047   4.826 -2.8359 -0.2794  0.7010
  457SOL     OW 1659   5.174   1.904   0.064 -0.0642  0.2359  0.3105
  457SOL    HW1 1660   5.225   1.833   0.015  0.3686  0.3194  0.6341
  457SOL    HW2 1661   5.087   1.920   0.018  0.2947  0.2491 -0.3827
  458SOL     OW 1662   0.488   1.388   4.372  0.0034  0.1899  0.4791
  458SOL    HW1 1663   0.416   1.338   4.420 -1.1851  2.5292  1.2929
  458SOL    HW2 1664   0.476   1.377   4.273  1.5953 -3.4708  0.5258
  459SOL     OW 1665   2.277   2.025   4.429 -0.7956 -0.2076  0.0743
  459SOL    HW1 1666   2.268   1.927   4.415 -2.8767  0.1059 -1.3706
  459SOL    HW2 1667   2.372   2.052   4.418 -0.4540 -1.8192 -1.4620
  460SOL     OW 1668   0.122   1.410   5.968 -0.0554 -0.4904 -0.4548
  460SOL    HW1 1669   0.110   1.327   5.913  1.3627 -0.4155 -0.9165
  460SOL    HW2 1670   0.126   1.489   5.907 -0.8961 -0.1357 -0.0517
  461SOL     OW 1671   0.992   1.131   4.499  0.0411  0.0433  0.7936
  461SOL    HW1 1672   0.899   1.133   4.461  0.5482 -2.1760 -0.7362
  461SOL    HW2 1673   1.052   1.188   4.443  0.1192 -0.6222  0.1870
  462SOL     OW 1674   5.775   2.652   4.476  0.0999 -0.2772  0.0563
  462SOL    HW1 1675   5.742   2.733   4.525 -0.0633 -0.3899  0.1361
  462SOL    HW2 1676   5.811   2.680   4.387 -1.0774 -0.2512 -0.4272
  463SOL     OW 1677   2.675   0.591   5.918  0.2331  0.1397 -0.0417
  463SOL    HW1 1678   2.585   0.598   5.961  0.7017  1.2394  0.8170
  463SOL    HW2 1679   2.693   0.673   5.864  0.4906 -0.3315 -0.6760
  464SOL     OW 1680   1.207   5.883   4.344 -0.1863  0.1558 -0.0897
  464SOL    HW1 1681   1.157   5.854   4.263 -1.2184  1.0435  0.1979
  464SOL    HW2 1682   1.209   5.808   4.410 -1.2364  0.1129 -0.0792
  465SOL     OW 1683   5.917   0.641   5.257 -0.3627  0.3899 -0.4158
  465SOL    HW1 1684   5.980   0.647   5.179  0.6831 -0.8926  0.2787
  465SOL    HW2 1685   5.903   0.732   5.296 -0.2303  0.9258 -1.5751
  466SOL     OW 1686   0.243   1.247   0.908  0.4662 -0.8330  0.0132
  466SOL    HW1 1687   0.304   1.265   0.831  2.7399  1.0186  2.1031
  466SOL    HW2 1688   0.265   1.157   0.947 -0.3887 -1.5755 -1.1244
  467SOL     OW 1689   0.702   5.945   3.449 -0.5214 -0.6232 -0.1419
  467SOL    HW1 1690   0.686   6.004   3.528 -1.4567 -1.5416  0.3919
  467SOL    HW2 1691   0.772   5.877   3.471  0.9210  0.5568 -0.9248
  468SOL     OW 1692   1.704   4.559   5.869  0.3710 -0.4535 -0.3688
  468SOL    HW1 1693   1.778   4.549   5.934  0.5434  1.2231 -0.2460
  468SOL    HW2 1694   1.620   4.583   5.917  0.3737  0.2418 -0.6841
  469SOL     OW 1695   1.221   0.550   5.334  0.0321  0.1916  0.1790
  469SOL    HW1 1696   1.225   0.637   5.384  1.4923 -0.5154  1.3672
  469SOL    HW2 1697   1.254   0.476   5.393  3.3153 -0.4695 -2.2575
  470SOL     OW 1698   2.889   2.198   4.145 -0.1321  0.3757  0.1856
  470SOL    HW1 1699   2.833   2.276   4.172 -0.7766 -0.7209  2.2334
  470SOL    HW2 1700   2.906   2.140   4.225  3.0625  0.0887 -0.5562
  471SOL     OW 1701   0.514   1.096   3.938  0.8236  0.2631  0.1027
  471SOL    HW1 1702   0.455   1.020   3.964  0.3937  0.3493 -0.5892
  471SOL    HW2 1703   0.557   1.135   4.019 -0.5670  0.6049  0.7005
  472SOL     OW 1704   1.797   1.478   3.071 -0.3157  0.1231  0.0331
  472SOL    HW1 1705   1.800   1.552   3.138 -0.2339 -0.1428  0.3232
  472SOL    HW2 1706   1.704   1.468   3.036  0.0506  1.7473 -1.5626
  473SOL     OW 1707   1.396   1.626   4.323  0.0518  0.8732 -0.4621
  473SOL    HW1 1708   1.362   1.548   4.374 -2.1622  2.1606  0.1893
  473SOL    HW2 1709   1.373   1.615   4.226  3.4023 -1.1162 -1.1719
  474SOL     OW 1710   5.228   1.185   5.875  0.4183  0.3692 -0.1361
  474SOL    HW1 1711   5.244   1.187   5.974 -1.3316 -1.6626  0.2822
  474SOL    HW2 1712   5.135   1.152   5.858  0.5100  1.1651 -2.4765
  475SOL     OW 1713   0.727   5.741   4.992 -0.1701 -0.5062 -0.5548
  475SOL    HW1 1714   0.731   5.694   5.080 -0.3660 -0.8191 -0.7117
  475SOL    HW2 1715   0.639   5.723   4.948 -0.5462  0.5994 -0.2909
  476SOL     OW 1716   5.376   1.867   5.478 -0.2411  0.4336  0.1241
  476SOL    HW1 1717   5.438   1.801   5.434 -1.5149 -0.3448 -0.5441
  476SOL    HW2 1718   5.371   1.847   5.576  0.8606  0.7667  0.2697
  477SOL     OW 1719   0.326   5.195   4.468 -0.5607 -0.2880 -0.3448
  477SOL    HW1 1720   0.411   5.148   4.445 -0.6905 -1.1504  0.8652
  477SOL    HW2 1721   0.343   5.261   4.541 -1.0992 -1.1481  0.5746
  478SOL     OW 1722   0.113   1.678   4.103 -0.5458 -0.0731  0.1261
  478SOL    HW1 1723   0.190   1.635   4.057 -0.0504  0.4333  0.4789
  478SOL    HW2 1724   0.079   1.754   4.047  0.7211  1.2117  1.0583
  479SOL     OW 1725   2.201   0.579   3.938  0.0627  0.5786  0.2731
  479SOL    HW1 1726   2.203   0.497   3.996 -0.4287  0.0492 -0.4457
  479SOL    HW2 1727   2.115   0.627   3.952 -0.0716  0.4303 -0.0476
  480SOL     OW 1728   0.409   2.683   4.246  0.6942  0.2181  0.2354
  480SOL    HW1 1729   0.369   2.696   4.337  2.0780 -1.2526  1.1111
  480SOL    HW2 1730   0.444   2.590   4.238  2.0131  0.7932 -1.2404
  481SOL     OW 1731   0.465   5.918   5.524  0.5306 -0.1835 -0.4193
  481SOL    HW1 1732   0.506   5.999   5.567 -1.8050  0.8341  0.0265
  481SOL    HW2 1733   0.518   5.837   5.550  1.2873  0.8363  1.4561
  482SOL     OW 1734   0.473   1.196   3.631 -0.0145 -0.0352 -0.2758
  482SOL    HW1 1735   0.479   1.192   3.731  0.0228 -1.2895 -0.3112
  482SOL    HW2 1736   0.564   1.214   3.593  0.0954 -0.2394 -0.1095
  483SOL     OW 1737   1.475   1.385   3.996  0.1645 -0.2441 -0.1842
  483SOL    HW1 1738   1.504   1.301   4.042  1.2461 -1.3449 -2.7292
  483SOL    HW2 1739   1.544   1.456   4.010 -0.1533 -0.1223  0.9197
  484SOL     OW 1740   0.519   1.422   3.249  0.0619 -0.3729 -1.1369
  484SOL    HW1 1741   0.571   1.374   3.178  1.1637  0.4118 -0.8861
  484SOL    HW2 1742   0.576   1.494   3.289 -1.1621  0.3906 -0.7140
  485SOL     OW 1743   1.175   4.991   4.694 -0.3896  0.1132  0.0855
  485SOL    HW1 1744   1.258   5.046   4.700  0.9209 -1.8085  0.3526
  485SOL    HW2 1745   1.138   4.996   4.601  2.3823 -2.1714 -1.3033
  486SOL     OW 1746   2.584   5.703   3.896 -0.0018 -0.0514  0.1944
  486SOL    HW1 1747   2.513   5.767   3.868  0.4551  0.2195 -0.3589
  486SOL    HW2 1748   2.543   5.613   3.911 -0.3489 -0.0855 -0.8669
  487SOL     OW 1749   0.685   0.712   0.024 -0.1375 -0.3601 -0.1774
  487SOL    HW1 1750   0.622   0.670   0.090  0.0523 -0.2436  0.0826
  487SOL    HW2 1751   0.682   0.661  -0.062  0.4844 -1.2452  0.3013
  488SOL     OW 1752   1.501   0.408   5.044  0.1988  0.0984  0.2153
  488SOL    HW1 1753   1.519   0.338   4.975 -2.7174  0.1187 -0.7098
  488SOL    HW2 1754   1.490   0.365   5.133  0.0632 -0.4062 -0.0392
  489SOL     OW 1755   0.298   0.551   5.777  0.0021 -0.0091 -0.2455
  489SOL    HW1 1756   0.388   0.517   5.805 -0.5094 -1.8846 -0.7135
  489SOL    HW2 1757   0.233   0.475   5.777 -1.2985  1.0690 -1.1172
  490SOL     OW 1758   0.326   0.153   5.995  0.5292  0.5840  0.2127
  490SOL    HW1 1759   0.358   0.202   5.914 -0.6992  1.8331  0.4314
  490SOL    HW2 1760   0.232   0.180   6.015  0.4672 -0.4654  1.4751
  491SOL     OW 1761   1.158   0.146   4.427 -0.3177 -0.3856 -0.7743
  491SOL    HW1 1762   1.155   0.211   4.350  0.0972  0.6312  0.0370
  491SOL    HW2 1763   1.200   0.061   4.397  0.3408  0.1924 -1.5427
  492SOL     OW 1764   0.690   5.405   4.880 -1.0018  0.4369  0.1407
  492SOL    HW1 1765   0.658   5.442   4.967 -2.3058 -0.6620  0.1430
  492SOL    HW2 1766   0.778   5.447   4.857  0.0668 -0.2460  2.6501
  493SOL     OW 1767   5.071   2.392   0.428  0.2833  0.0371 -0.1257
  493SOL    HW1 1768   5.048   2.322   0.496  0.1526 -0.3503 -0.5582
  493SOL    HW2 1769   5.145   2.358   0.370  0.9850  0.7080  0.3572
  494SOL     OW 1770   2.802   5.239   3.468 -0.3785 -0.0500  0.2220
  494SOL    HW1 1771   2.752   5.166   3.421 -0.5416  0.3893 -0.2923
  494SOL    HW2 1772   2.789   5.229   3.567  1.5949 -2.1604  0.3436
  495SOL     OW 1773   1.448   1.168   4.747 -0.3733  0.1543 -0.4232
  495SOL    HW1 1774   1.405   1.079   4.728  0.6872 -0.8124  1.4040
  495SOL    HW2 1775   1.529   1.154   4.804  0.3745  2.2373 -0.9086
  496SOL     OW 1776   2.544   0.934   5.049  0.7134  0.4089 -0.4796
  496SOL    HW1 1777   2.490   0.878   5.112  0.0149  1.6275  0.0559
  496SOL    HW2 1778   2.544   0.892   4.959 -1.0606  0.3056 -0.4692
  497SOL     OW 1779   1.280   5.441   4.648  0.0360 -0.0526 -0.0291
  497SOL    HW1 1780   1.325   5.391   4.722 -0.8927 -1.0118 -0.0841
  497SOL    HW2 1781   1.290   5.390   4.563 -0.8896 -0.1533 -0.0924
  498SOL     OW 1782   0.224   1.625   5.139 -0.2338 -0.2409 -0.6502
  498SOL    HW1 1783   0.188   1.538   5.105 -0.0768 -0.2351 -0.8325
  498SOL    HW2 1784   0.282   1.608   5.219 -0.6101 -0.2540 -0.3801
  499SOL     OW 1785   0.244   2.405   3.059 -0.0972 -0.3477 -0.3626
  499SOL    HW1 1786   0.210   2.311   3.062 -1.3480  0.1014  0.1182
  499SOL    HW2 1787   0.170   2.466   3.030  0.8518  0.4327 -1.2312
  500SOL     OW 1788   1.662   1.630   4.262 -0.2968 -0.8569 -0.2615
  500SOL    HW1 1789   1.568   1.646   4.289 -0.3355 -1.9491  0.2718
  500SOL    HW2 1790   1.665   1.602   4.166 -0.3785  0.5003 -0.6811
  501SOL     OW 1791   1.309   1.972   5.105 -0.2171 -0.0466  0.6906
  501SOL    HW1 1792   1.240   2.041   5.082  0.8170  0.9079  0.3891
  501SOL    HW2 1793   1.273   1.881   5.082 -1.8922  0.2840  1.8108
  502SOL     OW 1794   0.090   4.817   3.642  0.2026  0.4422 -0.5504
  502SOL    HW1 1795   0.052   4.732   3.678 -0.2152  0.2692 -1.3735
  502SOL    HW2 1796   0.175   4.798   3.594 -0.0219  0.4514 -0.9527
  503SOL     OW 1797   1.419   0.863   3.241 -0.2562  0.1369 -0.3389
  503SOL    HW1 1798   1.424   0.873   3.141 -0.3442  0.0222 -0.3550
  503SOL    HW2 1799   1.347   0.797   3.264  0.4047 -0.5601 -0.2433
  504SOL     OW 1800   0.545   1.734   5.304  0.1079  0.0073  0.2565
  504SOL    HW1 1801   0.488   1.655   5.329 -1.3863  0.0165 -2.6410
  504SOL    HW2 1802   0.538   1.750   5.205  1.3910  2.9947  0.5337
  505SOL     OW 1803   1.042   2.374   4.484  0.6557 -0.5699 -0.2499
  505SOL    HW1 1804   1.087   2.392   4.571  0.8200  1.3743 -0.6999
  505SOL    HW2 1805   0.943   2.382   4.495  0.6521 -0.7334 -0.1607
  506SOL     OW 1806   1.012   5.131   5.443 -0.3073 -0.4108 -0.1738
  506SOL    HW1 1807   0.927   5.142   5.494 -0.5165 -1.3092 -0.3185
  506SOL    HW2 1808   1.031   5.216   5.392 -0.9351 -0.0880  0.1157
  507SOL     OW 1809   2.056   0.936   3.435  0.2508  0.0964 -0.3230
  507SOL    HW1 1810   2.144   0.897   3.461  1.4276  1.9812 -1.3277
  507SOL    HW2 1811   2.034   0.911   3.341  1.0342  1.7712 -0.9923
  508SOL     OW 1812   0.613   2.017   3.961  0.2073  0.6807  0.2584
  508SOL    HW1 1813   0.612   1.920   3.985 -0.9226  0.7044  0.3556
  508SOL    HW2 1814   0.537   2.063   4.006  1.1591  1.7673  0.7978
  509SOL     OW 1815   1.934   0.555   4.589  0.1351  0.8925 -0.4463
  509SOL    HW1 1816   2.007   0.569   4.656  1.0699 -0.9690 -0.9922
  509SOL    HW2 1817   1.852   0.604   4.618  0.3557 -0.1602  2.3015
  510SOL     OW 1818   0.584   1.550   3.586  1.0645  0.0409  0.2100
  510SOL    HW1 1819   0.599   1.596   3.499  1.0035  0.3549  0.3669
  510SOL    HW2 1820   0.533   1.465   3.570  0.1497  0.6071  0.0559
  511SOL     OW 1821   0.202   2.510   4.970 -0.1047 -0.4166  0.5807
  511SOL    HW1 1822   0.152   2.455   5.036 -1.9296  1.6999  1.0622
  511SOL    HW2 1823   0.173   2.485   4.877  1.5402 -2.5050  0.5496
  512SOL     OW 1824   0.493   4.918   3.776 -0.2815 -0.3847 -0.6210
  512SOL    HW1 1825   0.459   5.010   3.757  0.7007 -0.5060 -3.4893
  512SOL    HW2 1826   0.502   4.905   3.875 -0.0344  2.7043 -0.1464
  513SOL     OW 1827   2.178   5.518   5.365 -0.3789 -0.1113  0.1397
  513SOL    HW1 1828   2.177   5.454   5.442  1.8552 -1.0538 -0.5313
  513SOL    HW2 1829   2.247   5.588   5.381 -0.4044  0.1148 -0.7054
  514SOL     OW 1830   0.926   5.699   3.207  0.1827  0.2711 -0.5330
  514SOL    HW1 1831   0.896   5.606   3.188  1.7327 -0.2976 -0.4023
  514SOL    HW2 1832   1.023   5.697   3.233 -0.0366  1.7969  0.5284
  515SOL     OW 1833   1.568   5.798   3.542  0.2406 -0.3459 -0.0074
  515SOL    HW1 1834   1.493   5.845   3.588 -0.5111 -0.3983 -1.1446
  515SOL    HW2 1835   1.586   5.842   3.454 -0.7911 -2.3892 -1.3189
  516SOL     OW 1836   1.955   2.021   2.662 -0.2141 -0.3735  0.6002
  516SOL    HW1 1837   1.894   2.097   2.643 -0.4803 -0.1513  2.2233
  516SOL    HW2 1838   1.931   1.979   2.749 -0.4237 -2.6882 -0.4913
  517SOL     OW 1839   1.431   0.788   4.508 -0.3834 -0.2366  0.7933
  517SOL    HW1 1840   1.376   0.833   4.436 -0.6463 -0.5240  0.8140
  517SOL    HW2 1841   1.370   0.756   4.580 -0.1336 -0.1036  1.0638
  518SOL     OW 1842   0.128   0.812   3.851 -0.5180  0.3817  0.0517
  518SOL    HW1 1843   0.051   0.789   3.912  0.9098  0.1036  1.8433
  518SOL    HW2 1844   0.209   0.830   3.906 -0.1302  4.3331 -1.5293
  519SOL     OW 1845   0.778   5.455   4.078  0.1868 -0.9527  0.2036
  519SOL    HW1 1846   0.850   5.424   4.016 -1.0910 -2.2545 -0.6930
  519SOL    HW2 1847   0.691   5.460   4.029  0.0923  3.7217  0.3692
  520SOL     OW 1848   0.268   0.136   4.189  0.0861  0.0858  0.8972
  520SOL    HW1 1849   0.187   0.160   4.135  1.3421  0.1265 -1.0841
  520SOL    HW2 1850   0.339   0.205   4.176  1.3525 -1.2308  0.5163
  521SOL     OW 1851   1.796   0.769   3.129  0.5122  0.1051 -0.2502
  521SOL    HW1 1852   1.895   0.774   3.143  0.4103  2.1653  0.0005
  521SOL    HW2 1853   1.752   0.745   3.216  0.8898 -3.7836 -0.9595
  522SOL     OW 1854   0.584   0.358   4.867  0.6633  0.4764  0.0050
  522SOL    HW1 1855   0.656   0.401   4.813  0.9784 -1.4150 -1.1942
  522SOL    HW2 1856   0.545   0.281   4.816 -1.3632  0.6605  1.1462
  523SOL     OW 1857   0.960   5.487   5.215  0.7251  0.1523 -0.0040
  523SOL    HW1 1858   1.022   5.422   5.258 -0.4278 -1.8899 -1.2501
  523SOL    HW2 1859   1.008   5.572   5.195  2.5517 -0.6479  0.8217
  524SOL     OW 1860   0.570   1.205   4.788  0.1787 -0.1616  0.6670
  524SOL    HW1 1861   0.657   1.163   4.816  0.6159  0.7561  0.7425
  524SOL    HW2 1862   0.494   1.148   4.817  0.7484 -0.8646  0.8113
  525SOL     OW 1863   1.191   1.749   4.969  0.0492  0.1141 -0.8181
  525SOL    HW1 1864   1.245   1.763   4.886 -1.3073  0.8390 -1.6163
  525SOL    HW2 1865   1.133   1.667   4.958 -0.3783  0.4008 -0.7428
  526SOL     OW 1866   0.156   0.391   3.844 -0.4036  0.1060  0.3893
  526SOL    HW1 1867   0.073   0.444   3.823  0.1395  0.6027 -0.5511
  526SOL    HW2 1868   0.203   0.432   3.923 -2.0232 -1.2927  2.1908
  527SOL     OW 1869   1.080   0.887   5.120  0.3237 -0.3385  0.0067
  527SOL    HW1 1870   1.070   0.814   5.052  1.3813  0.3045 -0.8816
  527SOL    HW2 1871   0.992   0.932   5.135  0.1865 -0.1006 -1.4062
  528SOL     OW 1872   2.911   0.599   3.981  0.2641  0.3173 -0.2730
  528SOL    HW1 1873   2.885   0.672   4.042 -1.6984 -0.7146  0.1943
  528SOL    HW2 1874   2.846   0.593   3.905  0.5549 -0.7585 -0.4584
  529SOL     OW 1875   0.163   5.897   5.819 -0.0317 -0.5035  0.0804
  529SOL    HW1 1876   0.217   5.977   5.846 -1.3465  0.0015  1.3651
  529SOL    HW2 1877   0.203   5.856   5.737  0.7303  1.4063 -0.5668
  530SOL     OW 1878   1.961   0.366   4.056 -0.3698  0.2354  0.2736
  530SOL    HW1 1879   1.888   0.324   4.109 -0.0203 -2.3523 -1.1461
  530SOL    HW2 1880   1.923   0.399   3.969 -0.2707  1.1416  0.5635
  531SOL     OW 1881   1.249   0.039   2.800  0.2744  0.1994 -0.6420
  531SOL    HW1 1882   1.335  -0.002   2.830  0.1862  1.9087  2.3689
  531SOL    HW2 1883   1.175  -0.026   2.814  0.2140  0.8754  3.4988
  532SOL     OW 1884   0.120   4.365   4.918 -0.0934  0.2013  0.2071
  532SOL    HW1 1885   0.073   4.454   4.920  0.0480  0.3695 -1.6584
  532SOL    HW2 1886   0.201   4.369   4.977 -0.1944  1.2543  0.3053
  533SOL     OW 1887   1.420   1.236   5.569 -0.3892  0.4978  0.1764
  533SOL    HW1 1888   1.344   1.172   5.584  0.7287 -0.6645  1.1786
  533SOL    HW2 1889   1.445   1.279   5.656  1.8211 -1.2108  0.4841
  534SOL     OW 1890   0.646   0.102   5.657  0.0265  0.2471 -0.3526
  534SOL    HW1 1891   0.728   0.054   5.628 -0.6106 -0.1623 -1.5217
  534SOL    HW2 1892   0.608   0.056   5.737  2.1646  1.7840  1.7009
  535SOL     OW 1893   1.620   1.092   3.356  0.3661 -0.6541 -0.7498
  535SOL    HW1 1894   1.587   1.186   3.366  1.7010  0.0821 -2.7456
  535SOL    HW2 1895   1.602   1.061   3.263 -1.1873 -2.8969  0.2008
  536SOL     OW 1896   0.783   1.495   3.787  0.0073  0.3194 -0.5741
  536SOL    HW1 1897   0.864   1.472   3.733 -0.0321 -1.5682  0.1140
  536SOL    HW2 1898   0.712   1.531   3.727  1.0582  1.2924 -1.2889
  537SOL     OW 1899   1.883   2.100   4.639 -0.1840 -0.0348  0.1792
  537SOL    HW1 1900   1.845   2.009   4.657  0.2082  0.0741  1.6492
  537SOL    HW2 1901   1.927   2.135   4.721  2.4266  0.1827 -1.1983
  538SOL     OW 1902   2.916   0.409   3.578  0.3844  0.2169 -0.7082
  538SOL    HW1 1903   2.862   0.442   3.501 -1.6277 -0.2053  0.4509
  538SOL    HW2 1904   2.923   0.309   3.575  2.7522  0.3384 -1.8301
  539SOL     OW 1905   0.498   0.136   4.722 -0.2027  0.1041 -0.0534
  539SOL    HW1 1906   0.415   0.123   4.776  1.0570  1.0464  2.2395
  539SOL    HW2 1907   0.532   0.047   4.692 -1.0241 -0.4397  0.5871
  540SOL     OW 1908   2.998   1.675   0.025 -0.2020 -0.2059  0.7055
  540SOL    HW1 1909   3.075   1.621  -0.007 -0.6325  0.7874 -2.2452
  540SOL    HW2 1910   2.940   1.618   0.084  1.3645 -1.7401  0.8398
  541SOL     OW 1911   2.329   1.758   4.433 -0.0517 -0.4276  0.2489
  541SOL    HW1 1912   2.390   1.735   4.508 -0.3206 -2.5514 -0.1144
  541SOL    HW2 1913   2.351   1.701   4.353 -1.2118  0.1805 -0.5430
  542SOL     OW 1914   0.499   2.470   4.973  0.3845  0.2987 -0.4195
  542SOL    HW1 1915   0.501   2.371   4.984  0.3068  0.2671 -0.6873
  542SOL    HW2 1916   0.407   2.504   4.988  0.3706  0.3081 -0.5289
  543SOL     OW 1917   1.723   1.033   0.077  0.8710  0.0109 -0.4128
  543SOL    HW1 1918   1.817   1.046   0.045  0.0101  0.7189 -2.8966
  543SOL    HW2 1919   1.672   0.982   0.008 -1.0172  1.2211  0.0345
  544SOL     OW 1920   0.555   1.375   5.207  0.4206  0.3260  0.3453
  544SOL    HW1 1921   0.490   1.305   5.178 -1.0068  1.3862  0.8847
  544SOL    HW2 1922   0.648   1.342   5.191 -0.2184 -1.3559 -0.1594
  545SOL     OW 1923   1.049   0.078   5.833 -0.5340  0.1854 -0.0047
  545SOL    HW1 1924   0.991   0.089   5.913  0.4480 -1.9855  1.1012
  545SOL    HW2 1925   1.139   0.046   5.862  0.1050  0.1167 -1.9349
  546SOL     OW 1926   0.482   0.608   0.195 -0.2284  0.0089 -0.4343
  546SOL    HW1 1927   0.385   0.614   0.220 -0.3906  0.4024 -1.1121
  546SOL    HW2 1928   0.508   0.512   0.185 -1.0803 -0.0939 -2.1348
  547SOL     OW 1929   2.148   4.912   3.623  0.1228 -0.1353 -0.1025
  547SOL    HW1 1930   2.242   4.898   3.593 -0.1661 -0.0777 -1.0931
  547SOL    HW2 1931   2.085   4.869   3.557 -0.6573  2.6260 -1.3312
  548SOL     OW 1932   0.161   0.834   5.399  0.3657 -0.7891  0.0035
  548SOL    HW1 1933   0.074   0.880   5.379  1.0922  0.6624  0.0659
  548SOL    HW2 1934   0.173   0.827   5.498  1.6055  1.6810  0.1058
  549SOL     OW 1935   1.063   5.922   4.896  0.9823 -0.0662 -0.5459
  549SOL    HW1 1936   0.981   5.953   4.848  0.0077 -1.6369  0.0093
  549SOL    HW2 1937   1.135   5.902   4.829  0.0398 -1.1157 -1.2955
  550SOL     OW 1938   0.177   2.270   4.202  0.7637 -0.0326 -0.0217
  550SOL    HW1 1939   0.133   2.180   4.197 -0.4080  0.5507 -0.7641
  550SOL    HW2 1940   0.235   2.284   4.122  0.3689  0.1502 -0.2795
  551SOL     OW 1941   1.623   0.726   3.370 -0.3625  0.1446 -0.3585
  551SOL    HW1 1942   1.684   0.784   3.424  0.4321  0.2062 -1.2858
  551SOL    HW2 1943   1.543   0.779   3.342  0.5378  0.9713 -1.5294
  552SOL     OW 1944   1.116   5.752   5.244 -0.4223 -0.4596 -0.1997
  552SOL    HW1 1945   1.088   5.724   5.336  0.3436 -2.0465 -0.4074
  552SOL    HW2 1946   1.064   5.833   5.217  0.6838  1.2462  2.3541
  553SOL     OW 1947   1.778   0.911   3.476 -0.3675 -0.1285 -0.3473
  553SOL    HW1 1948   1.875   0.931   3.484 -0.2333 -0.4963 -1.0001
  553SOL    HW2 1949   1.730   0.992   3.441  0.0569 -0.6456 -2.2423
  554SOL     OW 1950   2.755   0.749   4.541  0.1896 -0.2602 -0.1446
  554SOL    HW1 1951   2.735   0.677   4.475  0.2888  0.6910 -1.2427
  554SOL    HW2 1952   2.769   0.835   4.493  0.5006  0.4129  1.1107
  555SOL     OW 1953   1.302   0.204   4.030  0.4377  0.0977  0.3736
  555SOL    HW1 1954   1.341   0.264   3.961 -1.5663 -0.1774 -1.0965
  555SOL    HW2 1955   1.311   0.109   4.002 -0.3862 -0.0194  0.4567
  556SOL     OW 1956   1.341   1.262   5.105  0.3029  0.0104  0.2757
  556SOL    HW1 1957   1.357   1.323   5.027  2.4258  0.2121  0.7934
  556SOL    HW2 1958   1.342   1.167   5.074 -0.1718  0.1274 -0.1137
  557SOL     OW 1959   1.382   1.802   0.082 -0.0670 -0.2562  0.0469
  557SOL    HW1 1960   1.400   1.803  -0.016  1.0664 -0.7454  0.2352
  557SOL    HW2 1961   1.342   1.890   0.109 -1.8573 -0.6685 -1.0834
  558SOL     OW 1962   0.983   0.686   4.942  0.0308  0.0625 -0.2555
  558SOL    HW1 1963   1.020   0.664   4.852 -0.1971 -0.0190 -0.3310
  558SOL    HW2 1964   1.021   0.625   5.011  0.1581  0.0848 -0.3058
  559SOL     OW 1965   1.720   4.632   5.599 -0.8018 -0.3061  0.5040
  559SOL    HW1 1966   1.715   4.603   5.695 -2.7758  1.4973  1.0144
  559SOL    HW2 1967   1.629   4.627   5.558 -0.3261  0.7300 -0.7296
  560SOL     OW 1968   0.829   0.298   0.614  0.0387 -0.1489 -1.2555
  560SOL    HW1 1969   0.783   0.386   0.606  1.2117  0.5722 -0.5150
  560SOL    HW2 1970   0.784   0.242   0.684 -1.2634 -0.5266 -2.3718
  561SOL     OW 1971   2.068   1.989   4.225 -0.1445 -0.0367 -0.0822
  561SOL    HW1 1972   1.993   2.056   4.226  0.7777  1.0304 -0.0191
  561SOL    HW2 1973   2.092   1.965   4.319  0.0063  0.0979 -0.0866
  562SOL     OW 1974   1.711   0.743   0.174  0.1689  0.3745 -0.8888
  562SOL    HW1 1975   1.616   0.769   0.188  0.1050 -0.0713 -0.4757
  562SOL    HW2 1976   1.768   0.826   0.172 -0.2239  0.6403 -1.1474
  563SOL     OW 1977   1.632   0.151   2.876  0.0253  0.4575 -0.1139
  563SOL    HW1 1978   1.598   0.166   2.969 -0.0315  0.0180 -0.0630
  563SOL    HW2 1979   1.657   0.239   2.835  1.0976  0.5586  0.7069
  564SOL     OW 1980   0.739   0.404   5.744 -0.2697  0.4219  0.2695
  564SOL    HW1 1981   0.769   0.348   5.666 -1.8197  2.4045 -1.8664
  564SOL    HW2 1982   0.795   0.487   5.749 -0.4164  0.4811  1.0746
  565SOL     OW 1983   5.512   1.365   4.668  0.0544 -0.1388 -0.2379
  565SOL    HW1 1984   5.521   1.268   4.690 -0.0895 -0.3707 -1.1529
  565SOL    HW2 1985   5.472   1.413   4.746 -0.4523 -0.9244  0.0065
  566SOL     OW 1986   0.848   5.579   4.545  0.0678  0.4302  0.4225
  566SOL    HW1 1987   0.881   5.578   4.639  1.4408  1.5222 -0.0126
  566SOL    HW2 1988   0.841   5.485   4.511  1.7455  0.0849  0.9093
  567SOL     OW 1989   2.969   0.256   5.928 -0.3744 -0.6689  0.4118
  567SOL    HW1 1990   3.043   0.285   5.988 -0.8454  0.5516  0.4295
  567SOL    HW2 1991   2.881   0.277   5.971 -0.7191 -0.0157 -0.5693
  568SOL     OW 1992   5.973   0.226   4.364  0.3906 -0.3890 -0.4823
  568SOL    HW1 1993   6.011   0.287   4.295  1.3323  2.0057  1.9949
  568SOL    HW2 1994   5.873   0.227   4.357  0.2866  2.4316  0.1490
  569SOL     OW 1995   2.147   0.110   4.643  0.3802 -0.4363  0.2249
  569SOL    HW1 1996   2.059   0.157   4.645  0.2959 -0.5542 -0.6217
  569SOL    HW2 1997   2.167   0.079   4.550  0.0967 -2.7199  0.8648
  570SOL     OW 1998   0.784   5.963   4.834  0.3524  0.2840  0.1084
  570SOL    HW1 1999   0.791   6.058   4.863  1.1615  0.5253 -0.8116
  570SOL    HW2 2000   0.776   5.904   4.914 -1.8356  1.2155  0.6554
  571SOL     OW 2001   0.053   0.919   5.885  0.6891 -0.6022  0.0810
  571SOL    HW1 2002   0.077   0.923   5.982  1.3905  0.2090 -0.1179
  571SOL    HW2 2003  -0.036   0.963   5.870  0.2025 -1.4234  0.4541
  572SOL     OW 2004   2.409   1.354   4.970  0.1723  0.1125 -0.6674
  572SOL    HW1 2005   2.446   1.447   4.962 -0.1509  0.2471 -0.6026
  572SOL    HW2 2006   2.485   1.289   4.973  0.4290  0.4450  0.3199
  573SOL     OW 2007   0.462   0.089   0.218  0.5904  0.1988  0.2311
  573SOL    HW1 2008   0.442   0.116   0.124 -0.0872 -0.9326  0.0288
  573SOL    HW2 2009   0.395   0.131   0.280  0.1675 -0.1966  0.0416
  574SOL     OW 2010   2.633   5.659   3.490 -0.1849 -0.0730  0.4015
  574SOL    HW1 2011   2.713   5.674   3.549  1.4770 -0.6199 -1.6102
  574SOL    HW2 2012   2.631   5.727   3.417 -1.1646 -0.4923  0.0176
  575SOL     OW 2013   1.512   0.798   4.898  0.5100 -0.3858 -0.1281
  575SOL    HW1 2014   1.577   0.857   4.946  0.3126 -1.3749  1.4401
  575SOL    HW2 2015   1.457   0.748   4.965 -0.9692 -0.5645 -1.4198
  576SOL     OW 2016   1.322   1.438   4.557  0.4382 -0.0444 -0.0792
  576SOL    HW1 2017   1.364   1.505   4.619  0.6919 -1.3893  1.2740
  576SOL    HW2 2018   1.393   1.378   4.521  0.1490  0.0945 -0.8918
  577SOL     OW 2019   0.438   2.067   4.210  0.2660 -0.0032  0.0954
  577SOL    HW1 2020   0.384   2.151   4.205 -0.6317 -0.5486  0.4335
  577SOL    HW2 2021   0.377   1.989   4.225  1.1159 -0.6823  0.0812
  578SOL     OW 2022   0.755   5.759   5.964  0.4818  0.2938  0.1418
  578SOL    HW1 2023   0.838   5.712   5.933  0.5253 -0.3212  1.1405
  578SOL    HW2 2024   0.779   5.852   5.992  1.1262 -0.3159  1.7385
  579SOL     OW 2025   0.875   0.762   0.224 -0.8996  0.2825  0.0772
  579SOL    HW1 2026   0.799   0.753   0.160 -1.1287  0.4110  0.3276
  579SOL    HW2 2027   0.943   0.826   0.187 -0.9049  0.1570 -0.1518
  580SOL     OW 2028   1.064   0.521   5.136  0.4976 -0.3063 -0.4345
  580SOL    HW1 2029   1.123   0.551   5.211  0.1306  1.6071 -0.8378
  580SOL    HW2 2030   1.095   0.432   5.102  0.0032 -1.7715  2.6463
  581SOL     OW 2031   0.478   0.298   5.486 -0.1136 -0.0206  0.1911
  581SOL    HW1 2032   0.476   0.396   5.508 -0.2381 -0.1999  0.9991
  581SOL    HW2 2033   0.532   0.250   5.554  0.4205 -0.4426 -0.5265
  582SOL     OW 2034   0.769   2.122   4.226 -0.6536 -0.0700 -0.0403
  582SOL    HW1 2035   0.814   2.110   4.315  1.3254  0.0684 -0.9681
  582SOL    HW2 2036   0.688   2.065   4.222 -0.3149 -0.7163  1.5504
  583SOL     OW 2037   0.377   0.516   4.957 -0.2387 -0.3903  0.1629
  583SOL    HW1 2038   0.417   0.596   5.002  0.0956 -1.0104  0.9869
  583SOL    HW2 2039   0.451   0.457   4.923 -0.4822 -0.3358 -0.4756
  584SOL     OW 2040   0.610   1.445   5.615 -0.3963  0.1510 -0.0779
  584SOL    HW1 2041   0.601   1.518   5.683  0.5205 -1.6683  2.1439
  584SOL    HW2 2042   0.521   1.426   5.574 -0.7293  2.1389 -0.3410
  585SOL     OW 2043   0.689   0.535   4.595  0.4401 -0.2517  0.3111
  585SOL    HW1 2044   0.780   0.519   4.557  0.8100  0.6675  0.7547
  585SOL    HW2 2045   0.632   0.454   4.583  0.9358 -0.4217 -1.0531
  586SOL     OW 2046   5.982   1.206   4.892 -0.4488  0.1777 -0.5595
  586SOL    HW1 2047   5.900   1.187   4.946  0.2544  0.7429  0.7542
  586SOL    HW2 2048   5.972   1.165   4.802 -1.5649 -0.9926  0.0612
  587SOL     OW 2049   2.361   1.659   4.891 -0.0287 -0.1914 -0.3015
  587SOL    HW1 2050   2.405   1.670   4.980  0.3493  0.7912 -0.5981
  587SOL    HW2 2051   2.290   1.730   4.880 -3.2253 -2.9052  1.0185
  588SOL     OW 2052   0.366   5.833   4.540  0.2262  0.0105 -0.1492
  588SOL    HW1 2053   0.351   5.855   4.444  0.4261 -1.0380 -0.4375
  588SOL    HW2 2054   0.459   5.855   4.565 -0.3175  1.9265  0.2989
  589SOL     OW 2055   0.797   1.199   5.094  0.5804 -0.3793  0.1128
  589SOL    HW1 2056   0.881   1.186   5.147  0.7092 -1.5406 -0.3518
  589SOL    HW2 2057   0.805   1.151   5.007 -0.4920 -0.3102 -0.0342
  590SOL     OW 2058   4.694   2.666   5.764  0.6385  0.1125  0.1711
  590SOL    HW1 2059   4.698   2.728   5.843 -0.6194  0.1636  0.2152
  590SOL    HW2 2060   4.753   2.588   5.781  0.5157  0.2053  1.1029
  591SOL     OW 2061   5.733   0.598   5.469  0.2185  0.2958 -0.5132
  591SOL    HW1 2062   5.780   0.622   5.384  1.4270  1.3679  0.4199
  591SOL    HW2 2063   5.800   0.568   5.537 -0.7102 -0.3701  0.1342
  592SOL     OW 2064   1.451   1.767   5.470 -0.5411 -0.2685  1.0050
  592SOL    HW1 2065   1.356   1.734   5.473 -0.4213 -0.7187  0.1210
  592SOL    HW2 2066   1.459   1.839   5.402  0.1358 -1.5914 -0.3884
  593SOL     OW 2067   5.584   5.168   2.901  0.1835  0.2226 -0.2778
  593SOL    HW1 2068   5.671   5.142   2.860  0.2992 -0.2518  0.2615
  593SOL    HW2 2069   5.596   5.182   2.999 -0.2948  0.3912 -0.2419
  594SOL     OW 2070   0.223   0.657   0.261  0.0265 -0.0639  0.3188
  594SOL    HW1 2071   0.187   0.743   0.297  2.1655  1.5676 -1.1264
  594SOL    HW2 2072   0.221   0.660   0.161  1.8984 -0.8580  0.2206
  595SOL     OW 2073   1.186   0.857   5.383 -0.2207  0.3685  0.4274
  595SOL    HW1 2074   1.208   0.939   5.435  0.0425  0.1290  0.6962
  595SOL    HW2 2075   1.123   0.880   5.308 -1.7050  0.4851  1.6604
  596SOL     OW 2076   2.515   0.124   3.705  0.7608  0.2388  0.2109
  596SOL    HW1 2077   2.526   0.155   3.799 -0.2614 -0.0605  0.4391
  596SOL    HW2 2078   2.495   0.202   3.646  0.5462  0.3175  0.3874
  597SOL     OW 2079   5.529   1.493   3.564  0.1889 -0.6501  0.0966
  597SOL    HW1 2080   5.605   1.528   3.619  1.2885 -3.4292  0.5077
  597SOL    HW2 2081   5.554   1.406   3.523 -2.8291 -1.7699  0.3411
  598SOL     OW 2082   1.656   1.299   3.588  0.0698 -0.4588 -0.4009
  598SOL    HW1 2083   1.696   1.347   3.510 -0.1567 -0.7679 -0.7067
  598SOL    HW2 2084   1.725   1.239   3.629  0.0841 -0.5639 -0.5793
  599SOL     OW 2085   5.280   1.263   0.174 -0.1417  0.3919 -0.0059
  599SOL    HW1 2086   5.378   1.266   0.190 -0.3512  0.2689  1.3750
  599SOL    HW2 2087   5.241   1.181   0.216 -0.8733  0.5608 -0.3266
  600SOL     OW 2088   4.894   1.510   4.225  0.3299 -0.7216 -0.3007
  600SOL    HW1 2089   4.877   1.574   4.300 -1.4371 -0.0553 -1.2184
  600SOL    HW2 2090   4.991   1.513   4.201  0.6555  0.1305  0.9722
  601SOL     OW 2091   2.495   1.129   3.734 -0.4309 -0.1833 -0.2295
  601SOL    HW1 2092   2.406   1.135   3.779 -0.4317 -1.0115 -0.0916
  601SOL    HW2 2093   2.491   1.177   3.646 -1.3921 -1.2211 -0.7843
  602SOL     OW 2094   2.178   1.313   4.866  0.4772 -0.2534 -0.1284
  602SOL    HW1 2095   2.263   1.337   4.912  0.3163  0.0957 -0.0137
  602SOL    HW2 2096   2.119   1.263   4.929  1.8192 -3.2431 -1.0563
  603SOL     OW 2097   0.706   2.385   0.423  0.0660  0.9544 -0.0699
  603SOL    HW1 2098   0.723   2.289   0.443  0.9091  1.3803  1.4169
  603SOL    HW2 2099   0.615   2.411   0.458 -0.8862  0.3182 -1.9766
  604SOL     OW 2100   1.838   0.635   5.452 -0.3484 -0.1473  0.1429
  604SOL    HW1 2101   1.788   0.720   5.464  0.0927  0.3339 -1.2166
  604SOL    HW2 2102   1.773   0.562   5.429 -0.4059  0.7091 -2.7542
  605SOL     OW 2103   5.885   2.368   4.458  0.0906  0.0662  0.1385
  605SOL    HW1 2104   5.833   2.453   4.459  0.7600  0.5786 -2.0045
  605SOL    HW2 2105   5.982   2.387   4.471  0.0166 -0.6557  1.9977
  606SOL     OW 2106   1.365   1.773   3.898 -0.7713 -0.3825  0.5813
  606SOL    HW1 2107   1.357   1.725   3.986  0.6749  1.3506  1.7338
  606SOL    HW2 2108   1.300   1.849   3.896 -1.6394 -1.1099 -0.4039
  607SOL     OW 2109   1.734   1.814   0.482  0.0334 -0.0343 -0.3122
  607SOL    HW1 2110   1.805   1.864   0.433  1.0034  0.2266  1.3045
  607SOL    HW2 2111   1.656   1.799   0.421  0.5632  1.6134 -1.4619
  608SOL     OW 2112   1.041   5.731   5.504 -0.1555 -0.5785  0.3630
  608SOL    HW1 2113   1.136   5.720   5.531 -0.1784  0.6937  1.0050
  608SOL    HW2 2114   0.989   5.651   5.533  0.5440 -0.8891  0.7862
  609SOL     OW 2115   0.549   0.859   3.782  0.1613  0.0055 -0.2166
  609SOL    HW1 2116   0.589   0.820   3.864  1.1818 -0.0485 -0.7274
  609SOL    HW2 2117   0.522   0.954   3.800  0.8794  0.1657  0.0188
  610SOL     OW 2118   0.737   0.886   3.236 -0.0054 -0.2737 -0.1639
  610SOL    HW1 2119   0.728   0.786   3.229 -1.4836 -0.1811 -0.0015
  610SOL    HW2 2120   0.736   0.926   3.145  0.2502 -0.3833 -0.2152
  611SOL     OW 2121   1.810   1.857   4.760 -0.5639  0.0906  0.8676
  611SOL    HW1 2122   1.792   1.796   4.683  1.7422 -0.3574  0.6184
  611SOL    HW2 2123   1.779   1.812   4.845 -2.5034  0.3138  0.3231
  612SOL     OW 2124   2.337   5.894   4.321 -0.1036  0.5296  0.3435
  612SOL    HW1 2125   2.426   5.931   4.293  0.2422  1.3829  2.3902
  612SOL    HW2 2126   2.346   5.796   4.337  0.0412  0.3016 -1.0249
  613SOL     OW 2127   1.169   1.074   2.900 -0.6489  0.5578  0.1630
  613SOL    HW1 2128   1.086   1.065   2.955 -0.8222  1.3836  0.0458
  613SOL    HW2 2129   1.158   1.022   2.815 -0.6298 -0.1929  0.6076
  614SOL     OW 2130   0.173   1.352   5.024 -0.2242 -0.2458  0.3551
  614SOL    HW1 2131   0.095   1.315   4.974  0.8975 -0.2291 -1.5223
  614SOL    HW2 2132   0.227   1.277   5.062  0.8501 -0.5304 -1.5806
  615SOL     OW 2133   2.100   0.710   5.080  0.4221 -0.1500 -0.0958
  615SOL    HW1 2134   2.078   0.678   5.172 -1.4820  0.1570 -0.4036
  615SOL    HW2 2135   2.027   0.684   5.017  0.9738  0.9237 -1.2378
  616SOL     OW 2136   1.252   0.638   4.062 -0.0892  0.0226 -0.6930
  616SOL    HW1 2137   1.274   0.732   4.036 -0.7996  0.1022 -1.0049
  616SOL    HW2 2138   1.230   0.634   4.159 -3.1410  0.7641 -1.2478
  617SOL     OW 2139   1.898   0.293   5.311  0.0294  0.4735  0.2667
  617SOL    HW1 2140   1.812   0.340   5.330  0.6307  1.1213  1.4349
  617SOL    HW2 2141   1.928   0.242   5.392  0.3444 -0.4161 -0.3855
  618SOL     OW 2142   0.785   5.970   2.772  0.1536  0.0807 -0.6765
  618SOL    HW1 2143   0.779   5.903   2.847 -0.4617  0.1839 -0.6282
  618SOL    HW2 2144   0.844   6.046   2.799  0.3162 -0.1167 -0.4765
  619SOL     OW 2145   0.840   0.934   5.248  0.3668  0.4211  0.3240
  619SOL    HW1 2146   0.810   0.844   5.279 -0.9741  0.0390 -1.8946
  619SOL    HW2 2147   0.780   1.004   5.287  0.8421  0.3027  1.3054
  620SOL     OW 2148   1.009   1.471   4.579  0.6510 -0.1826 -0.8390
  620SOL    HW1 2149   0.917   1.433   4.569  1.2920 -1.5891 -1.8793
  620SOL    HW2 2150   1.048   1.440   4.666  0.2867  0.1048 -0.5686
  621SOL     OW 2151   0.387   1.051   5.540 -0.1609 -0.2465 -0.2190
  621SOL    HW1 2152   0.366   0.953   5.539  0.4795 -0.3876 -0.0624
  621SOL    HW2 2153   0.477   1.065   5.580  0.9470  0.1572 -2.6932
  622SOL     OW 2154   5.303   1.729   4.762  0.1862  0.2939  0.1148
  622SOL    HW1 2155   5.327   1.809   4.706 -0.0895 -0.6374 -1.3964
  622SOL    HW2 2156   5.241   1.670   4.710 -1.2786  0.1012  1.9953
  623SOL     OW 2157   1.318   5.657   3.395 -0.4058  0.4572 -0.0594
  623SOL    HW1 2158   1.324   5.756   3.411 -2.5950  0.4447  1.1864
  623SOL    HW2 2159   1.329   5.609   3.481 -0.9393 -0.3037 -0.4128
  624SOL     OW 2160   1.213   1.558   5.188 -0.6252 -0.0937 -0.0259
  624SOL    HW1 2161   1.224   1.643   5.138  0.6161 -1.0436 -1.4481
  624SOL    HW2 2162   1.265   1.561   5.273 -0.8045  0.6446  0.0602
  625SOL     OW 2163   0.087   5.576   2.966  0.2379  0.5099 -0.2166
  625SOL    HW1 2164   0.068   5.602   2.871 -0.6669 -1.1914 -0.5327
  625SOL    HW2 2165   0.016   5.513   2.997  1.3615 -0.1168  1.1126
  626SOL     OW 2166   0.675   0.048   3.988  0.1986 -0.0079 -0.1405
  626SOL    HW1 2167   0.647  -0.016   4.059  1.9046 -2.7605 -1.7698
  626SOL    HW2 2168   0.731   0.121   4.028 -0.8292 -0.1243  1.6111
  627SOL     OW 2169   1.099   1.724   4.625  0.5977 -0.0380 -0.0150
  627SOL    HW1 2170   1.056   1.785   4.558 -0.8329 -0.1576  0.7505
  627SOL    HW2 2171   1.067   1.630   4.611 -0.5578  0.0900  1.4309
  628SOL     OW 2172   0.683   1.703   4.454  0.1703  0.0768  0.1533
  628SOL    HW1 2173   0.776   1.739   4.456 -0.2440  1.1615  2.1282
  628SOL    HW2 2174   0.683   1.610   4.490  0.2630  0.7515  1.9758
  629SOL     OW 2175   0.862   5.729   3.471  0.6393  0.4634  0.0457
  629SOL    HW1 2176   0.770   5.689   3.478  1.5189 -1.4012  1.7628
  629SOL    HW2 2177   0.897   5.714   3.378  0.3546 -1.5161  0.2044
  630SOL     OW 2178   1.681   0.782   4.403  0.3852 -0.7810  0.2793
  630SOL    HW1 2179   1.591   0.791   4.446  0.8181  1.6507  0.8051
  630SOL    HW2 2180   1.752   0.812   4.466  1.1802  1.3876 -1.5058
  631SOL     OW 2181   5.867   1.694   5.271  0.3427  0.3094  0.4594
  631SOL    HW1 2182   5.788   1.708   5.332 -0.2561 -1.0311  0.0359
  631SOL    HW2 2183   5.908   1.605   5.292  0.7071  0.2597 -0.4547
  632SOL     OW 2184   0.947   1.544   5.291  0.2529  0.9136 -0.2922
  632SOL    HW1 2185   1.044   1.542   5.265 -0.1763 -0.3596 -1.9635
  632SOL    HW2 2186   0.903   1.624   5.250  0.6425  1.6959  0.7681
  633SOL     OW 2187   1.288   0.763   3.641  0.6343 -0.0100 -0.7609
  633SOL    HW1 2188   1.211   0.824   3.653  0.4623 -0.4163  0.3033
  633SOL    HW2 2189   1.257   0.679   3.596  0.6662  0.2371 -1.2557
  634SOL     OW 2190   0.411   5.867   4.979  0.0792 -0.5080 -0.2521
  634SOL    HW1 2191   0.411   5.878   5.078  2.6414 -0.4447 -0.2027
  634SOL    HW2 2192   0.364   5.944   4.937  0.5217  0.3833  0.8492
  635SOL     OW 2193   1.294   0.149   4.645 -0.1780 -0.5600  0.2755
  635SOL    HW1 2194   1.240   0.142   4.560  0.0244 -2.7750  0.2755
  635SOL    HW2 2195   1.389   0.169   4.622 -0.2995 -0.2556  0.0344
  636SOL     OW 2196   1.814   1.321   4.433  0.0668  0.4405  0.6159
  636SOL    HW1 2197   1.828   1.299   4.336 -0.7429  0.7017  0.4296
  636SOL    HW2 2198   1.883   1.387   4.462  0.7313 -0.1412  0.4075
  637SOL     OW 2199   1.128   0.522   3.804  0.0070  0.2116  0.1214
  637SOL    HW1 2200   1.170   0.548   3.891 -1.3699 -0.0675  0.8830
  637SOL    HW2 2201   1.029   0.524   3.812 -0.2241  2.0910 -1.9958
  638SOL     OW 2202   0.423   1.392   4.102 -0.5360 -0.9310 -0.1534
  638SOL    HW1 2203   0.520   1.374   4.089  0.3146  0.6287  2.9811
  638SOL    HW2 2204   0.388   1.443   4.024  2.3289  2.2642  0.4069
  639SOL     OW 2205   2.058   1.240   3.458 -0.0305 -0.1621  0.4476
  639SOL    HW1 2206   2.102   1.150   3.455  0.0332 -0.1782  1.5446
  639SOL    HW2 2207   2.105   1.302   3.395  0.5338 -0.6401  0.3945
  640SOL     OW 2208   0.873   5.025   3.488  0.1356  0.0370  0.3071
  640SOL    HW1 2209   0.873   4.930   3.455 -1.8601 -0.0291  0.3426
  640SOL    HW2 2210   0.962   5.067   3.469  0.2661 -1.0798 -1.9807
  641SOL     OW 2211   3.611   2.627   4.723  0.2329  0.6724  0.3261
  641SOL    HW1 2212   3.671   2.666   4.792 -0.6412  0.7584  1.0526
  641SOL    HW2 2213   3.545   2.566   4.766 -0.4994  0.9344 -0.3914
  642SOL     OW 2214   0.969   1.362   5.724 -0.1203 -0.1353  1.1149
  642SOL    HW1 2215   0.908   1.369   5.645 -0.1235 -1.7056  0.9490
  642SOL    HW2 2216   1.051   1.416   5.708 -1.0676  1.3202  0.9770
  643SOL     OW 2217   0.948   0.948   5.846 -0.2757  0.0292  0.2300
  643SOL    HW1 2218   0.896   1.015   5.899  0.2918  0.2356  0.5280
  643SOL    HW2 2219   1.046   0.964   5.858 -0.1370 -0.2429 -0.4745
  644SOL     OW 2220   1.205   1.054   5.562  0.2262  0.2881 -0.2137
  644SOL    HW1 2221   1.205   1.049   5.662  0.2400  0.4206 -0.2064
  644SOL    HW2 2222   1.152   1.134   5.533 -0.4371 -0.1913 -0.3399
  645SOL     OW 2223   0.490   5.651   4.864  0.1133  0.1550 -0.1410
  645SOL    HW1 2224   0.511   5.643   4.767  0.2770 -1.3964 -0.0065
  645SOL    HW2 2225   0.463   5.745   4.885 -1.6808  0.1236 -2.0222
  646SOL     OW 2226   2.031   0.564   4.312  0.4145  0.6203  0.1720
  646SOL    HW1 2227   1.971   0.529   4.240  0.7716 -2.6466  1.3263
  646SOL    HW2 2228   1.983   0.563   4.400  1.6648 -0.8179  0.8934
  647SOL     OW 2229   0.415   1.742   3.645  0.0652 -0.2510 -0.3869
  647SOL    HW1 2230   0.469   1.660   3.628  0.2579 -0.3057  0.4356
  647SOL    HW2 2231   0.475   1.815   3.678 -0.0206  0.3913 -1.6009
  648SOL     OW 2232   0.272   0.849   5.161  0.2284  0.1787  0.2035
  648SOL    HW1 2233   0.359   0.803   5.145  0.3395  0.3253  0.3783
  648SOL    HW2 2234   0.234   0.819   5.249 -0.6660 -1.0726 -0.5704
  649SOL     OW 2235   0.239   0.704   5.986  0.2696 -0.2754  0.1925
  649SOL    HW1 2236   0.252   0.642   5.909 -0.6525 -0.9861  0.5815
  649SOL    HW2 2237   0.319   0.764   5.995  1.0732 -1.2360 -0.3483
  650SOL     OW 2238   1.560   0.225   4.616 -0.0996 -0.2525  0.0815
  650SOL    HW1 2239   1.592   0.319   4.620  1.3526 -0.7563  2.9862
  650SOL    HW2 2240   1.623   0.171   4.559 -0.5400  0.3576 -1.0073
  651SOL     OW 2241   0.516   5.168   4.835 -0.0139  0.2309  0.0698
  651SOL    HW1 2242   0.600   5.217   4.859 -0.5758  0.4100  1.7673
  651SOL    HW2 2243   0.447   5.234   4.805 -0.1771  0.3033  0.5908
  652SOL     OW 2244   0.679   0.670   4.339 -0.4000  0.0699  0.5822
  652SOL    HW1 2245   0.683   0.623   4.427 -0.7598 -0.5230  0.2888
  652SOL    HW2 2246   0.756   0.642   4.282  0.7355  1.6441  1.2723
  653SOL     OW 2247   5.860   2.491   5.024  0.7985  0.5097 -0.2932
  653SOL    HW1 2248   5.818   2.535   4.945  1.5548  0.4324 -0.7518
  653SOL    HW2 2249   5.877   2.559   5.096  2.2210  1.0669 -1.1057
  654SOL     OW 2250   1.562   5.079   5.525  0.1216  0.1181 -0.0096
  654SOL    HW1 2251   1.629   5.017   5.567  0.6111  2.6976  3.3855
  654SOL    HW2 2252   1.609   5.162   5.493 -0.9704  0.2197 -1.4743
  655SOL     OW 2253   1.407   4.797   4.912  0.0963  0.1429  0.6128
  655SOL    HW1 2254   1.504   4.787   4.890  0.2469  2.2463  0.0448
  655SOL    HW2 2255   1.398   4.850   4.997 -0.5577 -0.6681  1.0598
  656SOL     OW 2256   1.711   1.014   4.215 -0.3436  0.2332  0.2992
  656SOL    HW1 2257   1.700   0.951   4.292 -0.9094  0.0996  0.1192
  656SOL    HW2 2258   1.737   0.962   4.134 -0.3874  0.2849  0.2523
  657SOL     OW 2259   1.125   1.363   3.461  0.2852 -0.1887  0.0521
  657SOL    HW1 2260   1.030   1.372   3.430  0.2835 -0.5186 -0.0499
  657SOL    HW2 2261   1.165   1.281   3.420 -0.0102 -1.1847  1.6281
  658SOL     OW 2262   0.699   1.784   4.135  0.3692  0.4370  0.2461
  658SOL    HW1 2263   0.795   1.812   4.138  0.8697 -0.8941 -1.5633
  658SOL    HW2 2264   0.679   1.726   4.213  1.0057  0.8074  0.6956
  659SOL     OW 2265   0.704   1.718   0.193 -0.4180 -0.5192 -0.4538
  659SOL    HW1 2266   0.634   1.739   0.125 -0.3833 -2.1394 -1.0362
  659SOL    HW2 2267   0.663   1.669   0.269 -0.3318  0.6987  0.4072
  660SOL     OW 2268   0.810   0.123   5.271 -0.0351 -0.3307  0.1999
  660SOL    HW1 2269   0.774   0.049   5.328  0.4608  1.0580  2.4310
  660SOL    HW2 2270   0.735   0.186   5.249  0.0819  0.0088  0.7529
  661SOL     OW 2271   5.394   0.497   1.655  0.0531  0.1397  0.4549
  661SOL    HW1 2272   5.422   0.557   1.729 -1.3251 -0.1691  1.2670
  661SOL    HW2 2273   5.299   0.518   1.629  0.1327 -0.5267 -0.4260
  662SOL     OW 2274   0.467   0.590   5.536  0.5475  0.4920 -0.4238
  662SOL    HW1 2275   0.368   0.590   5.527  0.2015 -3.3398  1.2717
  662SOL    HW2 2276   0.493   0.643   5.617 -0.0016  2.0688 -1.2485
  663SOL     OW 2277   2.092   1.272   0.157 -0.2101 -0.3321  0.1588
  663SOL    HW1 2278   2.036   1.266   0.075 -0.4296 -2.6332  0.4255
  663SOL    HW2 2279   2.159   1.198   0.157  2.7593  2.1419 -0.0353
  664SOL     OW 2280   0.013   1.613   5.807 -0.4727  0.5836 -0.5792
  664SOL    HW1 2281   0.089   1.677   5.794 -0.4862  0.5557 -0.8030
  664SOL    HW2 2282  -0.052   1.652   5.872 -0.3995  0.7247 -0.5879
  665SOL     OW 2283   5.884   0.688   5.813  0.2326  0.3207 -0.2376
  665SOL    HW1 2284   5.959   0.751   5.832 -1.4369  3.0562 -2.0199
  665SOL    HW2 2285   5.915   0.616   5.750  2.0043 -0.3602  1.3213
  666SOL     OW 2286   0.497   1.726   5.950  0.2004  0.5046 -0.3382
  666SOL    HW1 2287   0.585   1.688   5.923  0.7100 -0.3587  2.3056
  666SOL    HW2 2288   0.502   1.826   5.952  1.3425  0.4423  0.4545
  667SOL     OW 2289   0.723   1.644   5.794 -0.3457  0.0266 -0.4551
  667SOL    HW1 2290   0.773   1.710   5.737 -0.5082  0.3943 -0.1732
  667SOL    HW2 2291   0.779   1.562   5.806  0.6738  0.8640  0.7576
  668SOL     OW 2292   5.773   1.176   0.392 -0.0693  0.0938  0.0548
  668SOL    HW1 2293   5.729   1.092   0.424 -1.4960  1.9412  3.4518
  668SOL    HW2 2294   5.862   1.186   0.436  0.4099  0.0750 -0.8815
  669SOL     OW 2295   0.869   5.073   0.760  0.0873 -0.0221 -0.1122
  669SOL    HW1 2296   0.961   5.076   0.799  0.3143 -1.0796 -0.5227
  669SOL    HW2 2297   0.814   5.148   0.797  1.4000  1.2269 -0.5987
  670SOL     OW 2298   0.558   0.333   0.141 -0.2541  0.4970  0.2883
  670SOL    HW1 2299   0.658   0.334   0.140 -0.2345 -0.4314  0.0706
  670SOL    HW2 2300   0.526   0.260   0.201 -0.7690 -0.3933 -1.0275
  671SOL     OW 2301   1.442   2.661   0.329 -0.0872 -0.0639 -0.3037
  671SOL    HW1 2302   1.359   2.662   0.385  0.0136 -0.1823 -0.1517
  671SOL    HW2 2303   1.517   2.621   0.382 -0.3707 -1.6573 -1.0691
  672SOL     OW 2304   2.308   0.626   4.894 -0.0963  0.9194 -0.2983
  672SOL    HW1 2305   2.259   0.662   4.974 -0.2873  1.4030 -0.6305
  672SOL    HW2 2306   2.256   0.646   4.811 -0.2026 -0.1131 -0.4994
  673SOL     OW 2307   5.704   1.950   4.721 -0.2611  0.0052  0.0960
  673SOL    HW1 2308   5.719   1.942   4.819  1.6154  0.2003 -0.1315
  673SOL    HW2 2309   5.792   1.967   4.675 -1.3751  2.2869 -1.3824
  674SOL     OW 2310   1.160   5.723   0.280  0.0587 -0.0980  0.1553
  674SOL    HW1 2311   1.209   5.720   0.367 -0.8307 -2.7678  0.6640
  674SOL    HW2 2312   1.062   5.713   0.297 -0.2389  0.4184 -1.1174
  675SOL     OW 2313   0.429   0.894   5.914 -0.4278  0.4707  0.2402
  675SOL    HW1 2314   0.385   0.983   5.900  0.2072  0.7707  0.1046
  675SOL    HW2 2315   0.460   0.886   6.009  0.1979  0.7080  0.0555
  676SOL     OW 2316   5.672   0.067   0.538 -0.6131 -0.1301  0.0167
  676SOL    HW1 2317   5.756   0.104   0.499 -1.6516  0.8860 -1.3670
  676SOL    HW2 2318   5.656  -0.025   0.502 -0.5106 -0.0115 -0.3305
  677SOL     OW 2319   0.331   2.116   4.777  0.5201 -0.3438 -0.5242
  677SOL    HW1 2320   0.233   2.120   4.796  0.5433 -0.1463 -0.4464
  677SOL    HW2 2321   0.354   2.026   4.740  0.1893 -0.1529 -1.2095
  678SOL     OW 2322   1.621   0.888   5.835 -0.5377 -0.2142  0.1199
  678SOL    HW1 2323   1.576   0.944   5.766 -1.8922 -0.9874  0.3389
  678SOL    HW2 2324   1.681   0.821   5.790  1.1013  1.3607 -0.1395
  679SOL     OW 2325   5.748   2.310   5.207  0.3569 -0.5843 -0.6576
  679SOL    HW1 2326   5.708   2.391   5.249 -0.4681 -1.4409  0.2576
  679SOL    HW2 2327   5.788   2.334   5.119  3.1838  1.5550  1.0305
  680SOL     OW 2328   1.057   1.804   0.263  0.0274 -0.2701 -0.2535
  680SOL    HW1 2329   1.067   1.711   0.299 -1.9632 -0.6017 -0.4666
  680SOL    HW2 2330   1.098   1.809   0.172  2.3293 -0.2440  0.7221
  681SOL     OW 2331   1.122   0.591   5.698 -0.1608  0.6783  0.6000
  681SOL    HW1 2332   1.128   0.491   5.697 -1.0123  0.6048  1.5132
  681SOL    HW2 2333   1.034   0.619   5.735 -0.1820  1.7747 -0.2174
  682SOL     OW 2334   0.447   5.820   0.253 -0.5554 -0.2303 -0.6068
  682SOL    HW1 2335   0.469   5.917   0.253 -0.3559 -0.2623 -1.4209
  682SOL    HW2 2336   0.404   5.796   0.166  3.8926 -1.7946 -2.6969
  683SOL     OW 2337   0.692   2.995   5.604  0.6565  0.4773  0.0635
  683SOL    HW1 2338   0.658   2.927   5.668  0.6057 -0.1229 -0.5954
  683SOL    HW2 2339   0.745   2.950   5.532  0.7239  1.1452 -0.3143
  684SOL     OW 2340   2.422   5.771   5.742  0.2947 -0.1065 -0.1127
  684SOL    HW1 2341   2.440   5.824   5.825 -1.7220  0.6436 -0.0790
  684SOL    HW2 2342   2.390   5.679   5.767  1.6273 -0.5979 -0.1322
  685SOL     OW 2343   0.842   1.380   5.502  0.2793  0.4579  0.3319
  685SOL    HW1 2344   0.750   1.400   5.535  0.8678  2.3689  0.9287
  685SOL    HW2 2345   0.866   1.443   5.428  0.9075 -0.4065 -0.2185
  686SOL     OW 2346   1.652   0.833   5.501  0.3456  0.2307  0.4132
  686SOL    HW1 2347   1.585   0.805   5.433  0.7504 -1.2996  0.6200
  686SOL    HW2 2348   1.657   0.933   5.503  0.0985  0.3181 -1.5634
  687SOL     OW 2349   0.229   1.777   5.826 -0.0985 -0.3266  0.2970
  687SOL    HW1 2350   0.212   1.866   5.868 -0.6405  0.1163 -0.8012
  687SOL    HW2 2351   0.308   1.734   5.869  1.7321  1.7754 -0.7699
  688SOL     OW 2352   0.416   5.685   0.757  0.1292 -0.3114  0.3119
  688SOL    HW1 2353   0.501   5.637   0.777 -1.2010 -3.1720 -0.3941
  688SOL    HW2 2354   0.411   5.707   0.659  0.6511  1.2045  0.5994
  689SOL     OW 2355   0.122   5.369   0.433 -0.2134 -0.4392  0.0932
  689SOL    HW1 2356   0.126   5.451   0.375 -2.2718  0.0251  0.5368
  689SOL    HW2 2357   0.075   5.391   0.518  0.1413 -1.8521  0.6763
  690SOL     OW 2358   2.755   0.792   0.507 -0.6435  0.1703 -0.5030
  690SOL    HW1 2359   2.806   0.768   0.424 -0.0183 -1.9277  0.4289
  690SOL    HW2 2360   2.661   0.761   0.498 -0.1451 -1.6808  0.2035
  691SOL     OW 2361   1.518   1.069   0.721  0.9342  0.4179 -0.6239
  691SOL    HW1 2362   1.527   0.976   0.685  3.1268  0.6580 -0.8150
  691SOL    HW2 2363   1.499   1.132   0.646 -0.9611  0.1322 -0.4466
  692SOL     OW 2364   0.380   2.750   5.457 -0.0132 -0.0566 -0.2950
  692SOL    HW1 2365   0.477   2.750   5.434 -0.1428 -0.4894 -0.8608
  692SOL    HW2 2366   0.358   2.667   5.508 -0.2302 -0.3179 -0.8084
  693SOL     OW 2367   1.102   0.295   5.661 -0.1796  0.1750  0.2102
  693SOL    HW1 2368   1.091   0.218   5.724 -2.4625  0.9207  0.8247
  693SOL    HW2 2369   1.032   0.290   5.590  1.3296  0.2650 -1.3558
  694SOL     OW 2370   1.352   1.393   4.865  0.2512  0.2037  0.9334
  694SOL    HW1 2371   1.377   1.481   4.824 -0.6797  0.7451  1.5067
  694SOL    HW2 2372   1.383   1.319   4.805  0.0800  0.9423 -0.0971
  695SOL     OW 2373   1.774   0.493   0.082 -0.3212 -0.2344  0.2170
  695SOL    HW1 2374   1.852   0.494   0.020  0.2346 -1.9372  0.8124
  695SOL    HW2 2375   1.743   0.586   0.100  0.8522  0.3979 -0.9202
  696SOL     OW 2376   0.856   2.708   0.730 -0.9073  0.3149  0.3744
  696SOL    HW1 2377   0.896   2.630   0.682  0.2912  1.6738 -0.9249
  696SOL    HW2 2378   0.775   2.740   0.680 -1.3407 -0.0405  0.8505
  697SOL     OW 2379   1.605   5.810   4.546 -0.0848 -0.2319  0.3203
  697SOL    HW1 2380   1.676   5.840   4.609  2.3013  0.8384 -2.6592
  697SOL    HW2 2381   1.615   5.712   4.529 -0.7863 -0.5405  1.5807
  698SOL     OW 2382   0.141   0.198   5.087  0.1371  0.4212 -0.2212
  698SOL    HW1 2383   0.231   0.201   5.129  0.6373 -0.5405 -1.1629
  698SOL    HW2 2384   0.084   0.131   5.135  0.5461 -0.3189 -0.7472
  699SOL     OW 2385   1.318   1.151   0.069  0.4438 -0.1813 -0.3223
  699SOL    HW1 2386   1.300   1.123   0.163  2.1718 -0.9404 -0.1680
  699SOL    HW2 2387   1.407   1.197   0.064 -0.7696  2.2762 -1.1773
  700SOL     OW 2388   1.745   5.535   0.378 -0.3669  0.3351  0.0500
  700SOL    HW1 2389   1.691   5.554   0.296 -0.9974 -0.3143  0.3004
  700SOL    HW2 2390   1.840   5.561   0.362 -0.5336  0.4640 -0.7970
  701SOL     OW 2391   0.502   1.307   0.126 -0.0662 -0.5226  0.4866
  701SOL    HW1 2392   0.496   1.406   0.143 -2.5560 -0.2271 -1.6117
  701SOL    HW2 2393   0.593   1.286   0.089  0.3737  1.0476  0.5771
  702SOL     OW 2394   1.053   0.042   5.177  0.0478  0.4918 -0.0132
  702SOL    HW1 2395   1.039   0.004   5.085 -0.3697  1.8976 -0.5549
  702SOL    HW2 2396   0.968   0.082   5.210  0.6067  1.4641  0.2855
  703SOL     OW 2397   1.664   1.105   5.523  0.4017 -0.1006 -0.2666
  703SOL    HW1 2398   1.581   1.162   5.527 -0.0889 -0.7014 -1.4677
  703SOL    HW2 2399   1.744   1.164   5.523  0.0300  0.4741  1.6587
  704SOL     OW 2400   5.559   1.274   0.221  0.2815 -0.1510  0.2118
  704SOL    HW1 2401   5.634   1.225   0.264 -0.1161 -0.9233  0.0374
  704SOL    HW2 2402   5.595   1.336   0.151  0.7384 -0.7117 -0.0501
  705SOL     OW 2403   0.789   1.363   5.952  0.4769  0.3280  0.4066
  705SOL    HW1 2404   0.832   1.351   5.862  0.3275  0.8217  0.2639
  705SOL    HW2 2405   0.831   1.441   5.999  3.0936 -2.0227  2.3061
  706SOL     OW 2406   5.960   3.537   0.133 -0.5082  0.1327  0.1719
  706SOL    HW1 2407   6.013   3.478   0.072  0.4490  0.0842  1.0198
  706SOL    HW2 2408   5.863   3.523   0.117 -0.3151 -1.7757  0.4196
  707SOL     OW 2409   5.372   2.760   0.820  0.1715 -0.2858  0.1976
  707SOL    HW1 2410   5.351   2.856   0.798  0.6870 -1.0595 -5.2171
  707SOL    HW2 2411   5.291   2.704   0.806  1.0010 -1.0951 -1.7386
  708SOL     OW 2412   0.389   2.665   1.365  0.7279  0.0996 -0.0712
  708SOL    HW1 2413   0.401   2.586   1.305  2.9528  0.6650 -0.4591
  708SOL    HW2 2414   0.422   2.643   1.457 -1.0555 -0.2024  0.5411
  709SOL     OW 2415   5.620   2.979   5.204 -0.1856 -0.4555  0.1198
  709SOL    HW1 2416   5.716   2.999   5.187  0.0425 -0.7371  1.0533
  709SOL    HW2 2417   5.604   2.968   5.302 -1.1567 -0.4859 -0.0269
  710SOL     OW 2418   1.632   3.868   0.361  0.7718  0.5441  0.2121
  710SOL    HW1 2419   1.565   3.795   0.379  0.2853  1.2316  1.2858
  710SOL    HW2 2420   1.686   3.844   0.281 -1.6127  0.5365 -1.4983
  711SOL     OW 2421   0.599   3.809   0.672  0.2490 -0.3951  0.1854
  711SOL    HW1 2422   0.524   3.837   0.732 -0.0762 -0.0393 -0.3816
  711SOL    HW2 2423   0.686   3.841   0.710 -0.0823  1.1454 -0.2838
  712SOL     OW 2424   0.596   2.201   5.608  0.2229  0.2307  0.2673
  712SOL    HW1 2425   0.585   2.103   5.589  0.5515  0.1817  0.3147
  712SOL    HW2 2426   0.676   2.214   5.667  0.3756  0.5591 -0.0099
  713SOL     OW 2427   0.344   4.570  -0.018 -0.2605 -0.2821  0.2409
  713SOL    HW1 2428   0.324   4.632   0.057 -1.2178 -0.0558 -0.1864
  713SOL    HW2 2429   0.429   4.521   0.000 -0.8993 -0.8559  1.8707
  714SOL     OW 2430   1.440   3.529   2.194  0.2960 -0.1466 -0.1477
  714SOL    HW1 2431   1.401   3.571   2.112  1.6869  2.1728  0.2841
  714SOL    HW2 2432   1.370   3.525   2.265 -0.8275 -1.8705 -1.2711
  715SOL     OW 2433   1.640   2.953   0.682  0.1800 -0.0341 -0.5097
  715SOL    HW1 2434   1.667   2.932   0.589  0.3831  1.3295 -0.7843
  715SOL    HW2 2435   1.542   2.975   0.684  0.2727  0.3840 -0.4875
  716SOL     OW 2436   0.697   2.914   1.245 -0.3064 -0.0482 -0.1625
  716SOL    HW1 2437   0.643   2.941   1.166  0.2729 -0.7262 -0.8029
  716SOL    HW2 2438   0.753   2.834   1.222  1.4772  1.0080  0.2529
  717SOL     OW 2439   4.334   3.717   1.123 -0.8516 -0.3191 -0.1542
  717SOL    HW1 2440   4.336   3.711   1.223 -0.0752 -0.0723 -0.1453
  717SOL    HW2 2441   4.246   3.684   1.089 -1.9715  1.6122  0.7446
  718SOL     OW 2442   5.592   2.989   1.139 -0.9031  0.1019 -0.0799
  718SOL    HW1 2443   5.535   3.036   1.072 -0.6615  0.0478 -0.3276
  718SOL    HW2 2444   5.687   3.018   1.127 -0.4178 -1.8489 -1.5227
  719SOL     OW 2445   0.063   3.459   2.158 -0.0780 -0.1585  0.2804
  719SOL    HW1 2446  -0.024   3.448   2.205 -0.3625 -1.5473 -0.5220
  719SOL    HW2 2447   0.124   3.384   2.182  0.4266  0.1040 -0.1529
  720SOL     OW 2448   6.023   1.769   0.619  0.5765  0.8766 -0.5199
  720SOL    HW1 2449   6.014   1.702   0.546  0.3759  1.8264 -1.3836
  720SOL    HW2 2450   5.934   1.810   0.638  0.4447  0.0130  0.8886
  721SOL     OW 2451   1.304   3.281   0.264 -0.1692  0.6015  0.4211
  721SOL    HW1 2452   1.373   3.278   0.192 -1.2135 -0.0653 -0.5869
  721SOL    HW2 2453   1.348   3.277   0.354  1.1449  1.3451 -0.1798
  722SOL     OW 2454   1.966   3.247   2.720  0.4712 -0.1883 -0.1505
  722SOL    HW1 2455   1.979   3.271   2.817  0.6963  0.0957 -0.2485
  722SOL    HW2 2456   1.942   3.150   2.713 -1.3731  0.1866  0.3249
  723SOL     OW 2457   0.525   3.081   0.774  0.4547  0.8424 -0.7063
  723SOL    HW1 2458   0.453   3.143   0.806  0.5348  0.6143 -0.0631
  723SOL    HW2 2459   0.611   3.131   0.766  0.7177  0.6412  0.6444
  724SOL     OW 2460   5.578   3.115   4.815 -0.0795  0.3366 -0.2857
  724SOL    HW1 2461   5.583   3.193   4.877  0.8737  0.2242 -0.2056
  724SOL    HW2 2462   5.670   3.077   4.802 -0.3356  0.0662 -1.3901
  725SOL     OW 2463   5.296   3.988   1.583 -0.1025  0.6299 -0.5274
  725SOL    HW1 2464   5.314   3.891   1.566 -0.0479  0.9782 -2.8108
  725SOL    HW2 2465   5.334   4.042   1.508 -2.9521  2.1337 -1.0252
  726SOL     OW 2466   0.393   3.872   0.850 -0.1899 -0.3220 -0.0476
  726SOL    HW1 2467   0.367   3.819   0.931 -0.6165 -0.7915 -0.4802
  726SOL    HW2 2468   0.310   3.906   0.806  0.0155 -0.4516 -0.5365
  727SOL     OW 2469   0.410   1.560   1.758 -0.7028  0.2224  0.2018
  727SOL    HW1 2470   0.359   1.608   1.829 -2.4330  1.1300 -1.5429
  727SOL    HW2 2471   0.366   1.577   1.669  1.4447 -0.7330 -1.1090
  728SOL     OW 2472   0.034   3.496   0.389 -0.2099  0.4372  0.3222
  728SOL    HW1 2473   0.011   3.522   0.295 -0.0906 -0.9869 -0.1370
  728SOL    HW2 2474   0.096   3.417   0.387 -0.4422  0.1990  1.6004
  729SOL     OW 2475   2.835   3.618   0.746  0.6192  0.0993  0.1702
  729SOL    HW1 2476   2.881   3.604   0.834  0.3453 -0.8348  0.1724
  729SOL    HW2 2477   2.737   3.630   0.760  0.8078  2.0676  0.1617
  730SOL     OW 2478   5.742   3.645   5.122  0.1739  0.5624  0.6165
  730SOL    HW1 2479   5.725   3.620   5.026 -0.8394 -0.0598  0.9436
  730SOL    HW2 2480   5.827   3.698   5.128  1.3657 -1.1322 -0.3738
  731SOL     OW 2481   2.241   2.714   1.568 -0.0278 -0.7189 -0.1580
  731SOL    HW1 2482   2.174   2.741   1.499  0.0287  0.0561  0.0792
  731SOL    HW2 2483   2.201   2.726   1.659  1.3895  2.7545  0.1545
  732SOL     OW 2484   2.285   1.452   0.071 -0.4716 -0.2803 -0.1068
  732SOL    HW1 2485   2.200   1.405   0.093  0.7646 -2.1950  0.8492
  732SOL    HW2 2486   2.323   1.415  -0.014  0.1027 -0.4719  0.2243
  733SOL     OW 2487   0.615   2.267   1.922 -0.0694 -0.3791  0.0419
  733SOL    HW1 2488   0.661   2.181   1.944  2.2611  1.1358  1.6946
  733SOL    HW2 2489   0.597   2.317   2.007  1.1169  1.8696 -0.9438
  734SOL     OW 2490   2.330   3.344   0.239 -0.0915  0.2797  0.9098
  734SOL    HW1 2491   2.266   3.387   0.303 -0.7621 -1.0768  1.1941
  734SOL    HW2 2492   2.407   3.306   0.290 -0.0530  0.1877  0.7815
  735SOL     OW 2493   2.238   3.440   0.498 -0.9407 -0.4502  0.1148
  735SOL    HW1 2494   2.322   3.495   0.501 -1.4751  0.5691 -1.7694
  735SOL    HW2 2495   2.225   3.394   0.585  0.5641  0.9095  1.1102
  736SOL     OW 2496   0.160   2.665   0.405 -0.5445  0.4792 -0.4310
  736SOL    HW1 2497   0.094   2.611   0.457 -0.9392  1.1030 -0.2794
  736SOL    HW2 2498   0.198   2.609   0.331  0.4005 -0.5859  0.8166
  737SOL     OW 2499   0.296   3.055   1.579  0.1908 -0.2088 -0.0447
  737SOL    HW1 2500   0.361   3.065   1.503  0.6972 -1.5676  0.1656
  737SOL    HW2 2501   0.212   3.105   1.559  0.1181 -0.9462 -1.7495
  738SOL     OW 2502   1.096   2.513   0.316  0.2753  0.0615  0.0306
  738SOL    HW1 2503   1.083   2.582   0.245 -0.9494 -0.1919 -0.0135
  738SOL    HW2 2504   1.166   2.545   0.380 -1.0646  1.9198  0.6774
  739SOL     OW 2505   1.290   3.652   1.493 -0.0714 -0.3828 -0.0312
  739SOL    HW1 2506   1.387   3.635   1.513 -0.4895 -1.4816  1.2392
  739SOL    HW2 2507   1.242   3.564   1.487 -0.7810  0.0788 -1.9277
  740SOL     OW 2508   0.969   2.491   2.566  0.0929  0.2951 -0.2341
  740SOL    HW1 2509   0.887   2.442   2.596  0.1026  1.1555  1.2944
  740SOL    HW2 2510   0.953   2.590   2.573  0.8425  0.4871 -1.1025
  741SOL     OW 2511   1.631   2.906   1.130 -0.3341 -0.2659 -0.0618
  741SOL    HW1 2512   1.690   2.978   1.167  0.3057 -0.7144 -0.1987
  741SOL    HW2 2513   1.590   2.855   1.206  2.2195 -2.2135  0.1329
  742SOL     OW 2514   1.647   3.760   0.683  0.6459  1.0419  0.3586
  742SOL    HW1 2515   1.663   3.741   0.586  0.5287 -0.7943  0.6667
  742SOL    HW2 2516   1.564   3.815   0.694 -1.4490 -1.7430 -0.4418
  743SOL     OW 2517   0.815   3.560   5.596  0.4025 -0.4384 -0.8114
  743SOL    HW1 2518   0.839   3.577   5.691  1.2363 -0.9591 -0.9202
  743SOL    HW2 2519   0.899   3.551   5.542 -0.0427 -1.8172 -1.2935
  744SOL     OW 2520   0.842   2.285   5.726  0.5741 -0.6519 -0.1752
  744SOL    HW1 2521   0.840   2.385   5.731 -0.7591 -0.6508 -0.3991
  744SOL    HW2 2522   0.903   2.257   5.651  2.1192 -0.0806  0.8090
  745SOL     OW 2523   0.839   3.217   0.218  0.7819  0.1338  0.0198
  745SOL    HW1 2524   0.904   3.288   0.245  2.0858 -0.8899 -0.3172
  745SOL    HW2 2525   0.803   3.238   0.127  0.2085  0.9758  0.4234
  746SOL     OW 2526   1.236   2.660   0.512  0.0082 -0.1555  0.0173
  746SOL    HW1 2527   1.290   2.616   0.583  3.1278  2.7089 -0.3626
  746SOL    HW2 2528   1.179   2.732   0.552 -0.0338 -0.0966 -0.1448
  747SOL     OW 2529   5.852   1.836   2.357  0.6313  0.9545  0.3079
  747SOL    HW1 2530   5.922   1.901   2.386  0.3777  0.9456  0.9367
  747SOL    HW2 2531   5.879   1.744   2.387  0.6674  0.8557 -0.0184
  748SOL     OW 2532  -0.012   3.681   1.832 -0.2498  0.2192 -0.2257
  748SOL    HW1 2533  -0.035   3.652   1.739 -1.0073  1.6811 -0.5173
  748SOL    HW2 2534   0.082   3.715   1.835  0.7132 -2.2058  0.1492
  749SOL     OW 2535   1.318   3.259   1.661 -0.1357 -0.0997  0.4055
  749SOL    HW1 2536   1.238   3.249   1.603 -0.7903 -0.7459  1.3839
  749SOL    HW2 2537   1.294   3.310   1.744 -0.3853 -2.8261  2.1464
  750SOL     OW 2538   5.864   2.757   0.222 -0.4122 -0.1900  0.4563
  750SOL    HW1 2539   5.809   2.840   0.228 -0.5249 -0.2478  0.2284
  750SOL    HW2 2540   5.857   2.706   0.307 -2.6646 -1.4316 -0.4199
  751SOL     OW 2541   6.019   2.514   1.368  0.2812 -0.2077  0.0465
  751SOL    HW1 2542   5.973   2.601   1.388  1.8010  0.6036  0.1120
  751SOL    HW2 2543   5.955   2.439   1.384 -0.8322  0.8479  0.7376
  752SOL     OW 2544   0.041   3.466   3.366  0.3176  0.1611  0.4286
  752SOL    HW1 2545   0.005   3.558   3.384 -3.4123 -1.0454  0.1086
  752SOL    HW2 2546   0.007   3.403   3.437 -0.4111 -1.5826 -1.3729
  753SOL     OW 2547   0.271   1.769   5.557 -0.4576 -0.6881 -0.3031
  753SOL    HW1 2548   0.247   1.777   5.654 -1.1881 -1.6129 -0.3955
  753SOL    HW2 2549   0.365   1.802   5.543  0.2178 -1.9761  0.9841
  754SOL     OW 2550   1.202   2.527   3.216 -0.5876 -0.5194  0.5870
  754SOL    HW1 2551   1.125   2.469   3.241 -0.4513 -0.9108  0.1044
  754SOL    HW2 2552   1.179   2.583   3.137 -0.2420 -0.9327  0.1882
  755SOL     OW 2553   1.771   3.160   1.132 -0.2721  0.3882  0.0272
  755SOL    HW1 2554   1.863   3.120   1.131 -1.1424 -1.8193  1.0039
  755SOL    HW2 2555   1.737   3.170   1.039  1.2544  2.0984 -0.4029
  756SOL     OW 2556   5.843   1.147   1.712 -0.2787  0.8833  0.0478
  756SOL    HW1 2557   5.906   1.092   1.658 -1.7952 -1.4610  0.4943
  756SOL    HW2 2558   5.894   1.203   1.777  1.3803 -0.2526 -0.2180
  757SOL     OW 2559   1.121   2.960   0.579 -0.3619  0.3178  0.1702
  757SOL    HW1 2560   1.082   2.960   0.671 -0.0054 -1.0703  0.3387
  757SOL    HW2 2561   1.048   2.976   0.512 -1.0230 -0.9407  0.5602
  758SOL     OW 2562   0.327   3.759   0.399  0.1249 -0.1902 -0.7980
  758SOL    HW1 2563   0.319   3.845   0.449  0.2739 -0.3456 -0.5014
  758SOL    HW2 2564   0.243   3.742   0.348 -0.4046 -0.4733  0.1293
  759SOL     OW 2565   2.535   4.157   0.031 -0.0586  0.4376 -0.4748
  759SOL    HW1 2566   2.513   4.107   0.115  3.2061  2.0547  1.5421
  759SOL    HW2 2567   2.552   4.093  -0.043 -0.0562 -1.1935  0.8847
  760SOL     OW 2568   1.221   3.477   1.844  0.2209 -0.1414 -0.1836
  760SOL    HW1 2569   1.143   3.520   1.799 -1.5073 -0.9189  1.8910
  760SOL    HW2 2570   1.264   3.542   1.906  0.2562 -0.1598 -0.1888
  761SOL     OW 2571   0.852   2.621   1.005  0.0517 -0.2232  0.5021
  761SOL    HW1 2572   0.940   2.620   0.958 -0.1734  0.3019  0.0546
  761SOL    HW2 2573   0.793   2.690   0.963  0.0397  0.6690  1.9168
  762SOL     OW 2574   0.397   3.691   2.576 -0.0765  0.1705  0.1684
  762SOL    HW1 2575   0.298   3.687   2.586 -0.2561  0.3456 -1.2841
  762SOL    HW2 2576   0.441   3.659   2.660 -1.3514 -0.4897  0.6021
  763SOL     OW 2577   0.620   3.390   1.661 -0.3301 -0.0971  0.1265
  763SOL    HW1 2578   0.578   3.390   1.752 -0.2290  1.6118  0.1972
  763SOL    HW2 2579   0.709   3.344   1.667 -0.5868 -0.5318  0.7548
  764SOL     OW 2580   2.070   2.590   0.177  0.2602  0.0711  0.1671
  764SOL    HW1 2581   2.161   2.622   0.205  0.4330  0.2452 -0.5692
  764SOL    HW2 2582   2.004   2.665   0.185  0.3195  0.1342  0.0733
  765SOL     OW 2583   0.349   1.257   3.386  0.1831 -0.2434  0.3651
  765SOL    HW1 2584   0.402   1.328   3.342 -1.5838 -0.1508 -1.7789
  765SOL    HW2 2585   0.392   1.231   3.473  3.9092 -0.5032 -1.3842
  766SOL     OW 2586   1.343   2.094   5.994 -0.1462 -0.3758  0.2448
  766SOL    HW1 2587   1.282   2.130   6.065 -1.5167 -0.7448 -0.7113
  766SOL    HW2 2588   1.300   2.106   5.905  2.0290  1.1329 -0.6909
  767SOL     OW 2589   1.479   3.675   0.159 -0.6064  0.0464 -0.1545
  767SOL    HW1 2590   1.461   3.636   0.249 -0.9837  1.4759  0.4146
  767SOL    HW2 2591   1.574   3.707   0.154 -0.9641  1.2112  0.2388
  768SOL     OW 2592   2.210   1.635   0.497 -0.1095  0.5680  0.2328
  768SOL    HW1 2593   2.179   1.547   0.460 -0.7814  0.6382  0.6082
  768SOL    HW2 2594   2.302   1.624   0.536 -0.3807 -0.1027  0.7171
  769SOL     OW 2595   5.381   3.728   1.543  0.0094 -0.1394  0.1490
  769SOL    HW1 2596   5.451   3.690   1.604 -1.7481 -3.0900  0.5238
  769SOL    HW2 2597   5.389   3.685   1.453 -0.1912  0.8629 -0.3536
  770SOL     OW 2598   0.582   3.678   1.613 -0.0269 -0.2437 -0.2196
  770SOL    HW1 2599   0.614   3.584   1.605  1.3382  0.0496  1.1914
  770SOL    HW2 2600   0.588   3.707   1.708 -1.5619  0.9000 -0.4391
  771SOL     OW 2601   0.469   3.426   0.461  0.1850 -0.3813 -0.5265
  771SOL    HW1 2602   0.500   3.512   0.421  0.7002  0.3518  1.3169
  771SOL    HW2 2603   0.400   3.384   0.402  1.5809  0.1020 -2.6114
  772SOL     OW 2604   0.105   1.272   1.382  0.3698  0.8242 -0.1403
  772SOL    HW1 2605   0.175   1.249   1.315 -2.3658 -0.1607 -2.9340
  772SOL    HW2 2606   0.093   1.195   1.445  1.8229  1.0810  0.4971
  773SOL     OW 2607   0.616   3.132   0.354  0.0725 -0.2776  0.1274
  773SOL    HW1 2608   0.556   3.211   0.371  0.0873 -0.8468  3.6294
  773SOL    HW2 2609   0.697   3.162   0.303 -0.5677  1.6852  0.1656
  774SOL     OW 2610   1.257   2.479   1.747  0.3469  0.5355  0.1221
  774SOL    HW1 2611   1.348   2.474   1.705  0.9916  0.2583  1.5150
  774SOL    HW2 2612   1.191   2.433   1.687  1.4104 -0.7252 -0.1283
  775SOL     OW 2613   1.989   3.526   0.316 -0.0154  0.0213 -0.2538
  775SOL    HW1 2614   2.046   3.590   0.368  0.4661 -0.2142 -0.4899
  775SOL    HW2 2615   2.008   3.433   0.346 -0.0043 -0.0870 -0.5989
  776SOL     OW 2616   0.435   2.438   1.209  0.7166  0.8163  0.0020
  776SOL    HW1 2617   0.372   2.393   1.272 -0.8729  1.6080 -0.9724
  776SOL    HW2 2618   0.525   2.395   1.217 -0.3547 -1.6087  0.1266
  777SOL     OW 2619   5.465   3.103   0.928  0.1806 -0.7235  0.4420
  777SOL    HW1 2620   5.467   3.202   0.946  0.7108 -0.7060  0.2914
  777SOL    HW2 2621   5.388   3.082   0.868  0.1206 -0.3902  0.3972
  778SOL     OW 2622   1.084   2.443   0.926  0.7001 -0.1868 -0.5975
  778SOL    HW1 2623   1.065   2.382   1.003 -2.8594  0.7944 -0.5090
  778SOL    HW2 2624   1.079   2.392   0.840 -0.6241 -0.3720 -0.4310
  779SOL     OW 2625   5.906   2.967   1.625 -0.1097  0.2428  0.1748
  779SOL    HW1 2626   5.936   3.062   1.612  0.9585  0.0916  1.3513
  779SOL    HW2 2627   5.824   2.951   1.570 -0.4684  1.9228  0.1375
  780SOL     OW 2628   1.669   2.619   0.473 -0.0001 -0.6367  0.4335
  780SOL    HW1 2629   1.723   2.541   0.504  1.6740 -0.1842 -1.1458
  780SOL    HW2 2630   1.719   2.704   0.492 -1.4909  0.0415  1.5195
  781SOL     OW 2631   0.058   1.916   5.442 -0.4906 -0.7223 -0.7045
  781SOL    HW1 2632   0.035   1.876   5.354  0.2215 -0.1944 -1.1345
  781SOL    HW2 2633   0.145   1.879   5.474 -1.0491 -1.3933  0.0907
  782SOL     OW 2634   0.905   3.484   1.539 -0.5191 -0.2947 -0.3922
  782SOL    HW1 2635   0.897   3.395   1.583 -2.2726 -0.4036 -0.8547
  782SOL    HW2 2636   0.854   3.483   1.453 -0.7642  1.2048 -0.2925
  783SOL     OW 2637   1.397   4.417   1.614 -0.0008 -0.0938  0.2050
  783SOL    HW1 2638   1.463   4.480   1.656 -0.8973  0.7198  0.4441
  783SOL    HW2 2639   1.351   4.464   1.538  0.9754 -1.2560 -1.1505
  784SOL     OW 2640   0.224   2.891   5.273 -0.2936  0.6724 -0.3009
  784SOL    HW1 2641   0.292   2.838   5.322  0.5464  2.5844  0.6937
  784SOL    HW2 2642   0.183   2.835   5.201 -0.5144 -1.7497  1.6061
  785SOL     OW 2643   1.087   3.350   5.648  0.0287  0.0547  0.1154
  785SOL    HW1 2644   1.099   3.421   5.578  0.4997 -1.8664 -1.8561
  785SOL    HW2 2645   0.996   3.309   5.639 -0.5510  0.8578  1.7651
  786SOL     OW 2646   1.145   2.345   5.161  0.2684  0.1084 -0.1626
  786SOL    HW1 2647   1.184   2.322   5.250 -1.1577  0.1894  0.5142
  786SOL    HW2 2648   1.068   2.407   5.174  0.2771  0.4188 -1.4953
  787SOL     OW 2649   1.533   2.770   1.386 -0.6300  0.1377  0.4266
  787SOL    HW1 2650   1.564   2.727   1.470  2.2128  1.0707 -0.0349
  787SOL    HW2 2651   1.539   2.869   1.394  2.0545  0.2588 -1.5430
  788SOL     OW 2652   5.671   3.609   0.532 -0.1430 -0.4343 -0.8379
  788SOL    HW1 2653   5.660   3.532   0.469  0.5490 -0.3604 -1.0545
  788SOL    HW2 2654   5.764   3.610   0.567 -0.1679  0.2628 -0.7805
  789SOL     OW 2655   1.615   2.519   5.349  0.5027  0.7656 -0.5926
  789SOL    HW1 2656   1.542   2.586   5.367 -0.2880  0.1380 -1.4275
  789SOL    HW2 2657   1.678   2.519   5.426 -1.7025 -0.4237  1.3711
  790SOL     OW 2658   5.894   2.553   5.852  0.1991 -0.1986  0.0656
  790SOL    HW1 2659   5.943   2.496   5.918  0.7803 -0.2683 -0.4153
  790SOL    HW2 2660   5.960   2.596   5.790 -0.0976  1.9730  1.1414
  791SOL     OW 2661   2.352   3.848   0.106 -0.5119 -0.3737  0.4085
  791SOL    HW1 2662   2.390   3.931   0.147  0.0057 -0.5270  0.2469
  791SOL    HW2 2663   2.258   3.834   0.138 -0.1451 -0.4502  1.4680
  792SOL     OW 2664   1.371   2.462   5.818  0.1330  0.2051  0.3279
  792SOL    HW1 2665   1.368   2.477   5.917 -0.2861 -1.8194  0.6766
  792SOL    HW2 2666   1.443   2.396   5.797 -1.7879 -1.8336 -0.2839
  793SOL     OW 2667   0.904   2.723   1.252 -0.0594  0.6645 -0.3760
  793SOL    HW1 2668   0.902   2.672   1.166 -1.1335  0.0495 -0.0042
  793SOL    HW2 2669   0.890   2.660   1.328 -2.1813  1.5586  0.0454
  794SOL     OW 2670   1.328   2.209   0.869  0.4043 -0.0052  0.0542
  794SOL    HW1 2671   1.247   2.211   0.927 -0.5187 -2.0537 -1.0573
  794SOL    HW2 2672   1.316   2.274   0.794  0.3749  0.6188  0.5909
  795SOL     OW 2673   1.825   2.885   0.446 -0.1721 -0.3012 -0.3137
  795SOL    HW1 2674   1.884   2.877   0.526 -0.4344 -0.1595 -0.1046
  795SOL    HW2 2675   1.877   2.862   0.363  0.6747  1.5618 -0.3433
  796SOL     OW 2676   1.060   2.373   1.558  0.6548  0.4257 -0.3534
  796SOL    HW1 2677   0.996   2.297   1.563 -2.0886  2.6451  1.6722
  796SOL    HW2 2678   1.086   2.390   1.463 -0.7575 -1.3418 -1.0997
  797SOL     OW 2679   0.409   3.461   0.720 -0.5511 -0.3290 -0.3169
  797SOL    HW1 2680   0.426   3.436   0.625 -0.3253  0.5932 -0.5232
  797SOL    HW2 2681   0.487   3.511   0.757 -0.2660 -1.4294  0.6356
  798SOL     OW 2682   1.611   2.556   2.186 -0.4605 -0.5382 -0.5146
  798SOL    HW1 2683   1.697   2.539   2.139 -0.8773 -0.2541 -1.4135
  798SOL    HW2 2684   1.560   2.470   2.193  0.0208 -0.7624  0.2845
  799SOL     OW 2685   1.499   2.764   2.829 -0.4339  0.3777  0.2580
  799SOL    HW1 2686   1.519   2.855   2.792 -0.3228  1.6032  3.0894
  799SOL    HW2 2687   1.411   2.732   2.793 -0.0938  1.1998 -1.4136
  800SOL     OW 2688   2.336   2.523   1.338  0.3355  0.0412 -0.3599
  800SOL    HW1 2689   2.405   2.451   1.333  1.3785  1.0207 -0.5186
  800SOL    HW2 2690   2.381   2.612   1.348 -0.8428  0.8453 -1.7121
  801SOL     OW 2691   0.015   3.847   0.549 -0.9185 -0.2403  0.7399
  801SOL    HW1 2692   0.028   3.809   0.458 -0.2993  0.0899  0.6901
  801SOL    HW2 2693   0.034   3.776   0.618 -1.7054 -0.5842  0.6151
  802SOL     OW 2694   0.940   3.590   0.891 -0.4089  0.1579 -0.5306
  802SOL    HW1 2695   0.910   3.554   0.802 -0.1121 -1.1634 -0.1056
  802SOL    HW2 2696   0.992   3.521   0.940  0.1474  1.1602  0.3425
  803SOL     OW 2697   1.248   2.049   1.606 -0.5890  0.1088 -0.5678
  803SOL    HW1 2698   1.286   2.088   1.690 -0.6342  1.3267 -1.0938
  803SOL    HW2 2699   1.284   1.957   1.593 -0.2154  0.0849  0.5379
  804SOL     OW 2700   1.907   3.538   1.033  0.0291  0.1376  0.4403
  804SOL    HW1 2701   1.843   3.602   1.077 -2.5652 -1.9006 -0.1179
  804SOL    HW2 2702   1.964   3.495   1.102 -0.8172  0.3239  1.2807
  805SOL     OW 2703   1.014   3.114   5.893 -0.7362 -0.5295  0.2723
  805SOL    HW1 2704   1.081   3.169   5.943 -0.6125 -1.5550  1.2865
  805SOL    HW2 2705   0.963   3.172   5.831  0.4416  0.4476  0.1738
  806SOL     OW 2706   0.379   3.096   1.994  0.1186  0.4938  0.3516
  806SOL    HW1 2707   0.411   3.046   1.913  0.1220  0.3587  0.4364
  806SOL    HW2 2708   0.441   3.077   2.071  0.0479  0.5287  0.4168
  807SOL     OW 2709   0.606   1.845   1.645  0.1415 -0.6367  0.0535
  807SOL    HW1 2710   0.545   1.820   1.569 -0.5490 -0.7300  0.6254
  807SOL    HW2 2711   0.552   1.890   1.716  1.0285  0.7477 -0.1246
  808SOL     OW 2712   0.571   3.474   0.948 -0.0141 -1.0398  0.2596
  808SOL    HW1 2713   0.532   3.437   1.032 -1.5542 -1.8545 -0.7632
  808SOL    HW2 2714   0.613   3.400   0.896  0.3589 -0.6548  0.0105
  809SOL     OW 2715   1.399   2.346   0.601  0.4747  0.0519 -0.3543
  809SOL    HW1 2716   1.463   2.399   0.657  2.4889 -0.3279 -2.1520
  809SOL    HW2 2717   1.428   2.349   0.505  0.0173 -3.3179 -0.7171
  810SOL     OW 2718   0.037   2.523   0.601  0.7570  0.2078  0.3617
  810SOL    HW1 2719   0.007   2.532   0.696  0.3010  1.3010  0.1328
  810SOL    HW2 2720   0.111   2.457   0.595 -0.6199 -1.4761  1.1632
  811SOL     OW 2721   0.793   3.989   0.243 -0.1442  0.8389  0.7543
  811SOL    HW1 2722   0.818   4.009   0.338 -0.1003  0.8741  0.7356
  811SOL    HW2 2723   0.850   3.914   0.209 -0.6240  0.3726  0.9696
  812SOL     OW 2724   0.907   3.004   0.377 -0.3182  0.1689 -0.3623
  812SOL    HW1 2725   0.830   2.940   0.382 -1.2518  1.2833 -0.0073
  812SOL    HW2 2726   0.884   3.079   0.314 -0.1204  1.2551  0.8099
  813SOL     OW 2727   2.019   2.629   0.739  0.0069  1.0305 -0.2312
  813SOL    HW1 2728   1.929   2.589   0.756 -0.7969  2.8315  0.0390
  813SOL    HW2 2729   2.085   2.557   0.719 -1.2928 -0.4006  0.4558
  814SOL     OW 2730   0.765   2.237   5.993  0.3164  0.5421 -0.3499
  814SOL    HW1 2731   0.821   2.276   6.065 -1.0901  2.1799 -0.0724
  814SOL    HW2 2732   0.807   2.256   5.904  0.8132  0.6732 -0.0891
  815SOL     OW 2733   0.593   3.947   1.526 -0.1708 -0.2656 -0.7784
  815SOL    HW1 2734   0.600   3.847   1.534  0.5446 -0.2599 -1.2871
  815SOL    HW2 2735   0.683   3.985   1.507 -0.7030  0.3416 -2.1418
  816SOL     OW 2736   1.642   2.123   1.613  0.6784  0.3999 -0.1349
  816SOL    HW1 2737   1.677   2.032   1.592  2.5539  1.4529 -2.1137
  816SOL    HW2 2738   1.612   2.127   1.708  1.7821 -1.8944  0.3832
  817SOL     OW 2739   5.615   2.318   1.123  0.0935 -0.3659  0.0158
  817SOL    HW1 2740   5.578   2.289   1.035  0.7192 -1.9028  0.2348
  817SOL    HW2 2741   5.714   2.328   1.117 -0.0379  1.2174  0.1109
  818SOL     OW 2742   0.502   0.940   2.804 -0.6645  0.0925  0.0169
  818SOL    HW1 2743   0.411   0.898   2.804 -1.1884  1.1813 -0.8160
  818SOL    HW2 2744   0.515   0.991   2.719  0.3650  0.7320  0.5427
  819SOL     OW 2745   1.258   3.553   1.168  0.1879 -0.0067  0.5520
  819SOL    HW1 2746   1.358   3.548   1.173  0.3327  0.9271 -0.8481
  819SOL    HW2 2747   1.220   3.538   1.259  1.5448 -1.3318  0.9413
  820SOL     OW 2748   1.863   2.405   0.502 -0.3213  0.1879 -0.1887
  820SOL    HW1 2749   1.939   2.429   0.563  1.4381  1.1149 -2.5834
  820SOL    HW2 2750   1.841   2.308   0.513  3.2030 -0.9193 -1.3001
  821SOL     OW 2751   0.510   2.645   0.075  0.4564  0.3489  0.6555
  821SOL    HW1 2752   0.583   2.612   0.135  1.3195  0.4446 -0.3177
  821SOL    HW2 2753   0.521   2.605  -0.016  1.3156  2.9366 -0.4851
  822SOL     OW 2754   1.336   0.674   2.768  0.0578 -0.1803 -0.2501
  822SOL    HW1 2755   1.351   0.745   2.836  0.1433 -0.4353  0.0007
  822SOL    HW2 2756   1.343   0.584   2.812 -1.7749 -0.3314 -0.2129
  823SOL     OW 2757   4.997   2.530   2.195  0.5144 -0.1129  0.0829
  823SOL    HW1 2758   5.076   2.475   2.168 -0.2344 -1.1642 -0.0236
  823SOL    HW2 2759   5.022   2.627   2.192  1.3866 -0.3445 -1.2887
  824SOL     OW 2760   0.986   2.864   5.773 -0.1994  0.4336  0.4133
  824SOL    HW1 2761   0.925   2.802   5.823 -0.7053  0.4046 -0.2360
  824SOL    HW2 2762   1.001   2.947   5.827 -0.7824  0.4230  0.5970
  825SOL     OW 2763   3.235   3.589   1.291  0.2402 -0.0009  0.2873
  825SOL    HW1 2764   3.162   3.639   1.338  1.0036  1.1559  0.2830
  825SOL    HW2 2765   3.297   3.548   1.358  0.0350 -0.3115  0.2885
  826SOL     OW 2766   5.730   3.193   5.732 -0.2195  0.5281 -0.1655
  826SOL    HW1 2767   5.818   3.165   5.694  0.2304  1.5110  0.1318
  826SOL    HW2 2768   5.715   3.144   5.818 -0.6394 -0.7165 -0.9281
  827SOL     OW 2769   1.235   1.020   5.830  0.2282 -0.0902 -0.0584
  827SOL    HW1 2770   1.252   1.065   5.917  2.3580  1.1190 -1.0102
  827SOL    HW2 2771   1.277   0.929   5.830 -0.6781 -0.5201  0.5093
  828SOL     OW 2772   0.912   2.814   2.044 -0.2985  0.1713 -0.2095
  828SOL    HW1 2773   0.823   2.804   2.089 -1.2381 -3.1001 -2.4509
  828SOL    HW2 2774   0.979   2.753   2.088 -0.1718 -0.1028 -0.7748
  829SOL     OW 2775   2.183   4.193   1.262  0.3121 -0.0751 -0.3651
  829SOL    HW1 2776   2.196   4.287   1.232  0.5764  0.0288  0.0621
  829SOL    HW2 2777   2.115   4.190   1.335  0.1713 -0.2397 -0.5020
  830SOL     OW 2778   1.220   2.661   0.941 -0.1888  0.3452 -0.2646
  830SOL    HW1 2779   1.258   2.648   1.032 -1.9278  2.3529  0.8467
  830SOL    HW2 2780   1.167   2.580   0.915  0.5726 -0.3695  0.3502
  831SOL     OW 2781   0.067   2.820   2.166 -0.2550  0.5320  0.0258
  831SOL    HW1 2782   0.133   2.876   2.215 -1.6674  2.1595  0.1571
  831SOL    HW2 2783   0.093   2.724   2.174  0.8348  0.9325  1.9888
  832SOL     OW 2784   1.270   2.562   4.989  0.4175 -0.2061  0.1120
  832SOL    HW1 2785   1.338   2.505   4.943 -0.6664 -1.2502 -0.2440
  832SOL    HW2 2786   1.200   2.504   5.031 -1.4303  0.8338 -1.3490
  833SOL     OW 2787   0.201   3.578   5.402 -0.1847  0.3170 -0.0311
  833SOL    HW1 2788   0.246   3.561   5.490  0.0151  0.8625 -0.0201
  833SOL    HW2 2789   0.106   3.547   5.406  0.2826 -1.1889 -0.1773
  834SOL     OW 2790   2.734   3.429   0.997  0.1689  0.1707 -0.4581
  834SOL    HW1 2791   2.694   3.399   0.910  0.8108  0.2076 -0.7664
  834SOL    HW2 2792   2.794   3.358   1.033 -2.0802 -0.9947  1.2947
  835SOL     OW 2793   0.886   3.551   5.856 -0.0771 -0.1874 -0.3721
  835SOL    HW1 2794   0.981   3.545   5.885  0.3722  0.1541 -1.6790
  835SOL    HW2 2795   0.837   3.468   5.883  0.9205 -0.9360 -0.8049
  836SOL     OW 2796   0.232   2.345   1.372 -0.2463  0.0055  0.1214
  836SOL    HW1 2797   0.268   2.320   1.461 -2.4466 -2.0319  0.5384
  836SOL    HW2 2798   0.157   2.410   1.383 -0.3813 -0.0798 -0.2606
  837SOL     OW 2799   0.395   2.781   2.090 -0.0627 -0.5052 -0.0589
  837SOL    HW1 2800   0.355   2.766   1.999 -0.3749  2.0635 -0.4244
  837SOL    HW2 2801   0.351   2.860   2.133  1.0327 -0.8324  1.7792
  838SOL     OW 2802   0.974   3.159   0.871  0.1912  0.4173  0.0439
  838SOL    HW1 2803   1.005   3.063   0.873  1.0470  0.6777 -0.0301
  838SOL    HW2 2804   1.029   3.212   0.936  0.8126  1.1687 -1.0762
  839SOL     OW 2805   0.217   4.282   4.033  0.2492  0.5751  0.1899
  839SOL    HW1 2806   0.195   4.332   4.116  0.9964  1.0477  0.1057
  839SOL    HW2 2807   0.315   4.287   4.015  0.1895 -0.0688 -0.3680
  840SOL     OW 2808   5.453   3.740   0.314 -0.4756 -0.0902  0.4209
  840SOL    HW1 2809   5.485   3.686   0.392  1.5568  0.7512  0.2312
  840SOL    HW2 2810   5.439   3.680   0.235 -0.9188 -0.7100  0.9672
  841SOL     OW 2811   0.600   3.325   1.404  0.1408 -0.5344  0.2130
  841SOL    HW1 2812   0.611   3.343   1.501  0.0253 -1.4921  0.4106
  841SOL    HW2 2813   0.551   3.239   1.390 -2.1027  0.7887 -0.6878
  842SOL     OW 2814   5.496   2.049   0.219 -0.1738 -0.1558 -0.2369
  842SOL    HW1 2815   5.490   2.111   0.298  1.2799 -0.7143  0.3526
  842SOL    HW2 2816   5.461   1.959   0.244 -1.4264  0.1654 -0.8088
  843SOL     OW 2817   0.016   3.360   1.842  0.0703 -0.0660  0.0388
  843SOL    HW1 2818   0.102   3.409   1.828 -0.0618  1.1933  2.9370
  843SOL    HW2 2819   0.036   3.270   1.882  0.1033 -0.4545 -0.8449
  844SOL     OW 2820   1.247   2.375   1.311  0.3642 -0.3269  0.4211
  844SOL    HW1 2821   1.311   2.299   1.318  0.8733  0.0187 -0.3899
  844SOL    HW2 2822   1.297   2.460   1.297 -0.2381  0.0568  0.5582
  845SOL     OW 2823   0.244   1.311   0.336 -0.0775 -0.2426 -0.3410
  845SOL    HW1 2824   0.200   1.392   0.297  0.2380  1.3760  2.3730
  845SOL    HW2 2825   0.268   1.247   0.263  0.1050  2.3139 -2.6686
  846SOL     OW 2826   2.029   1.698   0.686 -0.7334  0.4841 -0.3716
  846SOL    HW1 2827   2.042   1.774   0.749  1.5586 -1.4279  1.6388
  846SOL    HW2 2828   2.098   1.702   0.614  2.0536 -1.6313  1.9480
  847SOL     OW 2829   0.780   4.179   1.732 -0.2160 -0.0027 -0.1265
  847SOL    HW1 2830   0.868   4.222   1.750  0.9932 -1.9518 -1.0944
  847SOL    HW2 2831   0.781   4.135   1.643 -1.7273 -1.1308  0.3577
  848SOL     OW 2832   1.153   3.343   0.997  0.3266  0.2486  0.3004
  848SOL    HW1 2833   1.190   3.417   1.053  1.4347  0.5790 -0.8299
  848SOL    HW2 2834   1.226   3.301   0.944 -0.8779  0.9833 -2.0964
  849SOL     OW 2835   0.810   2.534   1.583  0.1498  0.4332  0.4117
  849SOL    HW1 2836   0.830   2.632   1.591  2.6348  0.1055 -0.7607
  849SOL    HW2 2837   0.896   2.484   1.573 -1.1302 -1.7920  0.0525
  850SOL     OW 2838   1.096   3.384   0.591  0.4266 -0.5255  0.7981
  850SOL    HW1 2839   1.123   3.288   0.593 -2.6215 -1.5202 -0.1833
  850SOL    HW2 2840   1.087   3.414   0.496  0.1601  0.3676  1.0998
  851SOL     OW 2841  -0.009   3.868   3.231 -0.1542 -0.1510  0.2082
  851SOL    HW1 2842   0.001   3.950   3.174 -1.3753  0.2518  0.5367
  851SOL    HW2 2843   0.022   3.788   3.179 -0.2572  0.3434 -0.6475
  852SOL     OW 2844   0.870   2.784   1.641  0.2325 -0.1569 -0.0182
  852SOL    HW1 2845   0.928   2.824   1.712  0.2385 -0.6015  0.2290
  852SOL    HW2 2846   0.839   2.856   1.579 -0.1258  0.3092  0.6812
  853SOL     OW 2847   1.169   3.034   0.214  0.3219 -0.2326 -0.3265
  853SOL    HW1 2848   1.097   3.017   0.281  0.1156 -0.7914 -0.6845
  853SOL    HW2 2849   1.228   3.107   0.247 -0.7339  0.6222 -0.2820
  854SOL     OW 2850   2.142   3.968   1.132  0.2459 -0.0919  0.1234
  854SOL    HW1 2851   2.162   4.044   1.194  3.6004 -0.4497 -0.3715
  854SOL    HW2 2852   2.226   3.937   1.087 -1.4570 -2.2854 -1.8421
  855SOL     OW 2853   0.898   3.965   0.497 -0.7939 -0.0463 -0.6490
  855SOL    HW1 2854   0.952   3.885   0.471  1.6359  1.1227  0.3691
  855SOL    HW2 2855   0.884   3.964   0.596  0.6535  1.4667 -0.3659
  856SOL     OW 2856   5.669   3.001   0.787  0.2971  0.4323  0.7500
  856SOL    HW1 2857   5.655   3.036   0.695  2.0475 -0.7148 -0.0048
  856SOL    HW2 2858   5.607   3.047   0.850 -1.4965  0.6865 -1.0998
  857SOL     OW 2859   0.529   4.259   2.393 -0.1564  0.0886  0.3503
  857SOL    HW1 2860   0.542   4.245   2.491  0.0879 -1.0816  0.1662
  857SOL    HW2 2861   0.618   4.251   2.347  0.0397  2.4223  0.2055
  858SOL     OW 2862   5.252   1.863   5.001  0.1174 -0.1393  0.1454
  858SOL    HW1 2863   5.173   1.833   5.055  2.2199 -2.1661  2.3627
  858SOL    HW2 2864   5.257   1.810   4.916 -0.0743 -1.1499  0.7495
  859SOL     OW 2865   2.483   0.399   0.315 -0.1880  0.1488 -0.0282
  859SOL    HW1 2866   2.441   0.490   0.315  0.8798  0.7367 -2.7768
  859SOL    HW2 2867   2.581   0.408   0.330 -0.3118 -0.7924  1.6188
  860SOL     OW 2868   1.940   2.359   0.241 -0.6737 -0.4249  0.1842
  860SOL    HW1 2869   1.909   2.381   0.333 -1.3553 -1.5079  0.2372
  860SOL    HW2 2870   1.972   2.441   0.195 -3.0328  0.6947  0.3748
  861SOL     OW 2871   1.060   3.990   1.986  0.0904  0.1118 -0.4732
  861SOL    HW1 2872   1.159   3.998   1.983  0.0914  0.0413 -0.6348
  861SOL    HW2 2873   1.019   4.045   1.914  0.1603 -2.3372 -2.5269
  862SOL     OW 2874   2.227   2.047   0.617 -0.1645  0.4979 -0.2321
  862SOL    HW1 2875   2.305   1.991   0.644  0.1127  0.3628 -1.2932
  862SOL    HW2 2876   2.145   2.013   0.665 -0.1790 -1.4206 -1.4726
  863SOL     OW 2877   0.445   3.982   1.744  0.4715  0.2751  0.6120
  863SOL    HW1 2878   0.509   3.940   1.808  2.0249  1.4302 -0.1185
  863SOL    HW2 2879   0.484   3.979   1.652 -1.2120 -0.3257 -0.1157
  864SOL     OW 2880   0.266   4.029   5.230 -0.2393  0.2506 -0.5614
  864SOL    HW1 2881   0.366   4.028   5.237 -0.2964 -0.6009  0.4388
  864SOL    HW2 2882   0.228   3.953   5.284 -1.3659 -0.3550 -2.1278
  865SOL     OW 2883   2.465   3.500   1.658 -0.4242 -0.0649  0.3176
  865SOL    HW1 2884   2.518   3.511   1.574  0.9433  0.7690  1.2451
  865SOL    HW2 2885   2.385   3.561   1.655 -0.4035 -0.0635 -0.3755
  866SOL     OW 2886   1.100   1.740   1.718  0.3810 -0.0918  0.4638
  866SOL    HW1 2887   1.027   1.799   1.683  1.3548  2.0765  1.9005
  866SOL    HW2 2888   1.170   1.729   1.648  0.5483  1.1056  0.4307
  867SOL     OW 2889   4.722   2.245   0.880 -0.1985 -0.3423  0.0007
  867SOL    HW1 2890   4.808   2.291   0.902 -1.4886  1.5025  1.5937
  867SOL    HW2 2891   4.724   2.151   0.914  0.9389 -0.1152  0.6087
  868SOL     OW 2892   1.076   3.033   5.458 -0.1060 -0.1891  0.1580
  868SOL    HW1 2893   1.001   2.995   5.512  0.0842  0.9253  1.2742
  868SOL    HW2 2894   1.160   3.032   5.513  0.5096 -0.6242 -0.7602
  869SOL     OW 2895   1.423   2.027   0.650 -0.0630  0.2892  0.5632
  869SOL    HW1 2896   1.349   2.038   0.716  1.0328  1.8266  1.6139
  869SOL    HW2 2897   1.450   2.117   0.615 -0.1593 -0.4315 -1.5064
  870SOL     OW 2898   1.481   2.591   0.733  0.5068 -0.5367 -0.2759
  870SOL    HW1 2899   1.545   2.630   0.667 -1.5913  0.4139 -1.8795
  870SOL    HW2 2900   1.452   2.662   0.797 -0.8432 -0.2513 -1.1649
  871SOL     OW 2901   2.146   3.708   0.731  0.4123  0.6254  0.3169
  871SOL    HW1 2902   2.149   3.670   0.638 -2.2837 -1.6809  1.0157
  871SOL    HW2 2903   2.063   3.763   0.741  1.3285  1.9312  1.0602
  872SOL     OW 2904   0.142   3.182   2.618 -0.0222  0.2194  0.2667
  872SOL    HW1 2905   0.101   3.104   2.571 -0.5331 -0.2476  1.4235
  872SOL    HW2 2906   0.211   3.149   2.683  0.3359  0.8041  0.1978
  873SOL     OW 2907   1.515   3.863   0.958 -0.3340 -0.1053 -0.0857
  873SOL    HW1 2908   1.431   3.809   0.961  0.5376 -1.4943  0.1549
  873SOL    HW2 2909   1.580   3.821   0.895 -0.0317  1.3040 -0.7555
  874SOL     OW 2910   2.168   3.721   0.404 -0.2283  0.1089 -0.1605
  874SOL    HW1 2911   2.143   3.742   0.310  1.5753 -1.2987 -1.0170
  874SOL    HW2 2912   2.256   3.673   0.406  0.4604  1.2697  2.3473
  875SOL     OW 2913   1.645   1.895   0.741 -0.8611  1.0289  0.1323
  875SOL    HW1 2914   1.573   1.955   0.706 -0.8576  0.5223 -0.7818
  875SOL    HW2 2915   1.678   1.836   0.667  0.0147  0.7778  0.7108
  876SOL     OW 2916   5.873   4.081   0.147  0.1219  0.2762 -0.2146
  876SOL    HW1 2917   5.893   4.105   0.242  1.9328  0.2453 -0.5422
  876SOL    HW2 2918   5.789   4.026   0.143  0.4209 -0.3582  1.4488
  877SOL     OW 2919   1.321   2.341   2.054 -1.0153  0.4273  0.3386
  877SOL    HW1 2920   1.379   2.334   2.135 -1.7824 -0.0026  0.8529
  877SOL    HW2 2921   1.328   2.434   2.016  0.8142  0.1128 -0.2319
  878SOL     OW 2922   0.029   2.564   5.400 -0.2805 -0.2344  0.1445
  878SOL    HW1 2923   0.010   2.660   5.382  0.1972 -0.0182  0.7777
  878SOL    HW2 2924   0.085   2.527   5.325  0.6063  0.3252  0.5095
  879SOL     OW 2925   5.797   3.443   1.653 -0.5827  0.3337  0.0927
  879SOL    HW1 2926   5.872   3.413   1.713  0.2432  0.0805 -1.0355
  879SOL    HW2 2927   5.783   3.376   1.581 -0.2998  1.5102 -1.0944
  880SOL     OW 2928   0.901   2.470   0.620 -0.0422 -0.0399 -0.1818
  880SOL    HW1 2929   0.850   2.467   0.534  0.6048 -2.8511 -0.5665
  880SOL    HW2 2930   0.998   2.453   0.602 -0.0650 -1.8879  1.1354
  881SOL     OW 2931   0.531   1.990   5.901 -0.3120  0.2420 -0.7359
  881SOL    HW1 2932   0.485   2.024   5.819  2.5030  0.8650 -2.1924
  881SOL    HW2 2933   0.564   2.068   5.955  1.1443 -0.1216 -1.0544
  882SOL     OW 2934   0.537   2.306   0.822 -0.0482 -0.4017 -0.9170
  882SOL    HW1 2935   0.636   2.306   0.808 -0.0352 -0.0530 -0.8398
  882SOL    HW2 2936   0.513   2.241   0.895  0.4023  1.3680  0.8988
  883SOL     OW 2937   5.609   3.270   0.597 -0.0925 -0.0375  0.1442
  883SOL    HW1 2938   5.525   3.307   0.558  1.0717  1.4383 -1.0726
  883SOL    HW2 2939   5.628   3.181   0.556 -0.7454 -0.1252  0.0122
  884SOL     OW 2940   2.544   4.012   5.756  0.3561 -0.0264  0.4827
  884SOL    HW1 2941   2.628   3.976   5.798 -0.0114  1.6913  2.8628
  884SOL    HW2 2942   2.568   4.067   5.676  1.6274  1.0200  1.5340
  885SOL     OW 2943   1.196   3.412   1.413 -0.4281 -0.4026 -0.2780
  885SOL    HW1 2944   1.100   3.431   1.391  0.4230  1.3131 -3.0526
  885SOL    HW2 2945   1.210   3.313   1.418 -2.1483 -0.7111 -0.7930
  886SOL     OW 2946   1.495   4.011   0.724  0.0356 -0.7424 -0.4768
  886SOL    HW1 2947   1.451   3.990   0.811 -0.3773 -1.1897 -0.7906
  886SOL    HW2 2948   1.429   4.056   0.663  0.0582 -1.2485 -0.8825
  887SOL     OW 2949   0.426   1.677   2.171  0.2456  0.2535  0.0051
  887SOL    HW1 2950   0.426   1.577   2.165 -0.2553  0.3191 -1.6974
  887SOL    HW2 2951   0.388   1.715   2.087  0.6387  1.8938  0.5351
  888SOL     OW 2952   2.185   2.483   2.281  0.6476 -0.2898  0.2471
  888SOL    HW1 2953   2.263   2.480   2.218  0.6873 -2.0272  0.3446
  888SOL    HW2 2954   2.171   2.393   2.322 -0.1560  0.4995  1.7967
  889SOL     OW 2955   5.536   4.217   2.395 -0.1023  0.6737 -0.1502
  889SOL    HW1 2956   5.627   4.183   2.419 -0.4592 -0.5360 -0.4111
  889SOL    HW2 2957   5.540   4.316   2.380  1.5325  0.4185 -1.8260
  890SOL     OW 2958   2.062   4.020   1.693 -0.0607  0.1736  0.2957
  890SOL    HW1 2959   2.092   4.001   1.787  0.5391 -0.3021  0.0174
  890SOL    HW2 2960   2.063   3.935   1.640 -0.8373  0.3565 -0.0259
  891SOL     OW 2961   0.659   2.795   2.117  0.3126 -0.2473  0.4500
  891SOL    HW1 2962   0.560   2.787   2.102  0.3375 -0.4647  0.4013
  891SOL    HW2 2963   0.688   2.726   2.183  0.6951 -1.2406 -0.7251
  892SOL     OW 2964   0.472   2.931   0.282  0.7044 -0.3263 -0.1678
  892SOL    HW1 2965   0.453   2.934   0.184  1.0277 -0.9731 -0.2568
  892SOL    HW2 2966   0.501   3.021   0.313 -0.1991  0.0875 -0.4950
  893SOL     OW 2967   0.627   1.825   2.264  0.3765  0.1068 -0.2130
  893SOL    HW1 2968   0.541   1.798   2.221  0.7291 -0.0152 -0.8501
  893SOL    HW2 2969   0.703   1.808   2.201  0.9763 -0.6545  0.6791
  894SOL     OW 2970   1.792   3.665   2.030  0.3988 -0.3831  0.2083
  894SOL    HW1 2971   1.777   3.763   2.018  1.2147 -0.3827 -0.9428
  894SOL    HW2 2972   1.735   3.614   1.966 -0.8923 -0.7298  1.5957
  895SOL     OW 2973   1.728   3.040   5.090 -0.8407 -0.5716  0.4912
  895SOL    HW1 2974   1.725   3.133   5.126  1.9198  0.3421 -1.2500
  895SOL    HW2 2975   1.650   3.024   5.029 -0.5807  1.1906 -0.3526
  896SOL     OW 2976   0.744   2.573   0.231 -0.4005 -0.0471 -0.1187
  896SOL    HW1 2977   0.811   2.536   0.166  0.3483 -0.9314  1.1029
  896SOL    HW2 2978   0.729   2.506   0.304 -0.0113  1.5300  1.4691
  897SOL     OW 2979   0.054   3.797   0.848 -0.7496  0.3045 -0.0673
  897SOL    HW1 2980   0.110   3.720   0.815  0.5171  0.4946  1.4829
  897SOL    HW2 2981   0.062   3.802   0.948 -4.7363 -0.5421  0.4605
  898SOL     OW 2982   0.091   3.301   5.244  0.2546  0.4853  0.1045
  898SOL    HW1 2983   0.141   3.250   5.314 -1.1819 -0.3717  0.5364
  898SOL    HW2 2984   0.027   3.364   5.288 -0.2131  0.3930 -0.4442
  899SOL     OW 2985   2.398   3.847   1.010 -0.2926  0.4036  0.1545
  899SOL    HW1 2986   2.494   3.838   1.035 -0.6682  1.2874  2.1537
  899SOL    HW2 2987   2.356   3.757   1.004  0.7584 -0.0199 -1.3033
  900SOL     OW 2988   0.011   3.081   0.877  0.0690 -0.8756 -0.0625
  900SOL    HW1 2989   0.091   3.139   0.876 -0.9725  0.6297 -1.9852
  900SOL    HW2 2990   0.032   2.993   0.833  0.4101 -0.0944 -1.5033
  901SOL     OW 2991   4.656   2.973   0.803 -0.1038  0.3055 -0.1936
  901SOL    HW1 2992   4.720   2.915   0.752 -0.1729 -1.6366  1.8046
  901SOL    HW2 2993   4.579   2.998   0.743  0.2953 -1.0665 -1.3214
  902SOL     OW 2994   4.729   4.591   1.326  0.1129 -0.3180  0.3264
  902SOL    HW1 2995   4.790   4.607   1.249 -0.1801  1.0055  0.3570
  902SOL    HW2 2996   4.638   4.568   1.293 -0.5035  2.0919  0.2284
  903SOL     OW 2997   2.280   1.759   2.699  0.2402  0.0873  0.2197
  903SOL    HW1 2998   2.366   1.741   2.746 -0.6326 -1.1241  1.4379
  903SOL    HW2 2999   2.205   1.760   2.765 -0.9519 -0.9175 -1.0390
  904SOL     OW 3000   5.194   1.574   0.586 -0.4722  0.3648  0.4780
  904SOL    HW1 3001   5.226   1.484   0.614  1.2748  0.8146  0.0217
  904SOL    HW2 3002   5.148   1.567   0.498  0.1809  0.0012  0.1614
  905SOL     OW 3003   1.165   3.371   5.927  0.5541  0.0379  0.0075
  905SOL    HW1 3004   1.239   3.430   5.960  0.1836  0.6257 -0.2110
  905SOL    HW2 3005   1.167   3.368   5.827  0.0022  0.4186 -0.0165
  906SOL     OW 3006   0.591   2.861   0.631  0.2001 -0.1248  0.4256
  906SOL    HW1 3007   0.633   2.868   0.540  2.0843  0.2283  1.2723
  906SOL    HW2 3008   0.566   2.953   0.663 -1.3245 -0.3340 -0.0803
  907SOL     OW 3009   0.827   2.372   1.159 -0.2299 -0.1581 -0.1355
  907SOL    HW1 3010   0.918   2.334   1.173 -0.2734  0.4043  2.0882
  907SOL    HW2 3011   0.834   2.460   1.112  0.5636  0.6763  1.4805
  908SOL     OW 3012   1.697   2.160   2.636  0.3239  0.1694  0.6934
  908SOL    HW1 3013   1.619   2.195   2.688 -0.0090  1.1205 -0.4025
  908SOL    HW2 3014   1.769   2.230   2.634  0.5799 -0.1027  0.4173
  909SOL     OW 3015   5.876   1.986   1.137  0.6591 -0.9061  0.2484
  909SOL    HW1 3016   5.939   1.962   1.211  1.0962  0.3091  0.2806
  909SOL    HW2 3017   5.871   2.085   1.127  0.3094 -1.0335 -1.0978
  910SOL     OW 3018   0.160   2.688   4.721 -0.4050 -0.4060 -0.4149
  910SOL    HW1 3019   0.246   2.726   4.756 -1.4516  1.7553 -0.0691
  910SOL    HW2 3020   0.170   2.589   4.711  2.0031 -0.2636 -0.0561
  911SOL     OW 3021   1.162   4.080   1.447 -0.2832  0.5558 -0.7452
  911SOL    HW1 3022   1.105   4.162   1.440 -1.3204 -0.2050 -1.4168
  911SOL    HW2 3023   1.232   4.095   1.517 -0.9921  1.6949 -0.2394
  912SOL     OW 3024   1.085   1.489   1.840 -0.3092 -0.1378  0.2671
  912SOL    HW1 3025   1.009   1.437   1.800 -0.5659 -0.2478  0.8833
  912SOL    HW2 3026   1.082   1.583   1.806 -0.7050 -0.1495  0.2651
  913SOL     OW 3027   5.883   2.147   0.829  0.5614  0.7794 -0.0745
  913SOL    HW1 3028   5.950   2.135   0.755  0.0512 -0.8230 -0.3084
  913SOL    HW2 3029   5.848   2.058   0.857  0.1236  1.4383  1.5502
  914SOL     OW 3030   1.626   2.463   3.327 -0.0024  0.0061 -0.4027
  914SOL    HW1 3031   1.532   2.459   3.360  1.1309 -2.7952  3.1364
  914SOL    HW2 3032   1.672   2.542   3.368 -0.2561  0.1542 -0.4016
  915SOL     OW 3033   4.749   3.208   1.519 -0.0372  0.5952 -0.0643
  915SOL    HW1 3034   4.715   3.235   1.609 -2.2443 -0.9456 -0.3452
  915SOL    HW2 3035   4.718   3.273   1.450 -0.4590  0.4490 -0.0150
  916SOL     OW 3036   1.695   3.102   0.101  0.2365  0.4486  0.1085
  916SOL    HW1 3037   1.644   3.018   0.117 -0.2364  0.5711 -0.6943
  916SOL    HW2 3038   1.661   3.146   0.018  4.1453 -1.4767 -2.8731
  917SOL     OW 3039   0.378   2.302   1.620  0.2175  0.0429  0.2909
  917SOL    HW1 3040   0.312   2.345   1.682  0.4197  2.4839 -1.0989
  917SOL    HW2 3041   0.465   2.350   1.625  0.2368  0.3164 -1.8659
  918SOL     OW 3042   5.571   2.184   3.204 -0.1174 -0.2406 -0.1576
  918SOL    HW1 3043   5.638   2.111   3.190  0.4730  0.1897  0.3359
  918SOL    HW2 3044   5.538   2.181   3.298  0.6587  0.7213  0.1681
  919SOL     OW 3045   0.667   2.400   3.396  0.4220  0.6549  0.1689
  919SOL    HW1 3046   0.634   2.322   3.344  1.3174  0.0546  0.4870
  919SOL    HW2 3047   0.651   2.484   3.344 -1.6036  0.4128  0.3095
  920SOL     OW 3048   0.339   3.531   3.913  0.0814  0.1719 -0.0488
  920SOL    HW1 3049   0.355   3.439   3.876  0.1756  0.3374 -0.4338
  920SOL    HW2 3050   0.386   3.598   3.855 -0.8993  0.5561 -0.4252
  921SOL     OW 3051   1.458   3.833   2.257 -0.2200 -0.2234  0.0936
  921SOL    HW1 3052   1.359   3.834   2.241 -0.1115  0.0215 -0.5865
  921SOL    HW2 3053   1.490   3.738   2.255 -0.2963 -0.2417 -0.6595
  922SOL     OW 3054   0.864   3.057   1.483  0.4239 -0.4925  0.2217
  922SOL    HW1 3055   0.935   3.046   1.413 -1.3462 -0.3457 -1.6855
  922SOL    HW2 3056   0.783   3.004   1.457 -0.2593 -0.5140  2.2451
  923SOL     OW 3057   3.100   1.702   0.552 -0.5751  0.0962  0.6142
  923SOL    HW1 3058   3.115   1.717   0.454  2.1390 -0.9721  0.7855
  923SOL    HW2 3059   3.148   1.772   0.604 -3.0541  1.4339  1.2675
  924SOL     OW 3060   1.206   3.125   1.445  0.0049  0.1422  0.3361
  924SOL    HW1 3061   1.147   3.067   1.389 -1.0355  0.5058  1.0259
  924SOL    HW2 3062   1.284   3.071   1.476 -0.0827 -0.4229 -0.3799
  925SOL     OW 3063   1.136   3.028   3.695  0.0925 -0.6973 -0.0504
  925SOL    HW1 3064   1.040   3.048   3.713  0.4602  1.5162 -0.2074
  925SOL    HW2 3065   1.190   3.047   3.778  0.3546 -2.4154  0.1990
  926SOL     OW 3066   0.825   3.567   2.120  0.3485  0.0666  0.4616
  926SOL    HW1 3067   0.780   3.487   2.081  0.1520  0.3866  0.0209
  926SOL    HW2 3068   0.861   3.624   2.046  0.1226  0.5962  0.7543
  927SOL     OW 3069   1.203   3.533   4.437 -0.6047  0.4933 -0.8122
  927SOL    HW1 3070   1.196   3.451   4.381  0.8061 -1.8134  2.1076
  927SOL    HW2 3071   1.160   3.516   4.526  1.6413  2.0788  0.6773
  928SOL     OW 3072   0.434   2.323   2.151 -0.2966  0.1171 -0.5054
  928SOL    HW1 3073   0.381   2.296   2.071 -0.7630 -0.3672 -0.0453
  928SOL    HW2 3074   0.420   2.255   2.224 -0.1685  0.7375  0.1045
  929SOL     OW 3075   1.214   2.844   2.396 -0.6127  0.3448 -0.1070
  929SOL    HW1 3076   1.239   2.905   2.471 -2.2280  2.0554 -0.8641
  929SOL    HW2 3077   1.296   2.802   2.357  0.5833  2.1120  0.4137
  930SOL     OW 3078   0.884   1.218   4.158  0.4243 -0.8023  0.3989
  930SOL    HW1 3079   0.838   1.188   4.242  1.7611 -1.3865  0.9576
  930SOL    HW2 3080   0.949   1.148   4.129  2.5522  0.8422  0.8938
  931SOL     OW 3081   2.185   2.242   2.405 -0.1320  0.0619 -0.7580
  931SOL    HW1 3082   2.189   2.189   2.490  1.3976  1.5865  0.1842
  931SOL    HW2 3083   2.090   2.249   2.374 -0.6393 -1.0521  0.4647
  932SOL     OW 3084   0.441   4.520   2.324 -0.5677 -0.3285 -0.1101
  932SOL    HW1 3085   0.461   4.422   2.327  0.3036 -0.1830 -0.7795
  932SOL    HW2 3086   0.527   4.572   2.325 -0.9968  0.4083 -0.4305
  933SOL     OW 3087   0.982   3.036   4.007  0.3172 -0.2690 -0.2175
  933SOL    HW1 3088   0.926   3.103   4.056  0.7127  0.3063 -0.5315
  933SOL    HW2 3089   0.923   2.971   3.959 -0.1224  0.8055 -1.2075
  934SOL     OW 3090   0.632   4.217   1.956  0.3995  0.8066  0.1166
  934SOL    HW1 3091   0.665   4.188   1.866  0.2530 -0.4597  0.4503
  934SOL    HW2 3092   0.533   4.207   1.961  0.6812 -2.9876  1.6333
  935SOL     OW 3093   5.363   3.315   3.467  0.2804 -0.0519  0.1182
  935SOL    HW1 3094   5.412   3.303   3.553  0.4768 -1.6816 -0.1773
  935SOL    HW2 3095   5.421   3.364   3.401  0.5813  0.1625  0.5432
  936SOL     OW 3096   1.302   3.003   2.584 -0.0750  0.1291  0.1840
  936SOL    HW1 3097   1.285   3.090   2.538  0.3532 -0.4749 -1.1657
  936SOL    HW2 3098   1.373   3.016   2.654 -0.9972  1.1321  0.9726
  937SOL     OW 3099   5.444   2.706   2.774  0.5218  0.4336  0.0992
  937SOL    HW1 3100   5.526   2.750   2.737 -0.1188 -0.3708 -2.4739
  937SOL    HW2 3101   5.375   2.776   2.796  1.5622  1.0531  1.5579
  938SOL     OW 3102   2.091   2.175   3.029  0.1286  0.1744  0.1904
  938SOL    HW1 3103   2.168   2.111   3.021 -0.9908 -1.0960 -0.9763
  938SOL    HW2 3104   2.105   2.252   2.966  0.3833 -0.1250 -0.1233
  939SOL     OW 3105   5.773   3.632   2.013  0.8649  0.0207  0.4028
  939SOL    HW1 3106   5.858   3.635   1.959  0.8116 -0.0524  0.3169
  939SOL    HW2 3107   5.732   3.542   2.006  1.2841 -0.2459  1.2233
  940SOL     OW 3108   2.883   3.639   1.012  0.0962 -0.0176 -0.5381
  940SOL    HW1 3109   2.836   3.727   1.026 -0.5377 -0.2340 -1.2307
  940SOL    HW2 3110   2.815   3.568   0.993  0.7585 -0.0462 -3.1321
  941SOL     OW 3111   1.494   3.242   2.075  0.0461 -0.3338  0.1268
  941SOL    HW1 3112   1.462   3.179   2.147  0.2886  0.9540  1.4126
  941SOL    HW2 3113   1.447   3.330   2.086  0.3715 -0.0041 -1.0841
  942SOL     OW 3114   1.716   2.611   2.855 -0.0648 -0.0686  0.0940
  942SOL    HW1 3115   1.641   2.671   2.826  0.2604 -0.3552 -1.3965
  942SOL    HW2 3116   1.681   2.542   2.918 -1.3114 -0.8700 -1.4126
  943SOL     OW 3117   1.076   2.943   2.740 -0.4035 -0.1477 -0.4489
  943SOL    HW1 3118   1.169   2.964   2.708 -0.6307 -0.3862 -1.3141
  943SOL    HW2 3119   1.065   2.972   2.835  0.5588 -0.1277 -0.3376
  944SOL     OW 3120   0.175   1.856   3.717 -0.4329 -0.1421 -0.0517
  944SOL    HW1 3121   0.260   1.804   3.701 -0.0511 -0.0685  1.5438
  944SOL    HW2 3122   0.101   1.815   3.664  0.4803 -0.5294 -1.0740
  945SOL     OW 3123   1.106   3.844   1.544  0.5334  0.0405  0.0263
  945SOL    HW1 3124   1.113   3.938   1.510  0.6307 -0.7218 -2.2421
  945SOL    HW2 3125   1.177   3.788   1.502 -1.3577 -1.6741 -1.0957
  946SOL     OW 3126   1.092   3.063   2.989  0.2164 -0.6070  0.0256
  946SOL    HW1 3127   1.118   2.997   3.060  0.7257 -0.8257 -0.3519
  946SOL    HW2 3128   1.005   3.105   3.013 -0.2055 -1.5447  0.1862
  947SOL     OW 3129   0.629   3.086   2.156 -0.0636  0.2934 -0.1014
  947SOL    HW1 3130   0.614   3.103   2.253  0.2347  1.6856 -0.2745
  947SOL    HW2 3131   0.659   2.992   2.143 -0.0319  0.1100  1.1669
  948SOL     OW 3132   5.944   2.332   2.447  0.4174  0.1040  0.1038
  948SOL    HW1 3133   5.973   2.412   2.396  1.3173  0.7042  1.4927
  948SOL    HW2 3134   5.865   2.355   2.504  1.0448  0.1822  0.9551
  949SOL     OW 3135   1.625   2.139   1.918  0.2198  0.1325 -0.0160
  949SOL    HW1 3136   1.661   2.051   1.951 -0.2913 -0.0202  0.1503
  949SOL    HW2 3137   1.530   2.149   1.948 -0.2918 -0.0377 -1.4984
  950SOL     OW 3138   1.916   3.626   3.658  0.3273 -0.6740 -0.3181
  950SOL    HW1 3139   1.963   3.538   3.671  0.7667 -0.7005 -1.8827
  950SOL    HW2 3140   1.975   3.700   3.691  0.4913 -0.8668 -0.1729
  951SOL     OW 3141   2.073   1.731   2.900  0.2258 -0.3429  0.8655
  951SOL    HW1 3142   2.058   1.634   2.919  1.4626 -1.0059 -1.2140
  951SOL    HW2 3143   1.985   1.778   2.895 -0.4899 -1.6802  0.3797
  952SOL     OW 3144   1.529   3.023   2.746 -0.2371  0.0568  0.2308
  952SOL    HW1 3145   1.516   3.103   2.805  0.3468 -0.4454  1.0659
  952SOL    HW2 3146   1.588   3.048   2.669  0.4973  0.2815  0.8465
  953SOL     OW 3147   2.615   2.699   2.369  0.2541 -0.1074 -0.2090
  953SOL    HW1 3148   2.697   2.757   2.369 -0.7608  1.4615 -2.2691
  953SOL    HW2 3149   2.542   2.745   2.420 -0.2131 -0.0711 -0.8919
  954SOL     OW 3150   5.382   3.268   2.161 -0.0440  0.0779  0.0193
  954SOL    HW1 3151   5.289   3.301   2.152  0.1004  1.2691  2.2086
  954SOL    HW2 3152   5.382   3.168   2.159 -1.0987  0.0714 -1.7772
  955SOL     OW 3153   1.503   1.159   2.307  0.5136 -0.0402  0.3610
  955SOL    HW1 3154   1.472   1.173   2.401 -0.2856  1.0735 -0.0463
  955SOL    HW2 3155   1.593   1.202   2.294  0.7508 -0.4345  0.6770
  956SOL     OW 3156   1.523   3.522   1.154 -0.3849 -0.0385  0.2790
  956SOL    HW1 3157   1.578   3.463   1.214 -0.8549 -0.3359  0.4219
  956SOL    HW2 3158   1.583   3.587   1.108  0.1611 -0.6968  0.0321
  957SOL     OW 3159   0.067   1.404   3.005  0.3792  0.6024  0.0903
  957SOL    HW1 3160   0.072   1.491   2.957 -1.5861  0.1940 -0.9360
  957SOL    HW2 3161   0.116   1.334   2.954 -1.2392  0.2935 -1.0985
  958SOL     OW 3162   1.454   1.704   3.303  0.1115 -0.3482  0.1315
  958SOL    HW1 3163   1.405   1.635   3.356  1.5215 -0.5039  1.3109
  958SOL    HW2 3164   1.527   1.743   3.359  1.0783  0.1472 -1.4108
  959SOL     OW 3165   0.842   2.116   3.204 -0.0064  0.7081 -0.3545
  959SOL    HW1 3166   0.742   2.118   3.194 -0.2661 -1.4664  1.1858
  959SOL    HW2 3167   0.881   2.059   3.132 -0.3310 -1.7321  1.2916
  960SOL     OW 3168   2.424   2.170   2.275 -0.0512 -0.7151  0.2718
  960SOL    HW1 3169   2.343   2.189   2.331  1.1207 -0.0514  1.8170
  960SOL    HW2 3170   2.493   2.125   2.332  1.3273  0.3125 -0.5335
  961SOL     OW 3171   0.778   2.624   2.282 -0.1535  1.0935 -0.1299
  961SOL    HW1 3172   0.824   2.709   2.309  0.5524  1.0437 -1.1255
  961SOL    HW2 3173   0.718   2.594   2.356  0.8919  1.5459  0.9354
  962SOL     OW 3174   0.614   2.890   1.507  0.9227  0.5156  0.3097
  962SOL    HW1 3175   0.572   2.799   1.517 -1.9351  1.8185  1.3485
  962SOL    HW2 3176   0.636   2.906   1.411  1.0108 -1.0612  0.0286
  963SOL     OW 3177   0.809   3.718   3.710  0.4669 -0.7845  0.2675
  963SOL    HW1 3178   0.845   3.626   3.729  0.5990 -1.1335 -1.5461
  963SOL    HW2 3179   0.822   3.740   3.614 -0.8078  0.6164  0.3812
  964SOL     OW 3180   0.492   2.437   0.562 -0.0586  0.0807 -0.1998
  964SOL    HW1 3181   0.492   2.395   0.653 -2.4602 -0.5524 -0.4136
  964SOL    HW2 3182   0.402   2.477   0.544  0.0709 -0.5829 -2.6540
  965SOL     OW 3183   2.128   2.788   2.748  0.0350 -0.2523 -0.9080
  965SOL    HW1 3184   2.110   2.715   2.683 -2.9985 -2.1349  1.7498
  965SOL    HW2 3185   2.196   2.757   2.815  0.6664  0.3733 -1.2554
  966SOL     OW 3186   1.347   2.579   2.460  0.6090 -0.1621 -0.7092
  966SOL    HW1 3187   1.315   2.487   2.483  1.9925 -0.5561 -0.3110
  966SOL    HW2 3188   1.275   2.645   2.482  0.0450 -1.0267  0.1085
  967SOL     OW 3189   0.966   2.459   2.142  0.2490 -0.0276  0.7784
  967SOL    HW1 3190   0.910   2.387   2.101  0.6366  0.9553 -1.6535
  967SOL    HW2 3191   0.907   2.532   2.176 -0.0330 -0.0595  0.3621
  968SOL     OW 3192   1.380   4.273   2.824 -0.0676 -0.3917 -0.4929
  968SOL    HW1 3193   1.448   4.201   2.838 -0.7408 -0.4527  3.6438
  968SOL    HW2 3194   1.419   4.362   2.847 -1.1128 -0.3593  1.3576
  969SOL     OW 3195   2.903   2.026   2.220 -0.3463  0.0652 -0.0383
  969SOL    HW1 3196   2.860   2.084   2.288 -0.7136 -1.7623  1.3656
  969SOL    HW2 3197   2.979   1.976   2.262 -1.8372 -2.6464 -0.3015
  970SOL     OW 3198   0.748   4.464   3.044  0.3615 -0.0255 -0.2563
  970SOL    HW1 3199   0.680   4.393   3.026  0.1092  0.4096 -1.0893
  970SOL    HW2 3200   0.818   4.429   3.107  0.0142 -0.8654 -0.3268
  971SOL     OW 3201   0.651   2.326   1.669 -0.5485 -0.1381  0.5312
  971SOL    HW1 3202   0.649   2.301   1.766  1.8730 -2.1792  0.1539
  971SOL    HW2 3203   0.715   2.402   1.656 -1.3135  0.5278  0.5689
  972SOL     OW 3204   2.096   2.829   1.321  0.8181 -0.6955 -0.0945
  972SOL    HW1 3205   2.013   2.778   1.297  0.6746 -0.0732 -0.9716
  972SOL    HW2 3206   2.173   2.791   1.270  0.7777 -0.2868 -0.4667
  973SOL     OW 3207   0.833   3.533   3.247  0.0297  0.1661 -0.2554
  973SOL    HW1 3208   0.793   3.515   3.336 -0.6457 -0.8062 -0.7280
  973SOL    HW2 3209   0.916   3.477   3.235  0.4056  0.6736 -0.0491
  974SOL     OW 3210   0.859   3.238   1.682 -0.3818  0.5813 -0.1541
  974SOL    HW1 3211   0.864   3.167   1.611 -1.2024 -0.4020  0.7423
  974SOL    HW2 3212   0.915   3.211   1.760 -3.6114 -1.0620  1.8046
  975SOL     OW 3213   0.849   2.790   4.027  0.3208  0.1781  0.5495
  975SOL    HW1 3214   0.750   2.797   4.024  0.0633 -2.3526  0.7163
  975SOL    HW2 3215   0.879   2.774   4.121  1.1363  2.9070  0.8364
  976SOL     OW 3216   2.377   3.462   3.020 -0.1561  0.4764 -0.1148
  976SOL    HW1 3217   2.314   3.468   2.942 -0.0415 -0.2628 -0.2647
  976SOL    HW2 3218   2.373   3.548   3.072  0.2869  1.2455 -1.3228
  977SOL     OW 3219   1.066   3.771   2.443 -0.1404 -0.3816  0.3253
  977SOL    HW1 3220   0.969   3.756   2.462 -0.1334 -0.8529  0.0276
  977SOL    HW2 3221   1.105   3.831   2.513 -0.4271 -0.9452  0.9853
  978SOL     OW 3222   0.942   2.825   2.338  0.2539 -0.6475 -0.3257
  978SOL    HW1 3223   1.041   2.812   2.336  0.3640  0.2483 -1.1460
  978SOL    HW2 3224   0.920   2.919   2.315 -0.7088 -0.3207  1.6620
  979SOL     OW 3225   5.797   4.083   3.957 -0.1180  0.5484  0.3431
  979SOL    HW1 3226   5.807   4.005   3.895  0.7888  1.9347 -1.3344
  979SOL    HW2 3227   5.885   4.103   4.000  0.1575  1.8191 -0.7533
  980SOL     OW 3228   1.149   4.189   2.926  0.3582 -0.0485  0.0491
  980SOL    HW1 3229   1.163   4.097   2.962  1.8525 -0.6712 -1.9364
  980SOL    HW2 3230   1.237   4.228   2.898 -0.2621  1.9571  0.7094
  981SOL     OW 3231   5.718   2.930   2.406  0.1429  0.1051  0.5070
  981SOL    HW1 3232   5.627   2.896   2.429  0.5477 -0.5688  1.1556
  981SOL    HW2 3233   5.718   2.965   2.312 -1.5728  2.9406  1.4332
  982SOL     OW 3234   2.342   2.554   1.801 -0.0210 -0.4370 -0.1513
  982SOL    HW1 3235   2.351   2.570   1.703  1.8699  0.6697  0.1333
  982SOL    HW2 3236   2.293   2.631   1.843  1.2987  0.3383  0.0456
  983SOL     OW 3237   1.459   1.919   2.739 -0.2157  0.2543 -0.3387
  983SOL    HW1 3238   1.483   1.915   2.642  1.2015  0.0775 -0.0040
  983SOL    HW2 3239   1.477   2.010   2.775 -1.7378  0.6277 -0.4652
  984SOL     OW 3240   1.606   1.919   3.791 -0.2555  0.1546 -0.1531
  984SOL    HW1 3241   1.545   1.972   3.732  0.0145  0.8897  0.2224
  984SOL    HW2 3242   1.556   1.887   3.871 -0.0629  1.0814  0.3459
  985SOL     OW 3243   0.223   2.277   2.621 -0.1995  0.0146  0.0957
  985SOL    HW1 3244   0.215   2.186   2.581 -0.8482 -0.4748  1.3069
  985SOL    HW2 3245   0.150   2.335   2.586 -0.5055 -0.2841  0.2367
  986SOL     OW 3246   0.931   1.397   2.831  0.1951  0.1428  0.4259
  986SOL    HW1 3247   0.987   1.369   2.754 -1.8537 -3.1883 -0.0891
  986SOL    HW2 3248   0.840   1.423   2.798  0.0095  0.9983  1.5553
  987SOL     OW 3249   5.149   3.112   3.963 -0.2322 -0.6646  0.1388
  987SOL    HW1 3250   5.075   3.048   3.988  0.5246 -2.0429 -1.0130
  987SOL    HW2 3251   5.230   3.091   4.017 -0.4516  0.4030  0.9084
  988SOL     OW 3252   5.906   2.400   1.988 -0.0656  0.4747 -0.7099
  988SOL    HW1 3253   5.894   2.438   1.896 -3.6513 -0.1960 -0.6439
  988SOL    HW2 3254   5.896   2.472   2.056  0.1932  0.5660 -0.7667
  989SOL     OW 3255   0.751   2.381   3.849  0.0234 -0.2521  0.0281
  989SOL    HW1 3256   0.814   2.304   3.839 -1.5277 -1.6234  0.3802
  989SOL    HW2 3257   0.688   2.382   3.771 -1.7967 -1.1399  1.4176
  990SOL     OW 3258   2.172   2.736   2.421 -0.1167 -0.2172 -0.3655
  990SOL    HW1 3259   2.183   2.639   2.441  0.7567 -0.2714 -1.0560
  990SOL    HW2 3260   2.075   2.755   2.403 -0.4192 -0.7862  0.5686
  991SOL     OW 3261   0.288   1.489   2.626  0.1355  0.1468  0.1113
  991SOL    HW1 3262   0.299   1.407   2.569 -0.6770  0.5469 -0.6452
  991SOL    HW2 3263   0.309   1.467   2.721  2.3964 -0.3214 -0.4532
  992SOL     OW 3264   0.262   2.781   1.582  0.0960  0.1544 -0.4477
  992SOL    HW1 3265   0.277   2.747   1.489  2.3942  1.4659 -0.6288
  992SOL    HW2 3266   0.291   2.876   1.587  0.1163  0.0701  1.6562
  993SOL     OW 3267   1.227   2.967   3.960  0.0735 -0.2624  0.4546
  993SOL    HW1 3268   1.132   2.986   3.985  0.1402  0.2569  0.3247
  993SOL    HW2 3269   1.234   2.876   3.919 -0.8461  0.7358 -2.1342
  994SOL     OW 3270   0.659   2.765   2.709 -0.1308  0.6822  0.0097
  994SOL    HW1 3271   0.673   2.777   2.807  3.1601  2.2753 -0.5242
  994SOL    HW2 3272   0.747   2.755   2.663 -1.4821  1.1301 -2.9392
  995SOL     OW 3273   0.815   3.245   2.391  0.1629 -0.2848 -0.9691
  995SOL    HW1 3274   0.872   3.192   2.330  0.9615 -0.3829 -0.1627
  995SOL    HW2 3275   0.840   3.226   2.486 -0.8567  0.0662 -0.6102
  996SOL     OW 3276   1.233   3.424   2.706  0.3909 -0.3458 -0.6858
  996SOL    HW1 3277   1.248   3.516   2.742  0.0675 -0.0053 -1.4038
  996SOL    HW2 3278   1.276   3.357   2.766 -1.1813  0.1030  1.0146
  997SOL     OW 3279   1.402   2.023   2.048  0.0131  0.1984 -0.1122
  997SOL    HW1 3280   1.384   1.930   2.015 -0.0758 -0.8994  2.7149
  997SOL    HW2 3281   1.321   2.080   2.034 -0.1577 -0.3040 -1.3029
  998SOL     OW 3282   1.302   1.798   1.975 -0.0548  0.6602 -0.8530
  998SOL    HW1 3283   1.223   1.810   1.915 -0.0039  0.7680 -0.8985
  998SOL    HW2 3284   1.271   1.792   2.070 -0.2475 -0.7140 -0.9828
  999SOL     OW 3285   0.723   2.568   4.324 -0.0591 -0.1291  0.6760
  999SOL    HW1 3286   0.795   2.637   4.321  0.2073 -0.3453  1.6534
  999SOL    HW2 3287   0.732   2.505   4.247  1.3506 -0.6871  1.2622
 1000SOL     OW 3288   0.276   1.719   1.939 -0.1549  0.4298 -0.3189
 1000SOL    HW1 3289   0.239   1.809   1.920 -0.5023 -0.0930 -2.2938
 1000SOL    HW2 3290   0.202   1.652   1.940  0.3086 -0.1031 -0.7857
 1001SOL     OW 3291   1.055   1.394   2.597 -0.6451 -0.8403 -0.6981
 1001SOL    HW1 3292   1.039   1.416   2.501 -0.6422  0.1193 -0.4990
 1001SOL    HW2 3293   1.114   1.464   2.637 -0.6317 -1.2395 -0.0064
 1002SOL     OW 3294   0.445   3.378   2.387  0.1259 -0.4951 -0.0285
 1002SOL    HW1 3295   0.522   3.440   2.399 -0.3699  0.3635 -1.1005
 1002SOL    HW2 3296   0.471   3.285   2.414  1.0881  0.0398  0.9523
 1003SOL     OW 3297   1.928   2.474   2.759  0.2871 -0.4652 -0.5578
 1003SOL    HW1 3298   1.914   2.437   2.668  0.4550  0.6155 -1.0385
 1003SOL    HW2 3299   1.846   2.524   2.788  0.2621 -0.7397 -0.1497
 1004SOL     OW 3300   0.888   1.398   1.683 -0.0914 -0.6186 -0.1503
 1004SOL    HW1 3301   0.816   1.464   1.707 -0.0004  0.4085 -2.5106
 1004SOL    HW2 3302   0.848   1.324   1.630  0.2458 -1.1701  0.3599
 1005SOL     OW 3303   1.004   3.724   2.933 -0.1363 -0.0063 -0.6192
 1005SOL    HW1 3304   0.978   3.636   2.895  0.2164 -0.0399 -0.7828
 1005SOL    HW2 3305   0.939   3.794   2.903  0.7141  0.1656 -2.1515
 1006SOL     OW 3306   0.817   3.954   2.987  0.1282 -0.5645 -0.4399
 1006SOL    HW1 3307   0.829   4.040   2.936  0.3795 -0.2237  0.1874
 1006SOL    HW2 3308   0.721   3.942   3.010 -0.1279 -1.1364 -1.7025
 1007SOL     OW 3309   0.925   2.753   2.596 -0.0265 -0.2535 -0.0049
 1007SOL    HW1 3310   0.961   2.824   2.656 -1.3746  0.7402 -0.3188
 1007SOL    HW2 3311   0.924   2.786   2.502  0.9158 -1.3418 -0.4275
 1008SOL     OW 3312   0.109   3.114   1.899 -0.4584  0.3478  0.5239
 1008SOL    HW1 3313   0.190   3.087   1.951 -1.3712  0.0929  1.8656
 1008SOL    HW2 3314   0.052   3.033   1.883 -1.5734  0.8885  1.6337
 1009SOL     OW 3315   0.187   3.735   3.602 -0.1876 -0.2702 -0.2334
 1009SOL    HW1 3316   0.195   3.716   3.504  2.1778  0.2595 -0.2068
 1009SOL    HW2 3317   0.139   3.822   3.615 -2.2895 -1.2858 -0.7813
 1010SOL     OW 3318   0.395   2.672   2.678  0.1763 -0.8450 -0.5625
 1010SOL    HW1 3319   0.492   2.694   2.673  0.4356 -1.4469  1.0749
 1010SOL    HW2 3320   0.379   2.607   2.753 -1.4870 -0.7383 -0.7742
 1011SOL     OW 3321   1.304   2.626   3.589  0.1899 -0.2195 -0.0756
 1011SOL    HW1 3322   1.376   2.695   3.592 -0.9620  1.1148 -1.5740
 1011SOL    HW2 3323   1.218   2.667   3.621 -0.9083 -0.3491 -2.5941
 1012SOL     OW 3324   1.793   2.997   3.504  0.9731  1.0259  0.0059
 1012SOL    HW1 3325   1.867   2.959   3.560  0.2223  0.8069  0.8741
 1012SOL    HW2 3326   1.832   3.049   3.428  2.0147  0.7210  0.3131
 1013SOL     OW 3327   1.103   2.198   2.931 -0.8093 -0.2077  0.1582
 1013SOL    HW1 3328   1.062   2.145   2.857 -1.4810 -0.3098  0.5996
 1013SOL    HW2 3329   1.176   2.145   2.974 -1.4601 -0.7669  0.5800
 1014SOL     OW 3330   0.020   2.575   2.966 -0.4973  0.4658 -0.6227
 1014SOL    HW1 3331   0.038   2.662   2.919  0.2869  0.5915 -0.1022
 1014SOL    HW2 3332  -0.042   2.590   3.043  1.2457  0.9725  0.7588
 1015SOL     OW 3333   5.859   3.978   4.604  0.1650 -0.3902  0.1918
 1015SOL    HW1 3334   5.952   4.012   4.593  0.4284 -0.9253  0.7444
 1015SOL    HW2 3335   5.816   3.971   4.513  0.2870  0.8530  0.0181
 1016SOL     OW 3336   0.787   2.016   1.948 -1.0947 -0.6458  0.2501
 1016SOL    HW1 3337   0.802   1.920   1.975  2.1125 -0.2632  0.2994
 1016SOL    HW2 3338   0.844   2.037   1.868  0.5379  1.8965  1.9325
 1017SOL     OW 3339   5.960   2.883   3.118  0.1723  0.3351 -0.1763
 1017SOL    HW1 3340   5.878   2.918   3.071  0.8858  0.8353 -1.0740
 1017SOL    HW2 3341   6.040   2.935   3.089  1.1677 -1.5693 -1.0416
 1018SOL     OW 3342   0.810   1.755   2.053 -0.1579  0.4965 -0.0122
 1018SOL    HW1 3343   0.786   1.663   2.021  0.4855  0.8473 -1.6295
 1018SOL    HW2 3344   0.906   1.756   2.080 -0.4049  0.4879  0.9002
 1019SOL     OW 3345   1.684   3.646   3.290 -0.0542 -0.6905 -0.1867
 1019SOL    HW1 3346   1.604   3.704   3.274 -0.6229 -1.4123 -0.0109
 1019SOL    HW2 3347   1.662   3.552   3.263  0.1459 -1.2390  1.5047
 1020SOL     OW 3348   0.247   3.787   1.884  0.3004  0.1078 -0.4480
 1020SOL    HW1 3349   0.247   3.824   1.791  0.1280  0.6292 -0.2464
 1020SOL    HW2 3350   0.303   3.846   1.943 -2.0306  1.5408  0.4488
 1021SOL     OW 3351   5.966   3.294   3.550  0.0895  0.5184 -0.8887
 1021SOL    HW1 3352   6.032   3.220   3.562  1.2749  1.3637 -1.8806
 1021SOL    HW2 3353   5.942   3.332   3.639  0.5398 -0.1521 -0.4715
 1022SOL     OW 3354   2.447   3.154   2.497  0.0561  0.6040  0.0045
 1022SOL    HW1 3355   2.511   3.215   2.543  0.4869 -0.2075  0.5057
 1022SOL    HW2 3356   2.353   3.179   2.523  0.1979  1.3255 -0.1496
 1023SOL     OW 3357   0.992   3.124   2.210  0.5772  0.4883  0.5096
 1023SOL    HW1 3358   1.064   3.074   2.162 -0.7181 -1.0309  0.0883
 1023SOL    HW2 3359   1.003   3.222   2.193  2.1573  0.2486 -0.0589
 1024SOL     OW 3360   0.083   3.194   0.546  0.1873  0.6347 -0.2269
 1024SOL    HW1 3361   0.130   3.223   0.629 -0.2798 -1.9318  1.0391
 1024SOL    HW2 3362   0.084   3.094   0.540 -1.4632  0.6641 -2.3404
 1025SOL     OW 3363   1.266   2.189   3.374  0.1256 -0.3240 -0.2040
 1025SOL    HW1 3364   1.174   2.218   3.346  0.0959 -0.3708 -0.1536
 1025SOL    HW2 3365   1.317   2.269   3.406  0.4911 -0.0971 -1.3154
 1026SOL     OW 3366   5.808   3.479   2.306 -0.5983  0.6034 -0.4084
 1026SOL    HW1 3367   5.753   3.395   2.309  0.4800 -0.0901  1.3798
 1026SOL    HW2 3368   5.747   3.558   2.301 -1.6472 -0.2355 -1.7601
 1027SOL     OW 3369   0.659   1.668   3.327 -0.2195 -0.0403  0.8458
 1027SOL    HW1 3370   0.744   1.720   3.338  0.9054 -1.5062 -0.4621
 1027SOL    HW2 3371   0.614   1.696   3.242  0.1911 -0.9186  0.3347
 1028SOL     OW 3372   1.646   1.825   3.452  0.2466  0.2438 -0.0327
 1028SOL    HW1 3373   1.653   1.923   3.471 -1.2964  0.3672 -0.0140
 1028SOL    HW2 3374   1.676   1.773   3.532 -2.6583  0.7432  1.4989
 1029SOL     OW 3375   0.379   1.494   5.351  0.1624  0.1596 -0.3514
 1029SOL    HW1 3376   0.308   1.435   5.389 -0.1436  0.2653 -0.7554
 1029SOL    HW2 3377   0.446   1.439   5.301  0.0068  0.1297 -0.5266
 1030SOL     OW 3378   1.039   3.258   1.901  0.3097 -0.1768  0.0989
 1030SOL    HW1 3379   1.097   3.339   1.912  1.3179 -0.7611 -0.7215
 1030SOL    HW2 3380   0.967   3.259   1.970 -1.4235  2.8420 -1.5546
 1031SOL     OW 3381   1.294   2.282   2.446 -0.4088 -0.1249  0.1067
 1031SOL    HW1 3382   1.210   2.256   2.397 -0.0775 -1.8207  0.3667
 1031SOL    HW2 3383   1.371   2.231   2.408  0.1730 -0.0331  1.1356
 1032SOL     OW 3384   1.440   3.032   0.949 -0.1480  0.0058  0.2216
 1032SOL    HW1 3385   1.469   3.119   0.988 -2.0373  0.4995  0.6634
 1032SOL    HW2 3386   1.495   2.957   0.986 -0.4830  0.6962  2.2321
 1033SOL     OW 3387   0.705   2.101   2.335 -0.0746  0.4214 -0.5139
 1033SOL    HW1 3388   0.691   2.010   2.296 -1.1569  0.3056  0.1185
 1033SOL    HW2 3389   0.616   2.144   2.352  0.3967  0.9253  0.7745
 1034SOL     OW 3390   5.406   3.249   3.731  0.3161  0.6031 -0.1323
 1034SOL    HW1 3391   5.328   3.311   3.737 -0.1295  0.0205  0.2253
 1034SOL    HW2 3392   5.480   3.284   3.788 -0.5847 -0.1017  1.5597
 1035SOL     OW 3393   1.452   2.805   2.255  0.4703 -0.4329  0.0934
 1035SOL    HW1 3394   1.458   2.706   2.245  0.7712 -0.5281  1.0276
 1035SOL    HW2 3395   1.541   2.846   2.234  0.0617 -0.2454 -1.3264
 1036SOL     OW 3396   5.378   2.412   2.334  0.4290 -0.1150 -0.1620
 1036SOL    HW1 3397   5.343   2.356   2.409 -2.8577  1.3116 -0.4307
 1036SOL    HW2 3398   5.364   2.509   2.356  0.6792  0.3852 -2.0292
 1037SOL     OW 3399   2.661   2.488   2.236 -0.3001  0.6288 -0.4361
 1037SOL    HW1 3400   2.645   2.563   2.301 -1.3586  0.9251 -1.0096
 1037SOL    HW2 3401   2.682   2.526   2.146 -0.9089  0.2368 -0.7457
 1038SOL     OW 3402   0.254   2.952   2.299 -0.0722 -0.1562 -0.2177
 1038SOL    HW1 3403   0.237   2.953   2.397  1.3845 -0.0259  0.0495
 1038SOL    HW2 3404   0.280   3.044   2.268 -1.3055 -0.0059 -0.8901
 1039SOL     OW 3405   1.754   4.375   4.865 -0.0195  0.1864 -0.0341
 1039SOL    HW1 3406   1.806   4.290   4.873  0.4692  0.5108  0.2658
 1039SOL    HW2 3407   1.674   4.370   4.925 -0.1987 -0.2059 -0.2969
 1040SOL     OW 3408   1.080   2.702   3.677 -0.5330  0.3163 -0.7734
 1040SOL    HW1 3409   1.010   2.669   3.740  0.7762 -0.9660  0.0761
 1040SOL    HW2 3410   1.085   2.802   3.683 -0.8655  0.2745  0.6979
 1041SOL     OW 3411   1.791   3.725   4.052 -0.3783  0.4296  0.3104
 1041SOL    HW1 3412   1.802   3.815   4.009  1.7430  0.9769  1.7904
 1041SOL    HW2 3413   1.759   3.659   3.985  0.2464  1.8040 -1.4150
 1042SOL     OW 3414   0.246   2.014   2.501 -0.2941  0.1427 -0.5838
 1042SOL    HW1 3415   0.165   1.992   2.447 -1.0164 -0.8618  0.8205
 1042SOL    HW2 3416   0.259   1.943   2.570  1.6246  0.4526 -0.5847
 1043SOL     OW 3417   2.418   2.502   2.094  0.4118 -0.0177  0.5854
 1043SOL    HW1 3418   2.414   2.513   1.995  0.1932  0.3722  0.6372
 1043SOL    HW2 3419   2.507   2.465   2.120  0.8684  0.8716  0.3355
 1044SOL     OW 3420   0.636   2.712   1.848  0.0414  0.1712 -0.0204
 1044SOL    HW1 3421   0.723   2.690   1.802  0.2044 -0.1565  0.4393
 1044SOL    HW2 3422   0.654   2.741   1.942 -0.2325  1.5444 -0.3603
 1045SOL     OW 3423   5.984   3.285   3.121  0.0078 -0.0487 -0.2424
 1045SOL    HW1 3424   5.969   3.344   3.201  0.8418 -2.3126  1.7135
 1045SOL    HW2 3425   5.914   3.214   3.120  1.0830 -1.1311 -0.4358
 1046SOL     OW 3426   4.323   2.349   3.639 -0.0539  0.0676  0.2359
 1046SOL    HW1 3427   4.348   2.367   3.734  0.3974 -0.4257  0.2134
 1046SOL    HW2 3428   4.404   2.319   3.588 -0.1048  1.1408 -0.5109
 1047SOL     OW 3429   2.634   1.998   2.394  0.6293  0.4870 -0.2184
 1047SOL    HW1 3430   2.645   1.944   2.478 -0.9917 -2.2445 -1.6130
 1047SOL    HW2 3431   2.671   2.090   2.409 -0.1636  0.3785  3.6784
 1048SOL     OW 3432   1.235   1.991   3.946 -0.5272 -0.6069  0.4093
 1048SOL    HW1 3433   1.146   2.014   3.906 -0.2482  0.5435  0.4058
 1048SOL    HW2 3434   1.230   2.000   4.046 -0.2914 -0.0510  0.3754
 1049SOL     OW 3435   5.624   4.172   3.673 -0.0923 -0.0408  0.0199
 1049SOL    HW1 3436   5.553   4.115   3.715  0.1742 -1.6766 -1.6116
 1049SOL    HW2 3437   5.701   4.182   3.735 -1.9127  2.3372  2.1195
 1050SOL     OW 3438   5.542   4.161   3.333 -0.0132  0.2655 -0.6311
 1050SOL    HW1 3439   5.492   4.120   3.409 -0.3720  0.5633 -0.7060
 1050SOL    HW2 3440   5.566   4.255   3.355  0.3637  0.1802 -0.6655
 1051SOL     OW 3441   0.472   3.342   1.875  0.5134  0.0603  0.2800
 1051SOL    HW1 3442   0.434   3.251   1.886 -0.2620  0.2780 -0.4171
 1051SOL    HW2 3443   0.414   3.408   1.923 -1.1723  0.6317 -2.2976
 1052SOL     OW 3444   1.774   1.213   2.680  0.0667 -0.0523 -0.1341
 1052SOL    HW1 3445   1.745   1.130   2.634 -1.0014  0.1869  0.0909
 1052SOL    HW2 3446   1.874   1.219   2.677  0.2029 -1.5985  0.2914
 1053SOL     OW 3447   0.222   2.114   3.088 -0.0182 -0.5602  0.0611
 1053SOL    HW1 3448   0.266   2.114   3.178  0.4819  1.3802 -0.1357
 1053SOL    HW2 3449   0.127   2.086   3.098  0.1684 -0.8706  1.1225
 1054SOL     OW 3450   0.896   2.595   3.833 -0.5997  0.0395 -0.1329
 1054SOL    HW1 3451   0.888   2.658   3.911  0.0057 -0.1545  0.0906
 1054SOL    HW2 3452   0.833   2.519   3.845 -0.0166 -0.3496  0.5192
 1055SOL     OW 3453   1.306   3.279   2.938 -0.2029 -0.4147  0.0091
 1055SOL    HW1 3454   1.293   3.194   2.989  2.7825 -1.1359 -0.2734
 1055SOL    HW2 3455   1.219   3.329   2.934 -1.4060 -2.1244  2.4876
 1056SOL     OW 3456   0.446   2.164   2.377  0.0900 -0.0923 -0.1290
 1056SOL    HW1 3457   0.386   2.108   2.433  0.1266 -0.0100 -0.0082
 1056SOL    HW2 3458   0.455   2.255   2.418 -1.2610  0.5367 -1.1393
 1057SOL     OW 3459   1.029   2.314   2.380  0.4781  0.6334 -0.6899
 1057SOL    HW1 3460   1.015   2.393   2.440 -2.2876  1.7984 -2.6776
 1057SOL    HW2 3461   1.027   2.344   2.284  1.1098 -1.6619 -1.4827
 1058SOL     OW 3462   0.758   4.033   3.547  0.4754 -0.0217  0.4225
 1058SOL    HW1 3463   0.837   3.978   3.521 -0.2052  0.0669 -2.1432
 1058SOL    HW2 3464   0.773   4.074   3.637  2.7112 -1.1116  0.6065
 1059SOL     OW 3465   5.723   1.893   2.118 -0.1177  0.1461 -0.5208
 1059SOL    HW1 3466   5.741   1.882   2.216 -0.4283  0.8765 -0.3720
 1059SOL    HW2 3467   5.625   1.885   2.102 -0.0064 -0.6118 -0.8721
 1060SOL     OW 3468   1.438   4.273   4.185  0.2474  0.6961  0.4254
 1060SOL    HW1 3469   1.508   4.204   4.203 -0.4816  0.1036  1.0958
 1060SOL    HW2 3470   1.442   4.343   4.256  1.3926  1.7123 -0.5947
 1061SOL     OW 3471   0.239   1.705   1.232 -0.2957 -0.2017 -0.0596
 1061SOL    HW1 3472   0.181   1.625   1.246 -0.8019  0.1425 -0.1534
 1061SOL    HW2 3473   0.249   1.723   1.134 -0.4202  0.0172 -0.0335
 1062SOL     OW 3474   1.503   3.260   3.683  0.2210 -0.5883  0.2627
 1062SOL    HW1 3475   1.485   3.358   3.692  0.5302 -0.4630 -0.4575
 1062SOL    HW2 3476   1.600   3.241   3.699  0.0909 -0.8386  0.8083
 1063SOL     OW 3477   0.485   2.997   1.775  0.1626  0.0414  0.2101
 1063SOL    HW1 3478   0.424   3.005   1.696  1.5584 -1.6376 -1.1245
 1063SOL    HW2 3479   0.567   2.947   1.748  1.0422  0.1121  2.5661
 1064SOL     OW 3480   0.543   3.120   2.429 -0.2481  0.1868 -0.0929
 1064SOL    HW1 3481   0.634   3.156   2.450 -0.6220  1.1319 -0.0563
 1064SOL    HW2 3482   0.519   3.050   2.496 -1.0777  2.5707  2.2684
 1065SOL     OW 3483   3.209   5.069   3.232 -0.3001 -0.4836  0.1419
 1065SOL    HW1 3484   3.186   4.972   3.233  0.5766 -0.6951  1.0452
 1065SOL    HW2 3485   3.163   5.116   3.308 -1.0877 -0.0994 -0.5640
 1066SOL     OW 3486   0.578   3.126   3.110  1.2946 -0.3461  0.2890
 1066SOL    HW1 3487   0.520   3.053   3.073  0.9476  0.5010 -0.8776
 1066SOL    HW2 3488   0.593   3.110   3.208  0.5971 -1.5587  0.2173
 1067SOL     OW 3489   0.199   3.426   2.511  0.2392 -0.3092 -0.3254
 1067SOL    HW1 3490   0.289   3.427   2.467 -0.0365 -2.1031 -1.0188
 1067SOL    HW2 3491   0.174   3.331   2.533 -0.8395  0.3003  1.2309
 1068SOL     OW 3492   5.521   3.507   4.605 -0.8184 -0.5443  0.2758
 1068SOL    HW1 3493   5.572   3.543   4.527 -1.8432  0.3055 -0.0308
 1068SOL    HW2 3494   5.500   3.410   4.589 -0.8685 -0.4231 -0.4259
 1069SOL     OW 3495   1.195   0.512   2.567  0.4276 -0.0671 -0.7612
 1069SOL    HW1 3496   1.228   0.568   2.642  0.9228 -0.8919 -0.3422
 1069SOL    HW2 3497   1.234   0.420   2.575 -0.2531 -0.4313 -1.5017
 1070SOL     OW 3498   0.825   3.708   2.533  0.2713 -0.2488 -0.2761
 1070SOL    HW1 3499   0.807   3.798   2.572 -0.9403  0.0847 -1.4870
 1070SOL    HW2 3500   0.745   3.678   2.481  1.0881 -1.5108 -0.8640
 1071SOL     OW 3501   0.160   4.631   4.150  0.3339  0.0918 -0.4019
 1071SOL    HW1 3502   0.183   4.674   4.063  2.1889  0.5053  0.2328
 1071SOL    HW2 3503   0.210   4.678   4.224 -0.0020 -1.2037  0.6879
 1072SOL     OW 3504   0.274   3.237   2.224 -0.4855 -0.0210  0.0576
 1072SOL    HW1 3505   0.324   3.219   2.139  1.1837 -2.1934  1.4035
 1072SOL    HW2 3506   0.326   3.302   2.280 -0.4167 -0.3760  0.4067
 1073SOL     OW 3507   5.629   2.587   3.440 -0.5709  0.0941  0.1576
 1073SOL    HW1 3508   5.532   2.608   3.443 -0.4854  0.3925  1.0184
 1073SOL    HW2 3509   5.666   2.584   3.533  0.2009 -0.2134 -0.1470
 1074SOL     OW 3510   0.844   3.474   0.656  0.1595  0.5503  0.0292
 1074SOL    HW1 3511   0.810   3.549   0.600  0.3738  0.2786 -0.4698
 1074SOL    HW2 3512   0.932   3.442   0.620 -0.3012 -0.4598 -0.2309
 1075SOL     OW 3513   1.902   3.320   3.025  0.2169 -0.1367  0.6683
 1075SOL    HW1 3514   1.921   3.236   3.076  0.6090 -2.2591 -2.6323
 1075SOL    HW2 3515   1.806   3.321   2.998  0.1235  0.6910  1.0177
 1076SOL     OW 3516   2.741   2.420   1.246 -0.4285 -0.6026 -0.2282
 1076SOL    HW1 3517   2.765   2.404   1.342 -1.8942 -0.3664  0.1959
 1076SOL    HW2 3518   2.815   2.471   1.202  0.1017 -0.3745  0.8776
 1077SOL     OW 3519   0.582   1.546   2.529  0.0910  0.3656  0.4932
 1077SOL    HW1 3520   0.595   1.644   2.518 -0.3229  0.2852 -0.8707
 1077SOL    HW2 3521   0.484   1.527   2.543  0.1542  0.1407  0.6309
 1078SOL     OW 3522   1.684   3.658   2.518  0.0022 -0.2415  0.1642
 1078SOL    HW1 3523   1.694   3.650   2.419  1.5533 -0.6598  0.3387
 1078SOL    HW2 3524   1.726   3.579   2.562 -0.3732  0.1142  1.1751
 1079SOL     OW 3525   1.578   3.257   2.938  0.9124  0.2186  0.7752
 1079SOL    HW1 3526   1.478   3.250   2.939  1.0041 -1.8140  0.6709
 1079SOL    HW2 3527   1.609   3.287   2.848  0.4127  0.2112  0.5968
 1080SOL     OW 3528   5.456   2.924   2.122 -0.8404  0.5420  0.5752
 1080SOL    HW1 3529   5.508   2.868   2.058 -0.1367 -0.6123  2.1091
 1080SOL    HW2 3530   5.359   2.920   2.097 -0.5767  0.1816 -0.4568
 1081SOL     OW 3531   3.233   3.113   1.025  0.0865  1.5163 -0.1743
 1081SOL    HW1 3532   3.310   3.071   0.977 -1.1598  1.0075 -1.8154
 1081SOL    HW2 3533   3.177   3.041   1.068  0.1147  1.8237  0.3852
 1082SOL     OW 3534   5.815   3.913   3.457  0.5158  0.1933 -0.3469
 1082SOL    HW1 3535   5.873   3.887   3.380 -0.5450  2.6193 -2.1225
 1082SOL    HW2 3536   5.740   3.847   3.466  1.1219 -0.5831 -0.8253
 1083SOL     OW 3537   1.297   2.795   3.334 -0.2640  0.0168  0.1567
 1083SOL    HW1 3538   1.207   2.840   3.336 -1.3184 -1.9861  1.3101
 1083SOL    HW2 3539   1.287   2.704   3.294  0.8955 -0.8823  1.8111
 1084SOL     OW 3540   0.439   2.226   3.728  0.1933 -0.1690 -0.4174
 1084SOL    HW1 3541   0.481   2.140   3.700  1.1945 -0.6348  2.2089
 1084SOL    HW2 3542   0.492   2.303   3.692  1.1489 -0.7022 -0.1529
 1085SOL     OW 3543   1.496   1.255   2.569 -0.4530  0.6163 -0.3229
 1085SOL    HW1 3544   1.594   1.257   2.590 -0.8026  2.6736  1.3427
 1085SOL    HW2 3545   1.447   1.213   2.645 -0.9304 -0.1612 -1.0384
 1086SOL     OW 3546   0.721   2.828   2.949 -0.4917 -0.0235 -0.3981
 1086SOL    HW1 3547   0.756   2.794   3.036 -0.8696  0.4519 -0.0605
 1086SOL    HW2 3548   0.628   2.862   2.961 -0.6281 -0.1552 -1.0352
 1087SOL     OW 3549   1.623   2.184   3.371 -0.5787  0.0001 -0.0480
 1087SOL    HW1 3550   1.634   2.134   3.285  0.5501  0.3112 -0.1017
 1087SOL    HW2 3551   1.609   2.281   3.353 -1.1918 -0.0552  0.1028
 1088SOL     OW 3552   0.629   3.024   2.681  0.4846  0.3644  0.0447
 1088SOL    HW1 3553   0.633   2.924   2.687 -1.7690  0.2195 -0.1874
 1088SOL    HW2 3554   0.719   3.058   2.654  2.0551 -1.3493  2.6700
 1089SOL     OW 3555   0.241   2.881   2.590 -0.1438  0.2198  0.0593
 1089SOL    HW1 3556   0.298   2.799   2.599 -1.3082 -0.5935  0.3099
 1089SOL    HW2 3557   0.145   2.854   2.582 -0.6318  1.5916  0.8836
 1090SOL     OW 3558   0.210   2.553   3.857  0.2754 -0.2752 -0.0656
 1090SOL    HW1 3559   0.208   2.573   3.759  1.8214 -1.5107 -0.3812
 1090SOL    HW2 3560   0.177   2.633   3.908  0.1083  0.6379 -1.5469
 1091SOL     OW 3561  -0.033   1.465   2.706 -0.4411 -0.1153 -0.0980
 1091SOL    HW1 3562  -0.019   1.534   2.777 -0.1310  0.6241 -0.8453
 1091SOL    HW2 3563   0.055   1.421   2.685 -0.7179 -1.0519  0.6777
 1092SOL     OW 3564   0.198   2.633   3.590  0.0537  0.2424 -0.3509
 1092SOL    HW1 3565   0.137   2.712   3.600 -0.7155 -0.2725 -0.8598
 1092SOL    HW2 3566   0.185   2.592   3.500  0.7306 -0.2323 -0.2356
 1093SOL     OW 3567   5.221   2.929   2.849 -0.2088  0.4285 -0.0290
 1093SOL    HW1 3568   5.224   2.962   2.944 -0.0582  0.5831 -0.0870
 1093SOL    HW2 3569   5.135   2.880   2.834 -0.1349  0.2138  0.2488
 1094SOL     OW 3570   0.914   3.741   1.936  0.0507 -0.4184  0.0648
 1094SOL    HW1 3571   0.950   3.834   1.945  0.6772 -0.7892  1.8190
 1094SOL    HW2 3572   0.956   3.697   1.856 -1.3765  1.2470 -1.6901
 1095SOL     OW 3573   0.158   1.677   2.296  0.1282  0.4286 -0.0209
 1095SOL    HW1 3574   0.094   1.661   2.220 -0.2879  1.0412  0.1902
 1095SOL    HW2 3575   0.248   1.641   2.272 -0.0812  0.3254 -0.6731
 1096SOL     OW 3576   1.468   3.540   3.690  0.0057  0.0492 -0.1134
 1096SOL    HW1 3577   1.509   3.627   3.718 -0.1673  0.5187 -1.2373
 1096SOL    HW2 3578   1.403   3.557   3.615  1.9155 -1.3191 -2.2035
 1097SOL     OW 3579   0.996   2.000   2.761 -0.1838 -0.0696  0.0479
 1097SOL    HW1 3580   0.968   2.018   2.667 -0.6853  0.2238  0.2502
 1097SOL    HW2 3581   1.068   1.930   2.762  0.0411  0.1468 -0.5724
 1098SOL     OW 3582   1.462   2.049   3.597  0.0604  0.1749 -0.0754
 1098SOL    HW1 3583   1.508   2.106   3.529  0.2980 -0.4605 -0.4498
 1098SOL    HW2 3584   1.390   1.996   3.553 -1.9089  2.0632  0.6942
 1099SOL     OW 3585   5.907   5.860   3.464 -0.3210 -0.5974  0.5965
 1099SOL    HW1 3586   5.959   5.944   3.455  1.2336 -1.4389  1.2739
 1099SOL    HW2 3587   5.883   5.826   3.373  2.7384 -1.5833  0.0529
 1100SOL     OW 3588   1.657   2.433   3.061  0.1929 -0.1831  0.0529
 1100SOL    HW1 3589   1.564   2.398   3.055 -1.2395  3.1464  0.4962
 1100SOL    HW2 3590   1.673   2.472   3.151 -0.0812  4.0630 -1.4669
 1101SOL     OW 3591   0.397   1.291   2.394  0.1295 -0.1108  0.2094
 1101SOL    HW1 3592   0.298   1.279   2.384 -0.2154  2.5140 -0.2318
 1101SOL    HW2 3593   0.433   1.341   2.315  0.7184  3.9088  2.7016
 1102SOL     OW 3594   0.177   3.065   3.088 -0.1085  0.2356  0.3642
 1102SOL    HW1 3595   0.133   3.150   3.115 -0.7587 -0.5024  1.7205
 1102SOL    HW2 3596   0.183   3.060   2.989 -0.8662  1.4501  0.2460
 1103SOL     OW 3597   1.709   2.776   3.350  0.6742  0.7139  0.0800
 1103SOL    HW1 3598   1.689   2.801   3.255  0.0883  0.0431  0.0122
 1103SOL    HW2 3599   1.741   2.856   3.400 -0.7040  1.4902 -0.2344
 1104SOL     OW 3600   1.265   1.593   2.361 -0.5934 -0.2953 -0.2656
 1104SOL    HW1 3601   1.317   1.581   2.445  0.7166 -2.4686 -1.3173
 1104SOL    HW2 3602   1.204   1.515   2.348 -0.4041 -0.2482 -1.5734
 1105SOL     OW 3603   0.591   3.134   3.380 -0.7309  0.1109  0.3458
 1105SOL    HW1 3604   0.548   3.221   3.405  0.2900  0.6031  0.4650
 1105SOL    HW2 3605   0.678   3.125   3.428 -1.1793 -1.3542  0.9318
 1106SOL     OW 3606   1.695   3.669   2.991  0.1387  0.5276 -0.1672
 1106SOL    HW1 3607   1.704   3.662   3.090  1.6232 -1.4284 -0.3828
 1106SOL    HW2 3608   1.781   3.641   2.947 -1.5324 -2.0659 -2.0706
 1107SOL     OW 3609   1.818   3.592   1.367 -0.2472  0.2093 -0.2721
 1107SOL    HW1 3610   1.901   3.648   1.372 -0.5029  0.5419  0.4605
 1107SOL    HW2 3611   1.827   3.513   1.427 -1.1869  1.2690  1.3494
 1108SOL     OW 3612   0.446   3.029   1.063 -0.4960 -0.9905  0.2776
 1108SOL    HW1 3613   0.378   2.959   1.081 -0.7004 -0.7691  0.3718
 1108SOL    HW2 3614   0.482   3.017   0.970 -2.4743  0.3705 -0.7372
 1109SOL     OW 3615   1.820   2.810   1.695 -0.4112 -0.3456 -0.0466
 1109SOL    HW1 3616   1.721   2.826   1.697 -0.4752 -0.7430  1.5537
 1109SOL    HW2 3617   1.842   2.743   1.625 -1.0914  0.7183 -1.3460
 1110SOL     OW 3618   5.631   4.688   3.624 -0.0801  0.2384  0.0605
 1110SOL    HW1 3619   5.615   4.591   3.608  1.1149  0.2136 -1.1429
 1110SOL    HW2 3620   5.705   4.699   3.691 -0.2522  0.3253  0.2388
 1111SOL     OW 3621   0.802   2.716   3.422 -0.6430 -0.1430  0.1975
 1111SOL    HW1 3622   0.723   2.671   3.379 -0.9577  0.0156  0.6063
 1111SOL    HW2 3623   0.773   2.761   3.506 -0.2517  0.4738  0.0128
 1112SOL     OW 3624   0.757   4.784   2.844 -0.1750 -0.1791 -0.4668
 1112SOL    HW1 3625   0.811   4.861   2.812  1.5852 -1.4199 -0.6356
 1112SOL    HW2 3626   0.752   4.785   2.944  1.4386 -0.8211 -0.3523
 1113SOL     OW 3627   2.518   3.582   2.583  0.0059  0.2580 -0.2839
 1113SOL    HW1 3628   2.472   3.590   2.495 -0.7722  0.9885  0.1732
 1113SOL    HW2 3629   2.572   3.498   2.585 -0.7468 -0.2597 -1.0931
 1114SOL     OW 3630   5.964   1.452   2.213  0.2035  0.2786 -0.6554
 1114SOL    HW1 3631   5.927   1.508   2.287 -0.0641  0.1787 -0.7099
 1114SOL    HW2 3632   5.958   1.356   2.239 -0.4283  0.2061 -1.0359
 1115SOL     OW 3633   1.460   2.974   3.143  0.0736 -0.1992  0.0211
 1115SOL    HW1 3634   1.431   2.930   3.228  0.1196 -1.9039 -0.8078
 1115SOL    HW2 3635   1.529   2.917   3.098 -1.5262 -0.4714 -2.2387
 1116SOL     OW 3636   5.202   1.810   2.021  0.0306 -0.5142  0.0251
 1116SOL    HW1 3637   5.126   1.864   1.985 -0.2251  0.7399  2.2851
 1116SOL    HW2 3638   5.166   1.729   2.069  0.3608 -2.0741 -2.2028
 1117SOL     OW 3639   0.800   3.371   2.870  0.1858  0.0429 -0.2366
 1117SOL    HW1 3640   0.735   3.427   2.923  0.3293 -0.9302  1.0379
 1117SOL    HW2 3641   0.856   3.430   2.812  0.1935  1.2061  0.9051
 1118SOL     OW 3642   1.479   1.606   4.718  0.4323 -0.2790  0.0630
 1118SOL    HW1 3643   1.476   1.706   4.716 -1.2648 -0.2316  1.8430
 1118SOL    HW2 3644   1.566   1.575   4.682  0.7559  1.8055 -1.1274
 1119SOL     OW 3645   1.195   1.964   4.229 -0.7063  0.1118 -0.0649
 1119SOL    HW1 3646   1.238   1.923   4.310 -2.1190  0.1581  0.7470
 1119SOL    HW2 3647   1.169   2.058   4.251 -0.7267  0.2605 -0.7210
 1120SOL     OW 3648   1.001   2.930   1.830 -0.0299 -0.7483  0.1986
 1120SOL    HW1 3649   0.962   2.899   1.916  0.4647 -0.8785  0.3781
 1120SOL    HW2 3650   1.053   3.014   1.844  0.5988 -1.1195  0.1600
 1121SOL     OW 3651   5.898   2.891   1.961 -0.5940  0.1608 -0.0543
 1121SOL    HW1 3652   5.929   2.818   1.900 -1.0239  0.6971 -0.9362
 1121SOL    HW2 3653   5.940   2.879   2.051 -0.3809 -0.9656 -0.2838
 1122SOL     OW 3654   5.361   1.471   1.166  0.2634 -0.3660 -0.5923
 1122SOL    HW1 3655   5.343   1.569   1.159 -3.0337 -0.7312  1.0564
 1122SOL    HW2 3656   5.458   1.457   1.185  1.0682  2.4544 -1.9951
 1123SOL     OW 3657   1.523   3.097   1.695 -0.1995  0.2443 -0.0049
 1123SOL    HW1 3658   1.587   3.140   1.758  0.4064  0.0705 -0.4963
 1123SOL    HW2 3659   1.446   3.159   1.678 -0.2434  0.3898  0.7033
 1124SOL     OW 3660   1.373   2.453   3.417  0.3260 -0.3509  0.3899
 1124SOL    HW1 3661   1.352   2.535   3.471 -4.9047 -2.4228  2.1569
 1124SOL    HW2 3662   1.325   2.458   3.330  1.7084 -0.7366 -0.4268
 1125SOL     OW 3663   1.029   3.393   2.189  0.2101  0.0646 -0.1475
 1125SOL    HW1 3664   0.953   3.447   2.155  1.0912  1.6713  0.3413
 1125SOL    HW2 3665   1.093   3.451   2.239  0.1987 -1.7765  2.2039
 1126SOL     OW 3666   0.981   2.093   1.763  0.2346 -0.8588  0.1088
 1126SOL    HW1 3667   0.936   2.132   1.683  1.2536  0.2578  0.0604
 1126SOL    HW2 3668   1.067   2.049   1.735  1.6730  1.3383  0.7821
 1127SOL     OW 3669   1.628   2.336   3.893  0.0872 -0.7591 -0.2455
 1127SOL    HW1 3670   1.531   2.317   3.878 -0.1765  0.2561  0.0661
 1127SOL    HW2 3671   1.641   2.371   3.986  0.8914 -1.7364  0.0276
 1128SOL     OW 3672   5.024   2.690   5.218  0.2727  0.0873  0.2814
 1128SOL    HW1 3673   5.057   2.703   5.312  1.4493  1.2031 -0.2504
 1128SOL    HW2 3674   5.075   2.751   5.156 -0.9647 -0.1162 -0.9863
 1129SOL     OW 3675   0.216   2.751   4.449  0.5265  1.0228  0.3211
 1129SOL    HW1 3676   0.133   2.801   4.422 -0.8530 -1.0121  0.5799
 1129SOL    HW2 3677   0.204   2.713   4.540  1.2676 -0.2705 -0.0967
 1130SOL     OW 3678   0.333   3.562   4.189 -0.6697  0.3758  0.2283
 1130SOL    HW1 3679   0.328   3.543   4.091  1.2697 -0.8039  0.3094
 1130SOL    HW2 3680   0.340   3.661   4.203  1.1176  0.4592 -0.9689
 1131SOL     OW 3681   2.709   3.195   4.021 -0.2483  0.3251 -0.0816
 1131SOL    HW1 3682   2.691   3.144   4.105 -2.4648 -0.8942 -1.1963
 1131SOL    HW2 3683   2.747   3.133   3.952  0.3912  1.0207 -0.3581
 1132SOL     OW 3684   0.761   3.085   4.774 -0.2636 -0.2118  0.3857
 1132SOL    HW1 3685   0.760   3.185   4.780 -0.6360 -0.2048  0.2359
 1132SOL    HW2 3686   0.826   3.057   4.704 -1.0701 -0.0207 -0.4627
 1133SOL     OW 3687   0.724   3.456   3.489 -0.2180  0.3574 -0.0711
 1133SOL    HW1 3688   0.771   3.435   3.574 -0.3483 -1.6435 -0.4341
 1133SOL    HW2 3689   0.636   3.408   3.486  0.2439 -0.4916 -1.7281
 1134SOL     OW 3690   0.766   2.293   4.492  0.0511 -0.0932 -0.0075
 1134SOL    HW1 3691   0.708   2.257   4.566  0.4965  0.8104  0.7996
 1134SOL    HW2 3692   0.720   2.367   4.445 -0.5215 -1.1208 -1.1286
 1135SOL     OW 3693   0.095   2.767   3.955 -0.1326 -0.4646  0.2567
 1135SOL    HW1 3694   0.013   2.782   4.010  0.3204  0.8068  0.5993
 1135SOL    HW2 3695   0.175   2.799   4.004  0.5276 -1.2014 -0.3070
 1136SOL     OW 3696   1.910   2.286   5.548 -0.1764  0.0259 -0.2242
 1136SOL    HW1 3697   1.917   2.302   5.647  0.5735 -0.5595 -0.1778
 1136SOL    HW2 3698   1.886   2.191   5.531 -1.6675  0.4456 -0.5821
 1137SOL     OW 3699   5.385   2.820   4.028 -0.3398  0.4629  0.5315
 1137SOL    HW1 3700   5.431   2.843   3.942  1.0452 -0.6281  0.9423
 1137SOL    HW2 3701   5.354   2.904   4.073 -3.3343  0.9738 -2.1524
 1138SOL     OW 3702   1.541   2.383   4.398 -0.2299 -0.4041 -0.2201
 1138SOL    HW1 3703   1.484   2.306   4.429 -0.8665  0.2237  0.2074
 1138SOL    HW2 3704   1.628   2.382   4.448  0.1605 -1.3804 -0.8869
 1139SOL     OW 3705   5.515   2.150   5.231  0.5668  0.2908  0.2949
 1139SOL    HW1 3706   5.609   2.183   5.236  0.4291  0.7397 -0.0475
 1139SOL    HW2 3707   5.472   2.183   5.147  0.5321 -1.0519 -0.2464
 1140SOL     OW 3708   1.268   1.103   3.259  0.4249  0.0429 -0.1158
 1140SOL    HW1 3709   1.339   1.032   3.256 -0.1133 -0.5591  0.7898
 1140SOL    HW2 3710   1.202   1.089   3.186  0.3841 -0.3338 -0.0084
 1141SOL     OW 3711   0.452   3.694   3.682  0.4325  0.2204 -0.5219
 1141SOL    HW1 3712   0.356   3.705   3.659  0.1937  0.2963  0.4726
 1141SOL    HW2 3713   0.508   3.716   3.602 -0.3862 -0.2948 -1.2540
 1142SOL     OW 3714   0.125   2.749   5.055  0.0088 -0.4230  0.5260
 1142SOL    HW1 3715   0.109   2.822   4.989  0.1777  0.2496  1.2136
 1142SOL    HW2 3716   0.166   2.670   5.008 -1.6818 -0.7194 -0.5231
 1143SOL     OW 3717   5.181   2.956   3.639  0.2490 -0.0833 -0.5446
 1143SOL    HW1 3718   5.154   3.025   3.572 -0.1311  1.7465  1.3895
 1143SOL    HW2 3719   5.169   2.992   3.731 -0.9493 -3.1043  0.6353
 1144SOL     OW 3720   4.971   3.281   5.110  0.0075 -0.0592 -0.2139
 1144SOL    HW1 3721   4.901   3.246   5.047  1.5104  0.5644 -2.3142
 1144SOL    HW2 3722   5.050   3.220   5.108 -0.1627 -0.3871  1.6322
 1145SOL     OW 3723   5.946   3.446   4.824 -0.1750 -0.4219  0.2121
 1145SOL    HW1 3724   6.015   3.446   4.897  0.7005 -1.3106 -0.5913
 1145SOL    HW2 3725   5.860   3.484   4.860  0.6229  0.4179  1.3164
 1146SOL     OW 3726   0.717   2.370   4.145  0.2762 -0.1892  0.1869
 1146SOL    HW1 3727   0.743   2.286   4.193 -0.4392 -0.0716  0.8023
 1146SOL    HW2 3728   0.733   2.359   4.047 -1.7868 -1.8507 -0.0270
 1147SOL     OW 3729   0.406   2.303   4.575 -0.2433 -0.3128 -0.4499
 1147SOL    HW1 3730   0.329   2.345   4.526 -0.4810 -1.3410 -0.9684
 1147SOL    HW2 3731   0.373   2.230   4.634  0.0304  0.9445  1.3407
 1148SOL     OW 3732   0.231   2.910   4.170  0.3840 -0.6777  0.3794
 1148SOL    HW1 3733   0.321   2.885   4.207  0.8260  1.3215  0.7569
 1148SOL    HW2 3734   0.160   2.876   4.231  0.9319 -1.0258  0.8430
 1149SOL     OW 3735   2.134   4.269   4.074  0.0560 -0.1672 -0.7831
 1149SOL    HW1 3736   2.036   4.274   4.060 -0.0969 -1.4879 -0.3220
 1149SOL    HW2 3737   2.177   4.225   3.995  0.1442 -0.5294 -0.5358
 1150SOL     OW 3738   5.128   3.677   3.445  0.2746  0.0696 -0.3319
 1150SOL    HW1 3739   5.136   3.628   3.531  0.2582 -3.3603 -2.0963
 1150SOL    HW2 3740   5.087   3.617   3.376 -1.0064  3.0959 -2.4269
 1151SOL     OW 3741   0.177   3.419   5.016  0.6369  0.5237 -0.0493
 1151SOL    HW1 3742   0.149   3.374   5.100  1.3706  1.0786  0.4966
 1151SOL    HW2 3743   0.248   3.366   4.970  1.0130  0.7661  0.2450
 1152SOL     OW 3744   5.944   3.491   5.407 -0.3089 -0.2311 -0.2806
 1152SOL    HW1 3745   5.917   3.576   5.362 -0.3907 -0.6282 -0.9839
 1152SOL    HW2 3746   5.887   3.477   5.488 -0.3543  0.3331 -0.2074
 1153SOL     OW 3747   4.631   4.231   3.967  0.4286 -0.0692 -0.1829
 1153SOL    HW1 3748   4.534   4.222   3.947  0.2035  1.2901  0.1670
 1153SOL    HW2 3749   4.678   4.267   3.886  0.4617  0.1903 -0.0516
 1154SOL     OW 3750   0.327   2.328   3.962 -0.0041 -0.1681  0.7617
 1154SOL    HW1 3751   0.377   2.291   3.884  0.6541  0.3471  0.9290
 1154SOL    HW2 3752   0.294   2.420   3.940 -0.0030 -0.1079  1.0054
 1155SOL     OW 3753   1.059   2.074   5.148  0.8095 -0.2672 -0.7005
 1155SOL    HW1 3754   1.103   2.164   5.145 -2.8206  1.7749  0.1061
 1155SOL    HW2 3755   0.961   2.085   5.133 -0.5127 -3.5015  3.5690
 1156SOL     OW 3756   0.631   2.580   2.494  0.3854  0.2654  0.4952
 1156SOL    HW1 3757   0.581   2.497   2.471  0.7379  0.7855 -2.5465
 1156SOL    HW2 3758   0.613   2.604   2.589 -2.7637 -1.1753  0.4026
 1157SOL     OW 3759   2.348   2.566   4.531 -0.1137  0.6607 -0.2190
 1157SOL    HW1 3760   2.380   2.471   4.539 -0.1685  0.7897  1.8464
 1157SOL    HW2 3761   2.251   2.570   4.553  0.0969  1.3221  0.6145
 1158SOL     OW 3762   5.735   1.466   0.099  0.2470 -0.2041 -0.0697
 1158SOL    HW1 3763   5.723   1.495   0.194  2.0621  0.8014 -0.1024
 1158SOL    HW2 3764   5.806   1.396   0.094 -0.4775 -0.9213 -0.5988
 1159SOL     OW 3765   0.438   3.777   4.917 -0.3243 -0.8889 -0.6846
 1159SOL    HW1 3766   0.387   3.742   4.995 -0.5710  0.6744 -0.1137
 1159SOL    HW2 3767   0.378   3.833   4.860  0.2911 -0.5769 -1.0420
 1160SOL     OW 3768   1.450   2.680   4.708  0.4546 -0.2419  0.6513
 1160SOL    HW1 3769   1.469   2.694   4.611  2.5651  1.4778  1.2194
 1160SOL    HW2 3770   1.436   2.769   4.752 -1.8431 -1.0665  1.7291
 1161SOL     OW 3771   1.337   2.708   4.042  0.1903 -0.2729 -0.0466
 1161SOL    HW1 3772   1.329   2.628   3.982 -0.5559 -0.6599  0.5442
 1161SOL    HW2 3773   1.303   2.684   4.133 -0.9771  0.9978 -0.1259
 1162SOL     OW 3774   1.391   2.960   4.717 -0.1190 -0.0316 -0.2195
 1162SOL    HW1 3775   1.297   2.973   4.750  0.0593  0.5307  0.0743
 1162SOL    HW2 3776   1.416   3.036   4.658  0.2061 -0.1077 -0.1804
 1163SOL     OW 3777   1.080   2.957   3.261  0.1547  0.3782  0.2723
 1163SOL    HW1 3778   0.981   2.959   3.280  0.2650  0.9268  0.8191
 1163SOL    HW2 3779   1.126   3.024   3.318  0.9207 -0.2478  0.4028
 1164SOL     OW 3780   0.269   2.549   5.591  0.2556 -0.5152  0.5417
 1164SOL    HW1 3781   0.181   2.585   5.561 -0.1604 -1.5909  0.4209
 1164SOL    HW2 3782   0.263   2.450   5.602  1.6585 -0.7086 -0.1761
 1165SOL     OW 3783   0.353   2.879   0.043  1.1836  0.0377  0.3253
 1165SOL    HW1 3784   0.259   2.845   0.045  0.8621  0.6894 -1.3906
 1165SOL    HW2 3785   0.415   2.806   0.072  0.2158 -0.6333  0.7936
 1166SOL     OW 3786   0.357   1.998   5.111  0.2339 -0.5761 -0.1166
 1166SOL    HW1 3787   0.410   1.916   5.089  1.1885  0.1889 -0.7375
 1166SOL    HW2 3788   0.261   1.982   5.089  0.2933 -1.7394  0.3654
 1167SOL     OW 3789   0.283   1.865   4.256 -0.0251  0.0457 -0.0820
 1167SOL    HW1 3790   0.221   1.803   4.208 -1.7064  1.4599  0.1521
 1167SOL    HW2 3791   0.311   1.823   4.342 -1.4197 -0.2827  0.2404
 1168SOL     OW 3792   0.856   3.251   4.181  0.1479 -0.0210 -0.6635
 1168SOL    HW1 3793   0.940   3.258   4.234 -0.5402  0.0570  0.4722
 1168SOL    HW2 3794   0.795   3.184   4.225  0.1404 -1.0895 -2.2215
 1169SOL     OW 3795   5.535   2.857   4.450  0.1290 -0.5127 -0.0552
 1169SOL    HW1 3796   5.450   2.805   4.444 -0.1484 -0.1350  0.4557
 1169SOL    HW2 3797   5.553   2.903   4.363 -1.0836  0.7515  0.3187
 1170SOL     OW 3798   4.673   4.466   4.817  0.2204  0.3951 -0.6705
 1170SOL    HW1 3799   4.699   4.374   4.848  0.2398 -0.1295 -2.1691
 1170SOL    HW2 3800   4.610   4.458   4.740 -2.2166  1.6406  1.0674
 1171SOL     OW 3801   1.144   2.236   4.273 -0.0131 -0.3894 -0.0286
 1171SOL    HW1 3802   1.090   2.269   4.350 -1.4248  0.2345 -1.2524
 1171SOL    HW2 3803   1.132   2.297   4.195  1.3716 -1.0220 -0.7684
 1172SOL     OW 3804   0.955   2.187   5.493 -0.2349  0.0825 -0.0552
 1172SOL    HW1 3805   0.928   2.091   5.506  0.9391 -0.2689 -0.0651
 1172SOL    HW2 3806   1.053   2.191   5.474 -0.3062  1.2848 -0.2216
 1173SOL     OW 3807   0.644   3.157   3.895 -0.3130  0.0088  0.1069
 1173SOL    HW1 3808   0.612   3.117   3.981 -2.0460 -0.1882 -0.6055
 1173SOL    HW2 3809   0.673   3.251   3.911 -1.1310  0.1492  0.8122
 1174SOL     OW 3810   0.014   1.894   3.951  0.0496 -0.1631  0.9880
 1174SOL    HW1 3811   0.074   1.899   3.872 -0.3675  1.7214  0.7489
 1174SOL    HW2 3812  -0.078   1.923   3.925 -0.1810  0.1297  2.0713
 1175SOL     OW 3813   2.057   3.430   3.780 -0.9069 -0.2603  1.0563
 1175SOL    HW1 3814   2.089   3.419   3.874  0.7011 -0.2628  0.5334
 1175SOL    HW2 3815   2.080   3.348   3.728 -0.0961  0.4880  0.2072
 1176SOL     OW 3816   5.069   3.548   4.599  0.3531 -0.1772  0.0225
 1176SOL    HW1 3817   5.035   3.640   4.619  0.3533 -0.1361 -0.1648
 1176SOL    HW2 3818   5.032   3.483   4.665 -1.6101 -0.4669 -1.2806
 1177SOL     OW 3819   0.969   2.515   4.865  0.2899 -0.1384 -0.3217
 1177SOL    HW1 3820   1.013   2.549   4.948  2.2324 -1.4474 -0.7479
 1177SOL    HW2 3821   0.913   2.436   4.887 -1.0713  0.8892  0.0549
 1178SOL     OW 3822   0.790   2.623   4.683  0.9988 -0.2134 -0.1781
 1178SOL    HW1 3823   0.856   2.595   4.753 -0.0916  0.9915  1.3960
 1178SOL    HW2 3824   0.709   2.564   4.689 -0.2588  1.5840  1.4890
 1179SOL     OW 3825   0.325   3.442   3.339 -0.3603  0.4356 -0.2737
 1179SOL    HW1 3826   0.345   3.538   3.354  0.9220  0.2409 -0.6043
 1179SOL    HW2 3827   0.226   3.428   3.333 -0.5197  1.8682 -1.2381
 1180SOL     OW 3828   2.437   2.306   4.575 -0.3606 -0.8945 -0.4612
 1180SOL    HW1 3829   2.521   2.270   4.615  1.8217  0.7761 -3.1564
 1180SOL    HW2 3830   2.435   2.286   4.477 -1.0460  2.3728 -1.2636
 1181SOL     OW 3831   5.486   4.043   5.074  0.3092 -0.0108 -0.1813
 1181SOL    HW1 3832   5.507   4.047   5.172  1.8928  0.4794 -0.5027
 1181SOL    HW2 3833   5.572   4.042   5.023 -0.4735  1.8700 -1.6329
 1182SOL     OW 3834   1.304   3.615   3.456  0.1181  0.3924  0.5536
 1182SOL    HW1 3835   1.379   3.673   3.426  0.7492 -0.6657  0.0580
 1182SOL    HW2 3836   1.297   3.535   3.397 -3.5203  2.0359 -1.5764
 1183SOL     OW 3837   5.387   2.277   5.002 -0.1704  0.1940 -0.5111
 1183SOL    HW1 3838   5.424   2.277   4.908 -1.6883 -0.5315 -1.1348
 1183SOL    HW2 3839   5.422   2.357   5.051  1.6209 -0.0646 -1.2918
 1184SOL     OW 3840   1.756   2.796   4.305 -0.0925 -0.3229  0.1247
 1184SOL    HW1 3841   1.836   2.821   4.251 -0.9684 -0.1620 -1.1338
 1184SOL    HW2 3842   1.747   2.859   4.382 -0.6767  1.5481 -1.4129
 1185SOL     OW 3843   1.027   3.347   3.226 -0.1828  0.2262 -0.1213
 1185SOL    HW1 3844   0.975   3.290   3.163  0.3143 -1.1854  0.6871
 1185SOL    HW2 3845   1.005   3.322   3.320 -0.4482  1.8593  0.2820
 1186SOL     OW 3846   2.038   1.717   4.446 -0.3605 -0.6545 -0.3495
 1186SOL    HW1 3847   2.137   1.713   4.451 -0.2108  1.7897  0.0498
 1186SOL    HW2 3848   2.008   1.711   4.351  0.4213  1.3442 -0.7761
 1187SOL     OW 3849   4.697   2.809   3.248 -0.1323 -0.5842  0.1961
 1187SOL    HW1 3850   4.654   2.750   3.316  0.1858  1.4945  2.3380
 1187SOL    HW2 3851   4.649   2.897   3.244  0.5983 -0.2099 -1.4381
 1188SOL     OW 3852   1.406   3.051   4.206  0.2878  0.2639  0.2190
 1188SOL    HW1 3853   1.330   3.031   4.145  1.7463 -2.3255 -0.9429
 1188SOL    HW2 3854   1.385   3.019   4.298 -0.9662  1.9327  0.5515
 1189SOL     OW 3855   5.028   4.113   3.701 -0.0088  0.0634 -0.5669
 1189SOL    HW1 3856   5.048   4.054   3.623  1.2577 -0.9882  0.5063
 1189SOL    HW2 3857   4.994   4.058   3.777  2.5428  0.3974  0.9388
 1190SOL     OW 3858   1.682   1.879   5.724  0.3629 -0.1977  0.1922
 1190SOL    HW1 3859   1.646   1.789   5.697 -0.3030  0.1139  0.0048
 1190SOL    HW2 3860   1.736   1.870   5.807  0.8841 -0.8821 -0.2150
 1191SOL     OW 3861   0.038   3.388   4.588 -0.3381  0.3398 -0.3446
 1191SOL    HW1 3862   0.127   3.343   4.589 -0.6614 -0.3045 -0.2580
 1191SOL    HW2 3863   0.003   3.395   4.682  0.7780  2.9582 -0.0228
 1192SOL     OW 3864   1.219   1.485   5.687  0.1371 -0.2877 -0.2159
 1192SOL    HW1 3865   1.250   1.572   5.725  0.4695 -1.0460  1.3695
 1192SOL    HW2 3866   1.294   1.419   5.689 -0.0448 -0.5718 -1.6096
 1193SOL     OW 3867   0.116   2.728   5.791 -0.8198  0.0873  0.3567
 1193SOL    HW1 3868   0.196   2.783   5.769 -1.1586  0.4423 -0.0071
 1193SOL    HW2 3869   0.112   2.715   5.890  0.4002 -1.0509  0.2803
 1194SOL     OW 3870   0.839   3.107   3.477 -0.1008 -0.2486 -0.5287
 1194SOL    HW1 3871   0.846   3.066   3.569  0.6401 -0.4660 -0.6742
 1194SOL    HW2 3872   0.915   3.170   3.463 -0.7829  0.5711 -0.6199
 1195SOL     OW 3873   5.341   3.060   4.167 -0.1310 -0.1509  0.1336
 1195SOL    HW1 3874   5.430   3.101   4.184  0.1574 -0.6560 -0.1275
 1195SOL    HW2 3875   5.285   3.065   4.250  0.2880 -0.1963  0.4213
 1196SOL     OW 3876   0.717   1.594   4.918  0.0961 -0.1035  0.2851
 1196SOL    HW1 3877   0.692   1.681   4.875 -2.2689 -0.5149  0.6810
 1196SOL    HW2 3878   0.663   1.582   5.002  2.6972 -0.5222  2.0257
 1197SOL     OW 3879   0.590   1.977   3.694  0.1012  0.4443 -0.1302
 1197SOL    HW1 3880   0.604   2.019   3.784 -1.1624  1.2947 -0.3016
 1197SOL    HW2 3881   0.678   1.962   3.650  0.7697 -0.3709  1.4121
 1198SOL     OW 3882   1.382   2.226   3.790 -0.0958 -0.5333 -0.6155
 1198SOL    HW1 3883   1.319   2.161   3.833  0.8978 -0.6867  0.6554
 1198SOL    HW2 3884   1.436   2.180   3.720  1.2010 -1.3146  0.8590
 1199SOL     OW 3885   0.613   3.534   4.264  0.2002 -0.5437 -0.4583
 1199SOL    HW1 3886   0.526   3.508   4.222 -0.4724  0.7597  0.0539
 1199SOL    HW2 3887   0.681   3.551   4.193 -0.6604  0.7448 -1.0012
 1200SOL     OW 3888   2.058   2.242   4.879  0.3167  0.8357  0.8020
 1200SOL    HW1 3889   2.072   2.167   4.944  1.3142  1.0869  0.8946
 1200SOL    HW2 3890   2.147   2.277   4.848 -0.1205  0.0449 -1.5104
 1201SOL     OW 3891   5.948   2.923   0.523  0.2972 -0.4704  0.1738
 1201SOL    HW1 3892   5.897   2.839   0.504  0.4602 -0.7119  0.7900
 1201SOL    HW2 3893   6.035   2.922   0.474  0.3178 -0.6762  0.2157
 1202SOL     OW 3894   0.178   4.860   3.308 -0.6851  0.3468  0.6817
 1202SOL    HW1 3895   0.256   4.799   3.323 -2.0292 -1.2962  1.2950
 1202SOL    HW2 3896   0.189   4.907   3.221  0.9825  0.1377  0.7547
 1203SOL     OW 3897   0.864   2.978   5.177 -0.2393  0.2341 -0.2691
 1203SOL    HW1 3898   0.915   3.064   5.181  0.1479  0.0345 -0.9079
 1203SOL    HW2 3899   0.766   2.997   5.179 -0.1530  0.6453  0.4434
 1204SOL     OW 3900   1.979   3.478   4.906  0.1301 -0.2272  0.2067
 1204SOL    HW1 3901   1.920   3.423   4.848  0.5585  0.9614 -1.4179
 1204SOL    HW2 3902   1.923   3.543   4.958 -0.2268 -1.0918  0.9250
 1205SOL     OW 3903   0.888   1.870   3.386  0.1122  0.2556 -0.9604
 1205SOL    HW1 3904   0.967   1.808   3.392 -0.3317 -0.1738  1.3185
 1205SOL    HW2 3905   0.902   1.933   3.310  2.9941  0.6291 -0.2434
 1206SOL     OW 3906   5.085   1.335   5.484 -0.4157 -0.5810 -1.0194
 1206SOL    HW1 3907   5.130   1.417   5.519 -2.1255 -0.5197  1.2537
 1206SOL    HW2 3908   5.014   1.361   5.419 -0.3157 -0.3250 -1.0269
 1207SOL     OW 3909   0.083   2.382   5.163  0.1105  0.4989 -0.1312
 1207SOL    HW1 3910   0.070   2.287   5.192 -2.5507  1.1737  1.1860
 1207SOL    HW2 3911   0.002   2.412   5.112  1.1121  1.9404 -0.9423
 1208SOL     OW 3912   5.288   2.727   4.390  0.0430 -0.2803 -0.1375
 1208SOL    HW1 3913   5.343   2.661   4.338  0.4111 -0.0577 -0.0350
 1208SOL    HW2 3914   5.202   2.684   4.418  0.5264 -0.9098  0.4146
 1209SOL     OW 3915   1.178   0.464   4.561 -0.2872 -0.0548  0.0982
 1209SOL    HW1 3916   1.174   0.406   4.642 -0.1081  1.0781  0.9430
 1209SOL    HW2 3917   1.251   0.432   4.501 -0.6116 -1.0818  0.2261
 1210SOL     OW 3918   0.405   2.902   3.827  0.6425 -0.2054  1.2323
 1210SOL    HW1 3919   0.437   2.876   3.918  0.0625 -1.9774  0.9738
 1210SOL    HW2 3920   0.429   2.830   3.762 -0.3893  0.2664  0.2979
 1211SOL     OW 3921   1.818   1.702   3.279 -0.0467  0.2135 -0.3850
 1211SOL    HW1 3922   1.758   1.747   3.345 -1.1838 -0.5057 -0.9006
 1211SOL    HW2 3923   1.903   1.754   3.271  1.4778 -1.1753  3.8247
 1212SOL     OW 3924   2.000   2.845   4.203  0.2825  0.2119 -0.1741
 1212SOL    HW1 3925   2.077   2.895   4.242 -0.4988  2.2302 -1.0976
 1212SOL    HW2 3926   1.944   2.907   4.148 -3.3735 -0.5669  2.3236
 1213SOL     OW 3927   5.719   3.788   4.093  0.1783  0.3823 -0.9944
 1213SOL    HW1 3928   5.818   3.782   4.081  0.2402  0.7774 -0.7134
 1213SOL    HW2 3929   5.697   3.872   4.142 -0.1597 -0.5997  0.6105
 1214SOL     OW 3930   1.228   2.292   4.670  0.0106 -0.0191 -0.0870
 1214SOL    HW1 3931   1.282   2.258   4.593  1.4879  2.3857 -0.2443
 1214SOL    HW2 3932   1.290   2.324   4.742 -1.3162 -0.2800  1.2147
 1215SOL     OW 3933   1.649   1.439   2.790 -0.2239  0.6492 -0.1884
 1215SOL    HW1 3934   1.693   1.364   2.742 -0.0733  0.5904  0.0426
 1215SOL    HW2 3935   1.574   1.404   2.846  1.7219  0.2232  2.3278
 1216SOL     OW 3936   1.372   1.880   4.447  0.0821 -0.5846  0.0082
 1216SOL    HW1 3937   1.413   1.792   4.421  0.0654 -0.4997 -0.3122
 1216SOL    HW2 3938   1.344   1.877   4.543 -1.0923 -1.3778 -0.3356
 1217SOL     OW 3939   1.445   2.760   5.088 -0.7304  0.6464  0.6607
 1217SOL    HW1 3940   1.525   2.701   5.100 -0.6255  0.7369  0.4099
 1217SOL    HW2 3941   1.370   2.707   5.050  0.4533  1.3955 -3.1442
 1218SOL     OW 3942   5.176   3.284   4.712 -0.1236 -0.4883 -0.3698
 1218SOL    HW1 3943   5.183   3.306   4.809 -0.4535 -0.3756 -0.3710
 1218SOL    HW2 3944   5.267   3.284   4.671 -0.0198 -0.1661 -0.1423
 1219SOL     OW 3945   1.625   1.555   5.414  0.3314  0.4709 -0.0147
 1219SOL    HW1 3946   1.560   1.627   5.437  0.5995 -0.0050  2.4869
 1219SOL    HW2 3947   1.581   1.488   5.354 -0.8979  1.0788  0.1847
 1220SOL     OW 3948   0.603   3.170   4.421 -0.3633  0.3834  0.2492
 1220SOL    HW1 3949   0.538   3.107   4.464 -0.8780  0.8475  0.1611
 1220SOL    HW2 3950   0.588   3.263   4.456  1.3249  0.2443  1.4392
 1221SOL     OW 3951   1.477   3.173   4.578  0.7596 -0.0145 -0.1659
 1221SOL    HW1 3952   1.488   3.244   4.647  2.1129 -0.1878 -0.1632
 1221SOL    HW2 3953   1.465   3.214   4.488  0.5175  0.2173 -0.0266
 1222SOL     OW 3954   0.445   2.424   4.197 -0.5703 -1.2047 -0.2895
 1222SOL    HW1 3955   0.404   2.389   4.113 -0.7933  0.3071 -0.8442
 1222SOL    HW2 3956   0.545   2.415   4.192 -0.5593 -0.8076 -0.8766
 1223SOL     OW 3957   5.687   1.957   0.047  0.6543 -0.0460 -0.4750
 1223SOL    HW1 3958   5.645   1.994  -0.036 -0.5500 -0.8876 -0.2650
 1223SOL    HW2 3959   5.619   1.950   0.119  1.4459 -0.3269  0.2670
 1224SOL     OW 3960   0.027   2.804   3.698  0.5220  0.3141  0.0183
 1224SOL    HW1 3961   0.064   2.776   3.787  1.9817 -1.4513 -1.0624
 1224SOL    HW2 3962  -0.073   2.797   3.700  0.5682 -0.3561  1.3124
 1225SOL     OW 3963   0.180   2.144   5.506  0.5900 -0.4382  0.1003
 1225SOL    HW1 3964   0.124   2.066   5.476  1.5865 -0.4804 -1.8423
 1225SOL    HW2 3965   0.120   2.220   5.532 -0.3838 -1.1772  0.0574
 1226SOL     OW 3966   0.661   1.821   4.743  0.4263 -0.4351  0.1218
 1226SOL    HW1 3967   0.640   1.915   4.717 -0.2655 -0.2720  1.1937
 1226SOL    HW2 3968   0.666   1.764   4.661 -1.5403  0.0792 -0.4073
 1227SOL     OW 3969   4.379   3.014   4.507 -0.2922 -0.1547 -0.1670
 1227SOL    HW1 3970   4.311   3.045   4.573 -0.3235 -0.9494  0.1813
 1227SOL    HW2 3971   4.334   2.986   4.423 -0.5276 -1.7483  0.4567
 1228SOL     OW 3972   0.191   2.966   3.370 -0.9749  0.3639  0.9610
 1228SOL    HW1 3973   0.132   2.886   3.374  0.9507 -1.1886 -0.2404
 1228SOL    HW2 3974   0.198   2.997   3.275  0.9421 -0.1467  0.9072
 1229SOL     OW 3975   0.175   1.389   3.715 -0.2481 -0.0601  0.5964
 1229SOL    HW1 3976   0.163   1.320   3.644 -1.0809  0.5260  0.1421
 1229SOL    HW2 3977   0.127   1.473   3.688 -0.8549  0.0701  2.0014
 1230SOL     OW 3978   1.993   2.736   4.530  0.4344 -0.1877 -0.0955
 1230SOL    HW1 3979   1.998   2.638   4.513  0.1576 -0.2816  0.3278
 1230SOL    HW2 3980   2.027   2.786   4.451 -0.1251 -0.6099 -0.6123
 1231SOL     OW 3981   5.895   2.874   5.713  0.0010  0.2744  0.0814
 1231SOL    HW1 3982   5.919   2.962   5.672 -1.6151  0.9030  0.4203
 1231SOL    HW2 3983   5.979   2.824   5.735  1.0454  2.4632  1.4523
 1232SOL     OW 3984   1.647   2.438   4.141  0.0928  0.1202 -0.2365
 1232SOL    HW1 3985   1.742   2.428   4.170  0.0263 -1.1728 -0.4021
 1232SOL    HW2 3986   1.586   2.417   4.218 -0.0716  1.4580  0.0186
 1233SOL     OW 3987   5.137   3.736   4.355  0.4267  0.0934 -0.2848
 1233SOL    HW1 3988   5.065   3.750   4.423  0.3979  1.3464 -0.5444
 1233SOL    HW2 3989   5.207   3.675   4.392  0.8435  1.4118  1.2196
 1234SOL     OW 3990   5.707   2.611   0.041  0.4882  0.0602 -0.0076
 1234SOL    HW1 3991   5.738   2.694   0.088 -0.6665  0.5045 -0.0114
 1234SOL    HW2 3992   5.760   2.599  -0.043 -0.9261  2.1543 -1.2832
 1235SOL     OW 3993   1.279   2.106   5.566  0.4002  0.0703  0.3483
 1235SOL    HW1 3994   1.376   2.091   5.583  0.7890  1.6367 -0.3122
 1235SOL    HW2 3995   1.227   2.084   5.649  1.3448 -0.3920  0.8372
 1236SOL     OW 3996   0.082   1.845   5.186  0.4305 -0.1616  0.6144
 1236SOL    HW1 3997  -0.010   1.809   5.193  0.8328 -1.0591  1.4450
 1236SOL    HW2 3998   0.142   1.777   5.143  0.3783  1.0534 -1.5583
 1237SOL     OW 3999   5.427   1.585   5.394  0.2166 -0.5619 -0.4058
 1237SOL    HW1 4000   5.371   1.503   5.403 -1.3780  0.5867  0.6056
 1237SOL    HW2 4001   5.460   1.593   5.300 -1.8584 -0.9387 -1.2099
 1238SOL     OW 4002   5.867   2.815   4.120 -0.0004  0.2255 -0.2354
 1238SOL    HW1 4003   5.807   2.877   4.069 -0.6794  0.7312  1.1256
 1238SOL    HW2 4004   5.836   2.721   4.106  0.9008  0.1641 -2.1365
 1239SOL     OW 4005   0.910   2.787   4.295 -0.6394  0.4598  0.4799
 1239SOL    HW1 4006   0.948   2.751   4.380  1.3945  1.0552 -0.1166
 1239SOL    HW2 4007   0.862   2.873   4.313 -0.1420  0.6282  1.0171
 1240SOL     OW 4008   0.967   1.825   4.171  0.0185  0.0820 -0.2753
 1240SOL    HW1 4009   0.984   1.748   4.111  0.1568  2.0926 -3.0203
 1240SOL    HW2 4010   1.049   1.882   4.177 -0.6480  1.0514  0.0488
 1241SOL     OW 4011   4.969   2.144   5.638  0.1561 -0.1757 -0.3331
 1241SOL    HW1 4012   5.057   2.174   5.674 -0.7874 -0.0637  2.0265
 1241SOL    HW2 4013   4.971   2.045   5.621  1.6469  0.2274 -3.3212
 1242SOL     OW 4014   4.817   3.014   3.551 -0.1372  0.3207 -0.3976
 1242SOL    HW1 4015   4.868   3.076   3.610  1.1274  0.7846 -1.9227
 1242SOL    HW2 4016   4.876   2.982   3.476 -1.4892 -0.7684 -1.0482
 1243SOL     OW 4017   4.930   2.914   3.991 -0.8766 -0.0951 -0.0269
 1243SOL    HW1 4018   4.956   2.928   4.087 -0.5008 -0.3484 -0.0887
 1243SOL    HW2 4019   4.905   2.818   3.978  3.6684 -1.3604 -1.1952
 1244SOL     OW 4020   1.010   2.778   4.572 -0.4074 -0.0973  0.3862
 1244SOL    HW1 4021   1.096   2.730   4.588 -0.1657 -0.5526 -1.9870
 1244SOL    HW2 4022   0.935   2.730   4.618  0.5283  0.1664  2.2664
 1245SOL     OW 4023   5.834   1.994   3.227 -0.1291  0.0390  0.0488
 1245SOL    HW1 4024   5.855   2.092   3.227 -0.4791  0.1687  2.0537
 1245SOL    HW2 4025   5.847   1.958   3.320 -0.8677 -1.6284 -0.4601
 1246SOL     OW 4026   0.269   3.638   5.124 -0.4307 -0.1616  0.4129
 1246SOL    HW1 4027   0.236   3.554   5.082 -0.5900  0.8783 -1.6800
 1246SOL    HW2 4028   0.240   3.642   5.220 -3.0462 -1.0822 -0.2662
 1247SOL     OW 4029   1.828   3.528   5.896 -0.0998  0.1202  0.0906
 1247SOL    HW1 4030   1.853   3.467   5.971 -0.7283 -1.0175 -0.5941
 1247SOL    HW2 4031   1.763   3.481   5.836 -2.0633  2.1041  0.5270
 1248SOL     OW 4032   2.294   2.070   5.512 -0.4382 -0.5278  0.1153
 1248SOL    HW1 4033   2.387   2.047   5.483 -0.0982  1.2844 -0.3598
 1248SOL    HW2 4034   2.233   1.993   5.492  0.6822 -1.1697 -0.9818
 1249SOL     OW 4035   0.611   2.796   0.955  0.1609  0.1980 -0.1583
 1249SOL    HW1 4036   0.577   2.850   0.878 -0.4832 -0.4835 -0.3612
 1249SOL    HW2 4037   0.582   2.701   0.945  0.2882  0.0473  0.7969
 1250SOL     OW 4038   0.735   1.949   5.035  0.0567 -0.0835  0.4802
 1250SOL    HW1 4039   0.819   1.942   4.982  0.5744  0.0311  1.2620
 1250SOL    HW2 4040   0.726   2.042   5.072 -0.2771 -0.1644  0.6177
 1251SOL     OW 4041   2.157   1.121   2.790 -0.0440  0.1615  0.0008
 1251SOL    HW1 4042   2.133   1.210   2.750 -0.3017  0.1192  0.0589
 1251SOL    HW2 4043   2.166   1.053   2.717  3.2223  0.8652 -0.4324
 1252SOL     OW 4044   0.483   4.071   3.235 -0.2025  0.0508  0.3089
 1252SOL    HW1 4045   0.568   4.111   3.268  0.2161  1.5806 -2.3946
 1252SOL    HW2 4046   0.414   4.143   3.222 -0.3451 -0.4358 -1.9910
 1253SOL     OW 4047   4.249   1.855   4.170  0.1281 -0.3066  0.2655
 1253SOL    HW1 4048   4.332   1.864   4.224 -0.3859 -2.0619  1.4248
 1253SOL    HW2 4049   4.174   1.825   4.228 -1.5660  1.9797 -0.6039
 1254SOL     OW 4050   4.730   2.352   4.035  0.1151  0.6603  0.9504
 1254SOL    HW1 4051   4.711   2.263   4.077 -0.9356  0.6757  0.5351
 1254SOL    HW2 4052   4.741   2.421   4.107 -1.8547  0.7223  1.2414
 1255SOL     OW 4053   0.839   1.826   5.603 -0.4412 -0.3727  0.1992
 1255SOL    HW1 4054   0.751   1.856   5.564 -0.6223 -2.7385 -1.4599
 1255SOL    HW2 4055   0.911   1.837   5.534  0.6227  1.5158  1.5365
 1256SOL     OW 4056   5.228   1.570   5.631  0.0271  0.1196  0.1227
 1256SOL    HW1 4057   5.183   1.604   5.549  3.4095  0.7537 -1.6686
 1256SOL    HW2 4058   5.309   1.626   5.650  1.6997 -2.5036  1.3794
 1257SOL     OW 4059   4.821   2.633   3.881 -0.5513 -0.2941 -0.2104
 1257SOL    HW1 4060   4.798   2.655   3.786  2.8294  1.9683 -0.6530
 1257SOL    HW2 4061   4.881   2.554   3.883 -0.8129 -0.4876  0.0943
 1258SOL     OW 4062   5.844   3.771   4.782  0.1838  0.2031 -0.3619
 1258SOL    HW1 4063   5.850   3.860   4.737  1.2295  0.8258  0.9354
 1258SOL    HW2 4064   5.909   3.708   4.740  1.7701  1.0323  0.7498
 1259SOL     OW 4065   5.258   3.938   4.592  0.3000 -0.6018  0.1783
 1259SOL    HW1 4066   5.297   3.848   4.608  2.8583  0.2164 -0.9320
 1259SOL    HW2 4067   5.296   4.004   4.657 -1.8148 -0.3093  1.2225
 1260SOL     OW 4068   5.961   2.427   3.752  0.6278 -0.1025 -0.4549
 1260SOL    HW1 4069   5.974   2.440   3.653 -3.5734  1.8630 -0.9854
 1260SOL    HW2 4070   6.030   2.480   3.801  1.8566  0.1756 -2.3620
 1261SOL     OW 4071   5.304   3.897   4.177 -0.2848 -0.3589 -0.0215
 1261SOL    HW1 4072   5.273   3.992   4.173 -1.2885 -0.6231  0.9091
 1261SOL    HW2 4073   5.266   3.853   4.258  1.8352 -0.9928  0.6865
 1262SOL     OW 4074   0.683   3.539   5.337 -0.3017 -0.5186  0.1007
 1262SOL    HW1 4075   0.702   3.622   5.285  1.6919 -1.6777 -1.1531
 1262SOL    HW2 4076   0.710   3.553   5.432  0.2775  0.1948 -0.1573
 1263SOL     OW 4077   0.856   3.648   4.797 -0.4025  0.7952  0.2611
 1263SOL    HW1 4078   0.952   3.669   4.780  0.2263 -0.6917  1.7640
 1263SOL    HW2 4079   0.828   3.570   4.740 -0.6302  0.9822  0.1103
 1264SOL     OW 4080   0.245   3.975   4.278  0.1507 -0.5412  0.5160
 1264SOL    HW1 4081   0.283   3.936   4.194  0.9460 -1.3141  1.2100
 1264SOL    HW2 4082   0.319   4.017   4.331 -0.6014  1.4707  0.0573
 1265SOL     OW 4083   0.171   2.463   4.438  0.0654 -0.0543 -0.5096
 1265SOL    HW1 4084   0.202   2.418   4.355 -1.3597 -1.0698 -0.5280
 1265SOL    HW2 4085   0.184   2.562   4.429  1.0640 -0.2539 -1.4249
 1266SOL     OW 4086   0.497   4.459   5.270  0.3290 -0.2900 -0.3981
 1266SOL    HW1 4087   0.418   4.454   5.332  0.4043 -1.1814 -0.3666
 1266SOL    HW2 4088   0.531   4.553   5.267 -1.2888  0.3127 -1.0981
 1267SOL     OW 4089   4.813   2.844   4.388 -0.3001 -1.0334 -0.1264
 1267SOL    HW1 4090   4.743   2.894   4.336  0.3602 -1.7707 -1.7624
 1267SOL    HW2 4091   4.801   2.864   4.485 -2.3725 -0.6121 -0.4054
 1268SOL     OW 4092   1.017   2.578   5.126  1.0732 -0.6209  0.0132
 1268SOL    HW1 4093   0.917   2.577   5.122  1.0818  0.9886 -1.7874
 1268SOL    HW2 4094   1.046   2.621   5.211  0.2285 -0.1485  0.0769
 1269SOL     OW 4095   0.151   2.509   3.366  0.3595 -0.1139  0.1176
 1269SOL    HW1 4096   0.174   2.483   3.273 -0.9569  0.2551 -0.3246
 1269SOL    HW2 4097   0.102   2.434   3.411 -1.2177  0.5934 -0.3369
 1270SOL     OW 4098   0.014   2.113   5.205  0.5226 -0.3398  0.4781
 1270SOL    HW1 4099   0.026   2.014   5.212  0.9452 -0.2444  1.2269
 1270SOL    HW2 4100  -0.037   2.146   5.285  2.0169  0.2823  1.2151
 1271SOL     OW 4101   0.610   3.355   4.942 -0.5538  0.0855 -0.9460
 1271SOL    HW1 4102   0.632   3.330   5.036  0.8046  0.3982 -1.1649
 1271SOL    HW2 4103   0.519   3.320   4.919 -1.2096  0.6145  0.6988
 1272SOL     OW 4104   1.092   2.387   4.036 -0.2889  0.0386  0.2378
 1272SOL    HW1 4105   1.018   2.442   3.998 -0.5405  0.5844  1.4446
 1272SOL    HW2 4106   1.180   2.422   4.004 -0.3459  2.1674  2.0902
 1273SOL     OW 4107   1.028   3.437   5.166 -0.2560  0.1930 -0.3633
 1273SOL    HW1 4108   1.116   3.454   5.121  0.4681  1.1529  1.3197
 1273SOL    HW2 4109   0.960   3.502   5.133  0.2445  0.8332 -0.1583
 1274SOL     OW 4110   5.437   2.924   4.963  0.2124  0.3277 -0.6298
 1274SOL    HW1 4111   5.472   2.994   4.902  1.6769  1.0042  0.9156
 1274SOL    HW2 4112   5.445   2.955   5.058  0.4812 -1.7482  0.0712
 1275SOL     OW 4113   1.087   3.623   3.616 -0.3582 -0.6511 -0.1756
 1275SOL    HW1 4114   1.158   3.640   3.548 -1.8122  0.5378 -1.4617
 1275SOL    HW2 4115   1.088   3.696   3.684  0.9486 -1.7236  1.0382
 1276SOL     OW 4116   0.350   3.826   4.070  0.4555 -0.2674  0.1822
 1276SOL    HW1 4117   0.301   3.773   4.000  1.1839 -0.6663 -0.0284
 1276SOL    HW2 4118   0.446   3.836   4.044  0.0891  2.3398 -0.4821
 1277SOL     OW 4119   1.000   2.518   3.455  0.0956 -0.2090 -0.5187
 1277SOL    HW1 4120   1.075   2.554   3.510 -0.9255 -1.6731  2.0656
 1277SOL    HW2 4121   0.925   2.585   3.454 -0.6960 -0.9595  1.8208
 1278SOL     OW 4122   5.193   3.936   5.518  0.6997 -0.0789  0.2462
 1278SOL    HW1 4123   5.223   3.841   5.527  1.2416  0.1226  0.5946
 1278SOL    HW2 4124   5.200   3.964   5.422 -0.5797 -0.7453 -0.0731
 1279SOL     OW 4125   0.569   2.617   3.266 -0.3611 -0.3480  0.3611
 1279SOL    HW1 4126   0.506   2.686   3.303 -0.1907 -0.2051  0.3875
 1279SOL    HW2 4127   0.571   2.625   3.166  0.1516  0.1199  0.4047
 1280SOL     OW 4128   1.090   2.625   5.389  0.0346  0.2199  0.0328
 1280SOL    HW1 4129   1.009   2.569   5.405 -0.4207  1.2393  1.5042
 1280SOL    HW2 4130   1.172   2.571   5.409 -0.2505 -0.8041 -1.4187
 1281SOL     OW 4131   0.355   4.173   4.801  0.0817 -0.2630 -0.5493
 1281SOL    HW1 4132   0.433   4.235   4.802  0.2747 -0.4737 -1.7380
 1281SOL    HW2 4133   0.279   4.214   4.851  0.6484  0.3385 -0.1743
 1282SOL     OW 4134   0.999   4.052   4.120  0.7424  0.2901  0.1755
 1282SOL    HW1 4135   1.093   4.073   4.147  1.2009 -1.0572 -0.2980
 1282SOL    HW2 4136   0.947   4.023   4.200  0.7628  0.9079  0.4158
 1283SOL     OW 4137   2.743   0.994   4.403  0.4207  0.6215 -0.3339
 1283SOL    HW1 4138   2.801   1.045   4.339 -0.6078  2.0700 -0.1665
 1283SOL    HW2 4139   2.653   0.982   4.362  0.1987  0.2679  0.2597
 1284SOL     OW 4140   0.876   1.411   3.366  0.2600 -0.5361 -0.3230
 1284SOL    HW1 4141   0.800   1.352   3.339  0.2150 -1.0298  0.7945
 1284SOL    HW2 4142   0.887   1.485   3.300 -2.2409  0.4929  0.3074
 1285SOL     OW 4143   0.936   2.080   2.503  0.1045  0.1786  0.7995
 1285SOL    HW1 4144   0.846   2.054   2.468  1.3934 -1.7183 -1.3792
 1285SOL    HW2 4145   0.963   2.168   2.463 -0.2996  0.1985  0.5620
 1286SOL     OW 4146   5.714   3.374   5.189  0.2459 -0.2353  0.3563
 1286SOL    HW1 4147   5.755   3.462   5.163  0.7309 -1.0311 -1.8269
 1286SOL    HW2 4148   5.644   3.389   5.259  2.0731  1.5437  1.8975
 1287SOL     OW 4149   0.652   3.513   3.038  0.5781 -0.2607  0.0902
 1287SOL    HW1 4150   0.698   3.530   3.126  1.0664 -2.0555  0.2311
 1287SOL    HW2 4151   0.566   3.464   3.055 -0.1853  0.8841 -0.3498
 1288SOL     OW 4152   2.488   3.329   4.275 -0.1327  0.0405  0.1345
 1288SOL    HW1 4153   2.418   3.281   4.222  0.7117 -0.7746 -0.2844
 1288SOL    HW2 4154   2.570   3.272   4.280  0.2204  0.6277  1.3087
 1289SOL     OW 4155   0.032   3.662   4.599  0.4202 -0.0703 -0.2610
 1289SOL    HW1 4156  -0.011   3.693   4.514 -3.2495  0.2355  1.5485
 1289SOL    HW2 4157   0.039   3.563   4.599  2.1756 -0.0051 -1.5792
 1290SOL     OW 4158   0.975   1.948   3.861 -0.0112 -0.2611 -0.0315
 1290SOL    HW1 4159   0.950   1.940   3.765  1.6377 -0.3926 -0.4863
 1290SOL    HW2 4160   0.928   2.026   3.902 -2.1458 -1.2600 -0.4289
 1291SOL     OW 4161   1.568   1.228   4.503 -0.0411  0.0537 -0.0449
 1291SOL    HW1 4162   1.658   1.267   4.480  0.0292  0.2309  0.5126
 1291SOL    HW2 4163   1.562   1.214   4.601 -0.2462 -0.9242 -0.1886
 1292SOL     OW 4164   5.873   2.222   3.928  0.4095  0.0529 -0.2985
 1292SOL    HW1 4165   5.805   2.149   3.918  0.9370 -0.4993  0.1030
 1292SOL    HW2 4166   5.919   2.237   3.840 -0.2577  0.4702 -0.5891
 1293SOL     OW 4167   1.713   3.297   5.204 -0.4161  0.0623 -0.0003
 1293SOL    HW1 4168   1.680   3.334   5.116 -0.1209 -1.0826 -0.6008
 1293SOL    HW2 4169   1.648   3.323   5.276 -0.0825  1.9958 -0.3263
 1294SOL     OW 4170   0.510   1.782   5.036  0.3306 -0.3227 -0.0362
 1294SOL    HW1 4171   0.583   1.848   5.022 -0.0505  0.2706  0.6834
 1294SOL    HW2 4172   0.476   1.750   4.947 -0.7962  1.9350 -0.5097
 1295SOL     OW 4173   0.986   2.327   3.260  0.9249 -0.5536  0.0076
 1295SOL    HW1 4174   0.963   2.377   3.343  2.1728  0.7362 -0.3859
 1295SOL    HW2 4175   0.914   2.260   3.240 -0.4623  0.6152  0.9256
 1296SOL     OW 4176   5.833   3.139   5.150 -0.1298 -0.3047  0.4468
 1296SOL    HW1 4177   5.787   3.227   5.153 -0.3347 -0.2348 -2.3051
 1296SOL    HW2 4178   5.931   3.153   5.136 -0.1955 -0.4996 -0.2336
 1297SOL     OW 4179   4.755   3.059   3.857 -0.1036  0.7377 -0.4073
 1297SOL    HW1 4180   4.738   3.056   3.758 -2.0213 -1.2669 -0.0914
 1297SOL    HW2 4181   4.831   2.999   3.879 -0.6355  0.0085 -0.5283
 1298SOL     OW 4182   1.416   0.407   4.424  0.1889  0.6517  0.2473
 1298SOL    HW1 4183   1.443   0.325   4.374 -1.8914  0.6073 -0.9150
 1298SOL    HW2 4184   1.490   0.434   4.485  1.1463 -1.7640  0.2859
 1299SOL     OW 4185   1.672   2.178   5.072  0.0665  0.0176 -0.4423
 1299SOL    HW1 4186   1.628   2.132   4.995  1.1220  3.4593 -3.4378
 1299SOL    HW2 4187   1.608   2.243   5.113  0.5881  0.9548 -1.0604
 1300SOL     OW 4188   0.547   2.813   4.050  0.6298  0.2957 -0.2418
 1300SOL    HW1 4189   0.541   2.910   4.072 -0.8375  0.1597  0.0713
 1300SOL    HW2 4190   0.496   2.760   4.118  0.5326 -0.5969 -0.9852
 1301SOL     OW 4191   2.137   3.695   2.961 -0.5978 -1.1939  0.5215
 1301SOL    HW1 4192   2.166   3.681   2.867  0.3213 -1.5966  0.8498
 1301SOL    HW2 4193   2.218   3.703   3.020 -1.1569 -0.6811  1.2364
 1302SOL     OW 4194   5.685   1.782   5.746  0.0703  1.1432 -0.7931
 1302SOL    HW1 4195   5.712   1.878   5.750  0.7254  0.9304  0.7850
 1302SOL    HW2 4196   5.746   1.729   5.805 -0.8792 -0.0996 -0.9067
 1303SOL     OW 4197   0.601   3.825   3.947  0.0159  0.3162  0.5128
 1303SOL    HW1 4198   0.626   3.920   3.931  2.2413 -0.2893  0.0187
 1303SOL    HW2 4199   0.600   3.775   3.861 -0.4028 -0.2828  0.8548
 1304SOL     OW 4200   5.342   0.806   5.841 -0.0864 -0.1236  0.9230
 1304SOL    HW1 4201   5.378   0.862   5.915 -0.4527 -1.6338  2.3165
 1304SOL    HW2 4202   5.406   0.732   5.821 -0.8006 -0.7938  1.0261
 1305SOL     OW 4203   1.248   2.693   5.937 -0.7766  0.1349 -0.2684
 1305SOL    HW1 4204   1.338   2.658   5.909  0.5666  2.8351  0.2703
 1305SOL    HW2 4205   1.208   2.744   5.861 -1.9165 -1.0757 -0.5117
 1306SOL     OW 4206   5.516   3.441   5.377  0.0212 -0.2194 -0.1645
 1306SOL    HW1 4207   5.449   3.419   5.306  1.0380  1.4733 -1.7373
 1306SOL    HW2 4208   5.521   3.540   5.388  0.2072 -0.4217  2.0274
 1307SOL     OW 4209   1.944   3.074   6.000 -0.6988  0.0617  0.5047
 1307SOL    HW1 4210   1.948   3.103   5.904 -1.4170  2.0250  1.0200
 1307SOL    HW2 4211   1.850   3.083   6.033 -0.6946 -1.6820  1.1177
 1308SOL     OW 4212   6.010   2.889   4.326  0.5136 -0.8215 -0.4489
 1308SOL    HW1 4213   5.935   2.867   4.264  0.0415  0.2687 -0.2821
 1308SOL    HW2 4214   5.983   2.964   4.386  0.8825 -1.9776  1.2464
 1309SOL     OW 4215   0.175   3.070   4.666 -0.1609  0.0492  0.3109
 1309SOL    HW1 4216   0.219   3.158   4.646  1.9144 -0.7166  1.3142
 1309SOL    HW2 4217   0.238   2.995   4.646 -1.6021 -1.2078  0.2724
 1310SOL     OW 4218   5.598   2.078   5.523  0.0193 -0.2370  0.7150
 1310SOL    HW1 4219   5.551   2.138   5.459 -2.2956  0.0484  2.5551
 1310SOL    HW2 4220   5.571   1.983   5.506 -0.2847 -0.2026  0.9917
 1311SOL     OW 4221   1.790   2.017   5.280 -0.2934  0.2172 -0.0502
 1311SOL    HW1 4222   1.858   2.081   5.317  0.8045 -0.5013 -0.7465
 1311SOL    HW2 4223   1.752   2.055   5.195  0.0378  0.1541 -0.2302
 1312SOL     OW 4224   0.213   3.102   3.827 -0.0879  0.0807 -0.4826
 1312SOL    HW1 4225   0.155   3.104   3.746 -0.4256 -0.6704 -0.2677
 1312SOL    HW2 4226   0.272   3.022   3.824  1.3368  1.1162 -0.9521
 1313SOL     OW 4227   0.204   3.175   4.130  0.2944 -0.4856 -0.1527
 1313SOL    HW1 4228   0.209   3.077   4.151 -0.4263 -0.3880  0.5506
 1313SOL    HW2 4229   0.203   3.188   4.031 -0.7852 -1.2817 -0.2662
 1314SOL     OW 4230   0.090   3.644   3.854  0.4306 -0.3614 -0.5553
 1314SOL    HW1 4231   0.099   3.681   3.762  2.1694  1.6823  0.3431
 1314SOL    HW2 4232   0.177   3.604   3.883 -0.0039 -0.7229  0.2822
 1315SOL     OW 4233   0.480   4.202   3.907 -0.4519  0.4070  0.1224
 1315SOL    HW1 4234   0.537   4.254   3.844  0.1581 -1.1603 -0.6587
 1315SOL    HW2 4235   0.425   4.136   3.856 -1.2578  0.3092  1.0861
 1316SOL     OW 4236   1.311   2.498   3.867  0.1814 -0.3254 -0.3070
 1316SOL    HW1 4237   1.315   2.542   3.777  0.2295 -0.5691 -0.4261
 1316SOL    HW2 4238   1.354   2.408   3.861 -1.3007 -1.0492 -0.4455
 1317SOL     OW 4239   5.291   4.180   0.128  0.0460 -0.4379  0.0258
 1317SOL    HW1 4240   5.335   4.110   0.073 -0.2010  1.0519 -2.2331
 1317SOL    HW2 4241   5.352   4.210   0.201  1.5890 -0.5143 -1.1857
 1318SOL     OW 4242   0.301   3.726   4.509 -0.2939 -0.1564  0.7872
 1318SOL    HW1 4243   0.203   3.714   4.525 -0.4778  0.2634 -0.0026
 1318SOL    HW2 4244   0.337   3.791   4.576 -0.2935 -1.2291  1.8646
 1319SOL     OW 4245   0.260   2.288   5.995 -0.1634  0.2340 -0.0379
 1319SOL    HW1 4246   0.277   2.316   5.900 -1.3679 -0.9066 -0.6230
 1319SOL    HW2 4247   0.346   2.261   6.038  0.2621 -0.2369 -1.1490
 1320SOL     OW 4248   1.484   1.992   5.321  0.3438 -0.0820 -0.6119
 1320SOL    HW1 4249   1.410   1.970   5.257  0.9879 -1.2545 -0.9829
 1320SOL    HW2 4250   1.564   2.024   5.270  0.1669  1.0395 -0.2196
 1321SOL     OW 4251   0.256   1.551   3.196  0.2273 -0.1335  0.6489
 1321SOL    HW1 4252   0.193   1.502   3.136 -0.2183  0.4562  0.6183
 1321SOL    HW2 4253   0.350   1.526   3.174  0.0567 -0.1640 -0.0821
 1322SOL     OW 4254   0.914   3.806   3.466  0.0723 -0.2613 -0.0624
 1322SOL    HW1 4255   0.987   3.742   3.490  1.4953  1.4854  0.4408
 1322SOL    HW2 4256   0.913   3.818   3.366  2.1228  1.4597  0.0422
 1323SOL     OW 4257   5.488   2.503   3.919 -0.3022 -0.4617 -0.0839
 1323SOL    HW1 4258   5.477   2.419   3.972  0.0956 -0.8344 -0.5836
 1323SOL    HW2 4259   5.407   2.560   3.931  0.2258 -0.0393  1.7807
 1324SOL     OW 4260   0.799   3.955   4.648 -0.4193 -0.2512 -0.2689
 1324SOL    HW1 4261   0.814   3.858   4.665 -2.1177 -0.4327  0.3930
 1324SOL    HW2 4262   0.719   3.967   4.590 -0.7794  0.7761  0.4088
 1325SOL     OW 4263   1.871   1.702   0.147  0.5224 -0.0774 -0.4607
 1325SOL    HW1 4264   1.826   1.770   0.088 -3.1570 -1.3797  0.5489
 1325SOL    HW2 4265   1.939   1.748   0.205 -1.6839  2.8155  0.0835
 1326SOL     OW 4266   1.086   1.294   5.190 -0.4309 -0.4679  0.2302
 1326SOL    HW1 4267   1.182   1.316   5.171 -0.0296 -1.4331  1.0104
 1326SOL    HW2 4268   1.028   1.371   5.165  0.6993  0.7056  1.0596
 1327SOL     OW 4269   5.582   2.565   2.233 -0.3090  0.0914 -0.0241
 1327SOL    HW1 4270   5.520   2.608   2.167  0.2223 -0.8933 -1.2227
 1327SOL    HW2 4271   5.530   2.504   2.292 -0.8155  1.0890  0.5739
 1328SOL     OW 4272   0.406   2.973   4.505 -0.4892 -0.1084  0.0397
 1328SOL    HW1 4273   0.330   2.917   4.471  0.1192 -1.2567  0.4853
 1328SOL    HW2 4274   0.489   2.917   4.507  0.2053  0.9158  0.2426
 1329SOL     OW 4275   1.829   1.739   3.876 -0.3099 -0.4189  0.4539
 1329SOL    HW1 4276   1.904   1.681   3.847 -0.0190 -1.1353  2.4797
 1329SOL    HW2 4277   1.750   1.723   3.817  1.2107  0.7318 -2.0419
 1330SOL     OW 4278   0.245   3.366   4.360 -0.1131  0.0660 -0.4105
 1330SOL    HW1 4279   0.249   3.455   4.316  0.1609 -0.4007 -1.3611
 1330SOL    HW2 4280   0.252   3.294   4.290 -0.2898 -0.6970  0.3405
 1331SOL     OW 4281   1.573   1.400   0.312 -0.0374 -0.1639 -0.2479
 1331SOL    HW1 4282   1.655   1.451   0.285  0.4088 -0.8771 -0.2760
 1331SOL    HW2 4283   1.492   1.445   0.274  0.1873  1.4446  1.1097
 1332SOL     OW 4284   0.499   1.823   3.133  0.3964  0.3706  0.0455
 1332SOL    HW1 4285   0.442   1.812   3.214  0.2920 -1.6528 -0.2696
 1332SOL    HW2 4286   0.441   1.840   3.054  0.4549  1.5622  0.2400
 1333SOL     OW 4287   5.158   3.609   3.738  0.2577  0.1257  0.1518
 1333SOL    HW1 4288   5.140   3.674   3.812 -0.0365  0.3434 -0.1083
 1333SOL    HW2 4289   5.119   3.520   3.761  2.0180 -0.4114  1.2189
 1334SOL     OW 4290   0.393   2.150   5.321 -0.1654  0.4527 -0.3973
 1334SOL    HW1 4291   0.318   2.126   5.383 -0.9138  1.2795 -0.9553
 1334SOL    HW2 4292   0.377   2.107   5.232  0.6730 -0.3652 -0.1644
 1335SOL     OW 4293   1.418   3.386   5.308  0.2540  0.2930  0.1293
 1335SOL    HW1 4294   1.454   3.360   5.397 -0.3025 -0.3435  0.1811
 1335SOL    HW2 4295   1.412   3.305   5.249 -1.4153  0.2716  0.2548
 1336SOL     OW 4296   0.851   3.223   5.676 -0.1469 -0.0791 -0.2924
 1336SOL    HW1 4297   0.792   3.303   5.662 -1.4352 -1.0502 -0.5749
 1336SOL    HW2 4298   0.795   3.143   5.696  1.0795 -1.0455 -0.5874
 1337SOL     OW 4299   0.508   2.191   4.981 -0.7255 -0.0356 -0.0071
 1337SOL    HW1 4300   0.472   2.142   5.061 -0.6087  0.1085  0.1343
 1337SOL    HW2 4301   0.446   2.178   4.904 -1.1817  0.3621  0.2858
 1338SOL     OW 4302   2.205   3.220   0.751 -0.2626  0.3135 -0.3045
 1338SOL    HW1 4303   2.173   3.148   0.813 -1.6821  2.0507  1.0962
 1338SOL    HW2 4304   2.127   3.273   0.718  0.6925  0.8015 -1.8700
 1339SOL     OW 4305   5.462   2.927   5.872  0.3200 -0.0707  0.0702
 1339SOL    HW1 4306   5.399   2.872   5.927  1.4562 -2.1836 -0.6307
 1339SOL    HW2 4307   5.518   2.867   5.815  2.2758  1.7819 -0.0870
 1340SOL     OW 4308   5.570   2.515   5.735  0.6457 -0.0610 -0.3007
 1340SOL    HW1 4309   5.650   2.455   5.731 -0.0686 -0.9639 -2.3940
 1340SOL    HW2 4310   5.498   2.472   5.789  0.6428 -0.4329 -0.6016
 1341SOL     OW 4311   2.322   3.935   5.448 -0.0129  0.2235  0.2534
 1341SOL    HW1 4312   2.266   3.859   5.482 -0.0361 -0.2628 -0.8461
 1341SOL    HW2 4313   2.314   4.012   5.511 -1.2913 -0.1136  0.5399
 1342SOL     OW 4314   2.315   4.400   0.250 -0.0586 -0.6615  0.0444
 1342SOL    HW1 4315   2.378   4.365   0.181 -0.3101  0.1836 -0.6205
 1342SOL    HW2 4316   2.326   4.347   0.334 -0.2689 -2.1816 -0.8483
 1343SOL     OW 4317   5.320   3.283   0.511  0.1600 -0.2091 -0.0334
 1343SOL    HW1 4318   5.251   3.269   0.582 -0.0680  2.2143  0.3214
 1343SOL    HW2 4319   5.274   3.306   0.425  0.4904 -0.1936 -0.2067
 1344SOL     OW 4320   0.723   2.597   5.061  0.2231  0.0534  0.2048
 1344SOL    HW1 4321   0.643   2.539   5.049 -0.0396  0.5993 -0.8606
 1344SOL    HW2 4322   0.710   2.682   5.010  1.2287  0.4056  0.5104
 1345SOL     OW 4323   5.602   2.962   5.466 -0.2084  0.2791 -0.4249
 1345SOL    HW1 4324   5.581   2.896   5.539 -2.9612  0.5049 -0.8979
 1345SOL    HW2 4325   5.563   3.051   5.491  0.9521  0.9947 -1.1082
 1346SOL     OW 4326   0.513   3.091   4.132  0.1720 -0.1974 -0.3624
 1346SOL    HW1 4327   0.419   3.126   4.128  0.2274  0.0147  0.2119
 1346SOL    HW2 4328   0.556   3.118   4.217  0.1047 -1.9162  0.2654
 1347SOL     OW 4329   1.978   2.882   0.186  0.1828 -0.2386  0.1288
 1347SOL    HW1 4330   1.968   2.945   0.109 -0.4134 -0.8582 -0.3087
 1347SOL    HW2 4331   2.073   2.882   0.216  0.4450 -0.0707 -0.6704
 1348SOL     OW 4332   0.316   4.842   0.630 -0.5311  0.2424 -0.1912
 1348SOL    HW1 4333   0.319   4.927   0.683 -2.2504  1.2810 -1.6358
 1348SOL    HW2 4334   0.247   4.850   0.558  2.0385 -0.8503 -2.9975
 1349SOL     OW 4335   5.802   2.304   4.731 -0.5209 -0.2092  0.3412
 1349SOL    HW1 4336   5.812   2.297   4.632 -1.7780 -1.1056  0.2601
 1349SOL    HW2 4337   5.764   2.394   4.754 -0.4820 -0.1005 -0.0167
 1350SOL     OW 4338   1.607   2.836   0.061  0.2670  0.5523 -0.2727
 1350SOL    HW1 4339   1.563   2.787   0.136  0.7457 -0.0566 -0.3774
 1350SOL    HW2 4340   1.568   2.805  -0.026 -0.1078  1.0704 -0.2932
 1351SOL     OW 4341   5.240   2.284   0.231 -0.1320 -0.6447  0.2684
 1351SOL    HW1 4342   5.298   2.348   0.181 -0.2990 -0.6482  0.0666
 1351SOL    HW2 4343   5.162   2.258   0.174  0.4754 -1.8315 -0.0457
 1352SOL     OW 4344   5.648   3.581   5.857 -0.0205 -0.0472 -0.1656
 1352SOL    HW1 4345   5.560   3.620   5.828  0.7484  1.3775 -0.7267
 1352SOL    HW2 4346   5.691   3.535   5.779  0.9376  1.6635 -0.7214
 1353SOL     OW 4347  -0.013   3.115   5.636 -1.1083  0.3127 -0.2623
 1353SOL    HW1 4348   0.040   3.150   5.713 -1.1529 -0.5690  0.1829
 1353SOL    HW2 4349   0.040   3.123   5.552 -0.2348 -0.6195  0.1861
 1354SOL     OW 4350   5.079   4.210   4.904 -0.6081  0.0145  0.6668
 1354SOL    HW1 4351   5.116   4.117   4.904 -1.0996 -0.1885  0.1680
 1354SOL    HW2 4352   5.100   4.254   4.817  1.0462  0.9678  1.5094
 1355SOL     OW 4353   1.503   2.310   5.212  0.3901  0.0499 -0.2398
 1355SOL    HW1 4354   1.408   2.340   5.223  0.2031 -0.8816  0.9286
 1355SOL    HW2 4355   1.565   2.379   5.249  0.0094 -0.5488  1.6368
 1356SOL     OW 4356   2.133   1.356   0.417  0.2894  0.1985  0.1967
 1356SOL    HW1 4357   2.096   1.381   0.328 -2.8428 -1.0698  1.0195
 1356SOL    HW2 4358   2.188   1.273   0.408  1.0196  0.7517 -0.6855
 1357SOL     OW 4359   0.342   2.272   5.688  0.3716 -0.0210  0.4477
 1357SOL    HW1 4360   0.434   2.270   5.649 -0.0125 -0.1406 -0.4701
 1357SOL    HW2 4361   0.283   2.208   5.639 -0.4143  0.6535  0.4750
 1358SOL     OW 4362   0.996   1.862   5.378 -0.2867 -0.2711  0.1336
 1358SOL    HW1 4363   0.933   1.797   5.334  0.2634 -1.0989  0.5529
 1358SOL    HW2 4364   1.031   1.925   5.309 -1.3693  0.0457 -0.1556
 1359SOL     OW 4365   5.322   2.986   0.368 -0.5240 -0.3529  0.2137
 1359SOL    HW1 4366   5.349   3.062   0.428  1.3614  0.5001 -1.6136
 1359SOL    HW2 4367   5.271   3.022   0.290 -2.6151 -1.4103  1.0199
 1360SOL     OW 4368   0.668   2.919   0.066 -0.0034 -0.7283  0.4740
 1360SOL    HW1 4369   0.664   3.017   0.048  1.6270 -0.5764  0.7447
 1360SOL    HW2 4370   0.657   2.902   0.164  3.1883 -0.4334  0.9997
 1361SOL     OW 4371   1.391   1.541   0.158  0.0567 -0.5954  0.0890
 1361SOL    HW1 4372   1.330   1.495   0.093 -0.1073 -1.3972  0.7908
 1361SOL    HW2 4373   1.383   1.640   0.148 -2.6686 -0.6035  1.2965
 1362SOL     OW 4374   1.609   2.110   5.943 -0.1034 -0.6949 -0.4046
 1362SOL    HW1 4375   1.518   2.089   5.979  0.0373  0.5149  0.7553
 1362SOL    HW2 4376   1.603   2.184   5.876  0.0604 -0.3184 -0.0106
 1363SOL     OW 4377   4.629   2.453   0.207  0.2844 -0.4305 -0.5471
 1363SOL    HW1 4378   4.590   2.536   0.166  0.9076  0.4438  0.5907
 1363SOL    HW2 4379   4.573   2.425   0.285  1.4593  0.3817  0.6133
 1364SOL     OW 4380   1.468   2.488   0.096  0.5504  0.3026  0.1993
 1364SOL    HW1 4381   1.560   2.449   0.093  0.5273  0.0226  2.0724
 1364SOL    HW2 4382   1.457   2.542   0.180 -1.8095 -1.8012  1.3748
 1365SOL     OW 4383   5.881   3.187   0.329  0.1547 -0.3649  0.0505
 1365SOL    HW1 4384   5.939   3.202   0.410 -1.5758 -4.0220  2.2078
 1365SOL    HW2 4385   5.938   3.156   0.253  1.5187  0.6882  0.5912
 1366SOL     OW 4386   1.352   1.410   1.398 -0.1848 -0.6592  0.0207
 1366SOL    HW1 4387   1.256   1.436   1.394 -0.1450 -0.2541  1.3531
 1366SOL    HW2 4388   1.362   1.327   1.452  0.1042 -1.4172 -1.1488
 1367SOL     OW 4389   0.394   2.819   4.827  0.0687 -0.3248 -0.4728
 1367SOL    HW1 4390   0.388   2.879   4.906  1.6210  0.7876 -1.1487
 1367SOL    HW2 4391   0.475   2.843   4.773 -1.3675 -0.5109 -2.8369
 1368SOL     OW 4392   5.709   2.290   3.527 -0.0421  0.0060 -0.0703
 1368SOL    HW1 4393   5.688   2.380   3.564 -0.5586 -0.5853  1.1315
 1368SOL    HW2 4394   5.626   2.248   3.492  0.0790 -0.2679 -0.0325
 1369SOL     OW 4395   5.627   2.795   5.709  0.0932  0.1380  0.6665
 1369SOL    HW1 4396   5.611   2.701   5.739 -1.9553  0.7736  1.7623
 1369SOL    HW2 4397   5.725   2.812   5.702  0.6135 -1.2154  3.3678
 1370SOL     OW 4398   1.409   2.292   0.313  0.3987 -0.5374 -0.0682
 1370SOL    HW1 4399   1.410   2.325   0.218 -0.3579 -0.3903 -0.0378
 1370SOL    HW2 4400   1.480   2.224   0.326  1.2424  0.2526 -0.4456
 1371SOL     OW 4401   0.382   3.082   1.313 -0.2719 -0.8534  0.2919
 1371SOL    HW1 4402   0.282   3.080   1.311 -0.5454  1.4636  3.2253
 1371SOL    HW2 4403   0.418   3.072   1.221 -3.4259  2.2970 -1.5390
 1372SOL     OW 4404   0.126   3.098   0.198 -0.0726 -0.1685 -0.2308
 1372SOL    HW1 4405   0.145   3.037   0.275 -1.5567 -0.4287 -0.0246
 1372SOL    HW2 4406   0.164   3.059   0.114  1.0078 -0.1978  0.2624
 1373SOL     OW 4407   0.744   3.686   0.464  0.5177  0.4331  0.0169
 1373SOL    HW1 4408   0.693   3.728   0.539 -1.2056  1.2781 -1.5625
 1373SOL    HW2 4409   0.684   3.675   0.384  1.9303 -1.6193 -0.8605
 1374SOL     OW 4410   0.423   3.057   5.855 -0.2066 -0.0515  0.1492
 1374SOL    HW1 4411   0.419   3.003   5.938 -1.3134 -1.0756 -0.5384
 1374SOL    HW2 4412   0.501   3.119   5.859 -0.3471  0.0484  2.0081
 1375SOL     OW 4413   0.622   2.109   4.649  0.0232 -0.0873 -0.2098
 1375SOL    HW1 4414   0.552   2.176   4.674 -1.5408 -0.8523 -2.2581
 1375SOL    HW2 4415   0.601   2.071   4.558  2.6776 -0.9434 -0.5469
 1376SOL     OW 4416   0.961   1.834   0.938 -0.1159 -0.1748  0.2435
 1376SOL    HW1 4417   0.892   1.903   0.912  0.8372  0.3994 -0.8732
 1376SOL    HW2 4418   1.029   1.827   0.865 -0.5232 -2.7844  0.0257
 1377SOL     OW 4419   2.015   2.872   0.647 -0.0501  0.1975 -0.5474
 1377SOL    HW1 4420   2.043   2.926   0.726  0.0950  0.6843 -0.9251
 1377SOL    HW2 4421   2.029   2.775   0.666  1.7194  0.3974 -0.6370
 1378SOL     OW 4422   1.170   1.913   0.504  0.1601  0.0493 -0.1181
 1378SOL    HW1 4423   1.269   1.904   0.517 -0.0015 -0.2992  0.9310
 1378SOL    HW2 4424   1.148   1.898   0.408  0.8917 -2.1827  0.0058
 1379SOL     OW 4425   1.569   2.291   5.763 -0.3200  0.2846 -0.0925
 1379SOL    HW1 4426   1.654   2.343   5.753 -0.1469  0.1819  0.7701
 1379SOL    HW2 4427   1.564   2.220   5.692  1.1295 -0.8272  0.8618
 1380SOL     OW 4428   1.231   2.958   5.234 -0.0012  0.4643  0.0193
 1380SOL    HW1 4429   1.198   2.910   5.152  1.0233 -1.1834  0.5181
 1380SOL    HW2 4430   1.158   2.962   5.302 -1.0849  2.4419 -1.1595
 1381SOL     OW 4431   0.544   4.166   5.901  0.3658 -0.0039  0.1862
 1381SOL    HW1 4432   0.538   4.089   5.964  2.5244 -0.0907  0.3455
 1381SOL    HW2 4433   0.491   4.145   5.818  0.0882 -1.2236  0.6461
 1382SOL     OW 4434   0.754   3.919   5.651 -0.0073 -0.1315 -0.2146
 1382SOL    HW1 4435   0.809   3.900   5.570  1.1500  0.9195  0.2919
 1382SOL    HW2 4436   0.690   3.993   5.632 -0.5708 -0.6895 -0.5119
 1383SOL     OW 4437   0.534   5.071   1.583  0.1749 -0.4413 -0.7959
 1383SOL    HW1 4438   0.467   4.999   1.602 -0.1854  0.3980  1.3485
 1383SOL    HW2 4439   0.625   5.030   1.575 -0.4278 -1.5215 -3.2262
 1384SOL     OW 4440   5.878   4.470   5.901 -0.2562  0.0856  0.0972
 1384SOL    HW1 4441   5.936   4.390   5.918  0.2189  0.1002 -1.3488
 1384SOL    HW2 4442   5.840   4.465   5.809 -2.3011  0.2553  0.8816
 1385SOL     OW 4443   5.030   4.333   1.924  0.2774 -0.4677  0.0947
 1385SOL    HW1 4444   4.955   4.275   1.954 -0.3337  0.0145 -0.4834
 1385SOL    HW2 4445   5.064   4.301   1.836 -0.3697  0.3149 -0.4518
 1386SOL     OW 4446   3.298   4.922   5.937 -0.0208 -0.1772 -0.0494
 1386SOL    HW1 4447   3.313   4.902   6.034  0.4332 -2.6229 -0.5664
 1386SOL    HW2 4448   3.294   4.837   5.886 -2.5476  0.9397 -1.8979
 1387SOL     OW 4449   0.557   4.833   0.467  0.0613 -0.6387  0.1312
 1387SOL    HW1 4450   0.480   4.846   0.530  0.6752 -1.9796  1.1940
 1387SOL    HW2 4451   0.526   4.852   0.374 -0.5922  2.4838  0.8540
 1388SOL     OW 4452   0.691   4.600   0.501 -0.0199 -0.0670  0.6192
 1388SOL    HW1 4453   0.646   4.689   0.494  0.4457  0.0698 -0.8669
 1388SOL    HW2 4454   0.728   4.589   0.594 -1.5445  0.5494  1.3359
 1389SOL     OW 4455   5.645   4.714   1.343  0.0386 -0.0898 -0.1234
 1389SOL    HW1 4456   5.712   4.713   1.270  1.0110 -1.0059  0.7332
 1389SOL    HW2 4457   5.660   4.634   1.403 -0.9742  0.4047  0.8348
 1390SOL     OW 4458   0.891   4.299   0.229 -0.1653  0.2441 -0.0062
 1390SOL    HW1 4459   0.891   4.218   0.170  2.7890 -0.9719  1.4631
 1390SOL    HW2 4460   0.806   4.349   0.216 -1.2835 -2.0267 -2.4073
 1391SOL     OW 4461   5.146   4.651  -0.010 -0.1665 -0.2586 -0.0087
 1391SOL    HW1 4462   5.180   4.705   0.066  1.0082 -0.3093 -0.4772
 1391SOL    HW2 4463   5.199   4.566  -0.017 -0.2125 -0.2243 -0.9083
 1392SOL     OW 4464   0.753   4.712   1.227 -0.4887 -0.6218 -0.2067
 1392SOL    HW1 4465   0.666   4.691   1.272 -0.3761 -1.2746 -0.2865
 1392SOL    HW2 4466   0.769   4.646   1.154  0.3529 -0.8538  0.1841
 1393SOL     OW 4467   1.049   4.759   2.568  0.3097 -0.0405  0.1997
 1393SOL    HW1 4468   1.101   4.711   2.498 -0.6249 -2.6713  1.2112
 1393SOL    HW2 4469   1.074   4.724   2.658 -2.9049 -1.2055  0.7564
 1394SOL     OW 4470   1.034   4.936   1.018  0.8207  0.4818  0.3760
 1394SOL    HW1 4471   1.028   4.906   1.113 -0.0187  2.0680  0.8675
 1394SOL    HW2 4472   1.068   4.861   0.961  2.0748 -0.2701  2.0293
 1395SOL     OW 4473   0.421   4.055   1.347  0.2147 -0.6079 -0.3147
 1395SOL    HW1 4474   0.476   4.108   1.282  0.8671  0.4463  1.0546
 1395SOL    HW2 4475   0.481   3.992   1.397 -0.3695 -1.8143 -1.0735
 1396SOL     OW 4476   1.277   4.056   0.530  0.2883  0.0745 -0.0195
 1396SOL    HW1 4477   1.346   4.079   0.462 -0.1523  1.2654 -0.0861
 1396SOL    HW2 4478   1.252   3.960   0.521  0.8392  0.0110 -0.9840
 1397SOL     OW 4479   5.770   0.667   0.272 -0.8991  0.5363 -0.8480
 1397SOL    HW1 4480   5.773   0.586   0.330  0.6998  0.9340 -0.3288
 1397SOL    HW2 4481   5.761   0.640   0.177  0.4129 -0.3104 -0.7529
 1398SOL     OW 4482   1.371   4.521   2.599 -0.0449  0.2518 -0.0488
 1398SOL    HW1 4483   1.385   4.428   2.565  0.4535  0.1283  0.4958
 1398SOL    HW2 4484   1.425   4.585   2.545  1.0963  0.0052  0.7668
 1399SOL     OW 4485   1.163   4.917   0.291 -0.1165  0.4803  0.3341
 1399SOL    HW1 4486   1.112   4.962   0.217 -1.3603 -0.0805  0.8135
 1399SOL    HW2 4487   1.119   4.830   0.313  2.7131 -1.4702 -1.1585
 1400SOL     OW 4488   5.038   4.250   5.313 -0.0372  0.2966 -0.0335
 1400SOL    HW1 4489   5.114   4.187   5.299 -0.1395 -0.8580  3.4342
 1400SOL    HW2 4490   5.063   4.318   5.381 -0.9708  2.1708 -1.4897
 1401SOL     OW 4491   1.546   4.589   0.706  0.0455 -0.6410  0.4942
 1401SOL    HW1 4492   1.473   4.657   0.714  1.7422  1.2149  1.0848
 1401SOL    HW2 4493   1.531   4.516   0.772 -0.6148  0.3680  1.4956
 1402SOL     OW 4494   0.876   5.236   0.385  0.5619 -0.9090  0.1044
 1402SOL    HW1 4495   0.835   5.155   0.428 -0.3933 -1.1940 -1.2877
 1402SOL    HW2 4496   0.891   5.218   0.288  1.8679  0.0272  0.1072
 1403SOL     OW 4497   1.216   3.540   2.382  0.1693  0.3072  0.5574
 1403SOL    HW1 4498   1.291   3.550   2.448  0.6417  3.3646 -0.2686
 1403SOL    HW2 4499   1.150   3.614   2.395 -0.8907 -0.3155 -0.9789
 1404SOL     OW 4500   0.500   4.959   5.871  0.0413 -0.1888 -0.5807
 1404SOL    HW1 4501   0.451   5.033   5.826  1.0367  0.6490 -0.3187
 1404SOL    HW2 4502   0.466   4.871   5.837 -0.4504  0.3939 -1.6415
 1405SOL     OW 4503   1.420   0.116   1.211 -0.4206 -0.1043  0.2982
 1405SOL    HW1 4504   1.368   0.169   1.278 -1.4327  0.9058 -1.2125
 1405SOL    HW2 4505   1.359   0.051   1.166  0.2253 -0.7119  0.2806
 1406SOL     OW 4506   5.196   4.594   0.863 -0.1315  0.1011 -0.2711
 1406SOL    HW1 4507   5.155   4.675   0.905 -0.3169 -0.4236  0.5814
 1406SOL    HW2 4508   5.185   4.598   0.763 -2.6009 -0.2088 -0.0644
 1407SOL     OW 4509   1.483   4.050   5.327  0.2536  0.2834  0.3482
 1407SOL    HW1 4510   1.446   3.984   5.263  1.0872 -0.8467  0.9982
 1407SOL    HW2 4511   1.427   4.133   5.326 -0.1915 -0.0109 -1.2390
 1408SOL     OW 4512   1.855   5.724   5.684  0.1885 -0.4103  0.0145
 1408SOL    HW1 4513   1.806   5.673   5.613 -1.5727  0.0374  0.8339
 1408SOL    HW2 4514   1.901   5.661   5.746 -0.6198 -0.9457  0.0861
 1409SOL     OW 4515   0.024   4.887   1.594  0.6925  0.3856 -0.1122
 1409SOL    HW1 4516   0.030   4.962   1.660 -0.7877 -0.8892  1.5864
 1409SOL    HW2 4517  -0.042   4.820   1.627  1.1702 -1.1445 -2.1118
 1410SOL     OW 4518   0.060   1.050   0.193 -0.3759  0.1758 -0.1524
 1410SOL    HW1 4519   0.157   1.078   0.193 -1.1540  3.4178  1.8296
 1410SOL    HW2 4520   0.045   0.981   0.263  0.2561  0.9338  0.7580
 1411SOL     OW 4521   1.739   5.698   1.261  0.1239 -0.4861  0.9466
 1411SOL    HW1 4522   1.646   5.668   1.283  0.2438 -0.8716  0.9325
 1411SOL    HW2 4523   1.800   5.674   1.337  0.7708 -2.8795 -0.2341
 1412SOL     OW 4524   0.372   3.449   0.064 -0.3193  0.0626  0.1210
 1412SOL    HW1 4525   0.367   3.541   0.026 -1.8461 -0.1320 -0.2108
 1412SOL    HW2 4526   0.444   3.398   0.017  1.0807  1.2927  0.8399
 1413SOL     OW 4527   0.201   4.630   1.672 -0.2473  0.0271 -0.8778
 1413SOL    HW1 4528   0.271   4.692   1.707  0.9839 -1.1192 -1.2235
 1413SOL    HW2 4529   0.179   4.656   1.578 -1.6980  1.5393 -0.1652
 1414SOL     OW 4530   1.244   4.114   0.066 -0.2588 -0.2236  0.6095
 1414SOL    HW1 4531   1.214   4.169   0.144 -1.6634  0.4129 -0.3457
 1414SOL    HW2 4532   1.164   4.079   0.017  0.4295  1.9032 -2.3022
 1415SOL     OW 4533   0.564   5.425   1.952 -0.4285  0.0381  0.7253
 1415SOL    HW1 4534   0.527   5.338   1.919 -0.4344 -0.1930  1.3282
 1415SOL    HW2 4535   0.503   5.464   2.021 -0.2094  0.3078  0.7683
 1416SOL     OW 4536   0.263   4.145   1.539 -0.3279  0.1777  0.5316
 1416SOL    HW1 4537   0.324   4.108   1.468 -3.1109  0.9138 -2.5294
 1416SOL    HW2 4538   0.307   4.223   1.584  1.0753  0.5990 -1.4248
 1417SOL     OW 4539   0.988   5.627   0.864  0.0889 -0.9172 -0.3116
 1417SOL    HW1 4540   0.973   5.669   0.953 -3.0669  0.4441 -1.3648
 1417SOL    HW2 4541   1.018   5.532   0.877 -0.0682 -0.6909  2.1605
 1418SOL     OW 4542   1.285   0.232   1.408 -0.5564 -0.1916  0.2147
 1418SOL    HW1 4543   1.214   0.282   1.358  0.0345 -0.0492 -0.4921
 1418SOL    HW2 4544   1.324   0.292   1.478 -0.0282  0.2719 -0.4605
 1419SOL     OW 4545   0.581   4.109   5.553 -0.1370  0.0376 -0.9438
 1419SOL    HW1 4546   0.623   4.199   5.539 -1.2656  0.2648 -3.4856
 1419SOL    HW2 4547   0.497   4.120   5.606  0.7849  0.1609  0.5327
 1420SOL     OW 4548   1.533   3.151   5.864  0.4306  0.6096 -0.1607
 1420SOL    HW1 4549   1.465   3.111   5.926  0.4945  0.0981 -0.4192
 1420SOL    HW2 4550   1.587   3.079   5.822  0.5849  0.9707 -0.5923
 1421SOL     OW 4551   0.852   5.224   1.571  0.2092  0.2950  0.0641
 1421SOL    HW1 4552   0.774   5.176   1.609  0.9922 -1.7493 -0.7740
 1421SOL    HW2 4553   0.820   5.293   1.505 -0.8956  0.1205  0.4010
 1422SOL     OW 4554   0.838   3.954   0.795 -0.8664  0.1639  0.1634
 1422SOL    HW1 4555   0.758   3.983   0.847 -0.6149  1.1599  0.0067
 1422SOL    HW2 4556   0.921   3.966   0.851 -0.8971 -1.9580  0.7680
 1423SOL     OW 4557   1.121   3.614   0.157 -0.3353  0.8957 -0.4473
 1423SOL    HW1 4558   1.210   3.601   0.112 -1.1407 -2.4898 -1.3458
 1423SOL    HW2 4559   1.076   3.695   0.121  1.3085  1.2348 -1.8433
 1424SOL     OW 4560   0.663   4.404   1.633 -0.1009  0.9047  0.0658
 1424SOL    HW1 4561   0.702   4.440   1.548 -0.6555  0.2223 -0.4893
 1424SOL    HW2 4562   0.716   4.325   1.664 -0.8877  0.1232 -0.5605
 1425SOL     OW 4563   0.824   4.507   1.437  0.5165  0.1006 -0.6933
 1425SOL    HW1 4564   0.853   4.498   1.342  1.4246 -0.0900 -0.4077
 1425SOL    HW2 4565   0.886   4.569   1.485 -0.0716  0.3798 -0.2788
 1426SOL     OW 4566   1.082   3.899   5.722 -0.1342  0.5957  0.3461
 1426SOL    HW1 4567   1.006   3.895   5.656 -0.1136  0.5853  0.3230
 1426SOL    HW2 4568   1.129   3.810   5.723 -0.4947  0.4087  0.7963
 1427SOL     OW 4569   1.667   3.559   5.515 -0.0060  0.4182  0.7034
 1427SOL    HW1 4570   1.669   3.592   5.421  1.2535 -0.3870  0.4236
 1427SOL    HW2 4571   1.716   3.624   5.574  0.6617  0.1056  0.5051
 1428SOL     OW 4572   0.169   5.080   1.192  0.2842  0.2468 -0.3187
 1428SOL    HW1 4573   0.093   5.081   1.127 -0.0900 -1.6025  0.0540
 1428SOL    HW2 4574   0.145   5.134   1.272 -0.5700 -0.1767 -0.2839
 1429SOL     OW 4575   1.115   1.777   5.968 -0.3268 -0.0106 -0.0831
 1429SOL    HW1 4576   1.206   1.762   5.930  0.0238  1.4126  0.1536
 1429SOL    HW2 4577   1.081   1.867   5.941 -1.8148 -0.6326 -0.4240
 1430SOL     OW 4578   1.228   4.473   1.851 -0.0621  0.2866 -0.2831
 1430SOL    HW1 4579   1.257   4.412   1.925  0.1419  0.5984 -0.1016
 1430SOL    HW2 4580   1.286   4.458   1.771 -1.1907 -1.0647 -0.8825
 1431SOL     OW 4581   1.102   4.609   1.071 -0.0726 -0.4804  0.0478
 1431SOL    HW1 4582   1.084   4.673   1.146  2.0912 -0.5555  0.6924
 1431SOL    HW2 4583   1.150   4.529   1.106 -0.2239 -1.1515 -1.2212
 1432SOL     OW 4584   0.291   5.326   0.796 -0.2713  0.4606  0.1060
 1432SOL    HW1 4585   0.345   5.321   0.712 -2.6639 -0.7276 -1.4941
 1432SOL    HW2 4586   0.258   5.419   0.809  1.0029  0.8916  0.3628
 1433SOL     OW 4587   1.194   5.534   1.189 -0.6322 -0.0823  0.5921
 1433SOL    HW1 4588   1.192   5.632   1.207 -1.4557  0.1682 -0.6893
 1433SOL    HW2 4589   1.149   5.485   1.263 -1.9526  0.6945  0.3498
 1434SOL     OW 4590   0.341   5.178   5.720  0.7602 -0.2298 -0.4506
 1434SOL    HW1 4591   0.244   5.186   5.699  0.3621 -0.2547  1.2391
 1434SOL    HW2 4592   0.368   5.252   5.782  2.0800  0.3829 -1.6902
 1435SOL     OW 4593   1.128   4.868   2.135 -0.2815 -0.0055  0.3177
 1435SOL    HW1 4594   1.176   4.955   2.151  2.7684 -1.5727  0.4441
 1435SOL    HW2 4595   1.183   4.793   2.171 -2.2854 -2.1244 -0.7987
 1436SOL     OW 4596   1.346   4.192   0.910  0.2694 -0.1138 -0.1098
 1436SOL    HW1 4597   1.339   4.147   0.999  1.8180  0.8789  0.5715
 1436SOL    HW2 4598   1.260   4.182   0.860 -0.4469 -1.1597  1.2648
 1437SOL     OW 4599   0.128   4.759   0.923  0.1242 -0.0192  0.5239
 1437SOL    HW1 4600   0.082   4.829   0.869 -0.7352  0.4770  1.8456
 1437SOL    HW2 4601   0.143   4.678   0.866 -0.6556  0.5088 -0.4732
 1438SOL     OW 4602   1.305   3.666   2.020  0.2486  0.3088 -0.2343
 1438SOL    HW1 4603   1.311   3.717   1.934 -0.5952 -0.8997 -1.0455
 1438SOL    HW2 4604   1.250   3.717   2.086  0.2020  0.8545 -0.6916
 1439SOL     OW 4605   0.394   4.376   1.602 -0.2514  0.3613 -0.4346
 1439SOL    HW1 4606   0.493   4.374   1.595 -0.0746 -1.1532  1.6116
 1439SOL    HW2 4607   0.366   4.462   1.645  0.0095  1.3530 -2.1314
 1440SOL     OW 4608   1.566   5.541   0.166  0.5377  0.2617 -0.3210
 1440SOL    HW1 4609   1.489   5.488   0.131  1.0989 -0.8751  0.1395
 1440SOL    HW2 4610   1.533   5.631   0.195 -0.6403 -0.2193 -0.0888
 1441SOL     OW 4611   1.282   4.579   1.438  0.3645 -0.3667 -0.7137
 1441SOL    HW1 4612   1.326   4.662   1.404  1.1765 -1.3437 -2.1501
 1441SOL    HW2 4613   1.211   4.603   1.504  1.5837  1.3741  0.0161
 1442SOL     OW 4614   1.870   5.341   0.560  0.4751  0.6220  0.3438
 1442SOL    HW1 4615   1.947   5.379   0.611  2.0331 -0.2931 -1.2036
 1442SOL    HW2 4616   1.828   5.412   0.503  1.7747  0.6301 -0.6491
 1443SOL     OW 4617   5.919   4.946   0.086  0.3971  0.3065  0.3893
 1443SOL    HW1 4618   5.950   4.851   0.080 -0.6708 -0.0840  0.8374
 1443SOL    HW2 4619   5.908   4.984  -0.006  1.1574  0.1193  0.2142
 1444SOL     OW 4620   1.169   4.232   0.299  0.0045  0.4982 -0.2625
 1444SOL    HW1 4621   1.071   4.253   0.299 -0.2324 -0.2193 -3.0639
 1444SOL    HW2 4622   1.193   4.185   0.384 -2.4397 -0.7608 -0.1740
 1445SOL     OW 4623   4.964   5.400   2.031  0.4331  0.7230  0.2287
 1445SOL    HW1 4624   4.984   5.330   2.099 -0.4303  1.1435  0.9316
 1445SOL    HW2 4625   5.050   5.433   1.990  0.7998 -2.0086 -1.4527
 1446SOL     OW 4626   0.365   5.742   0.497 -0.6798  0.3253 -0.3235
 1446SOL    HW1 4627   0.321   5.824   0.534  0.9327  0.6030  1.1240
 1446SOL    HW2 4628   0.392   5.758   0.402 -0.8305  1.2895 -0.2124
 1447SOL     OW 4629   0.547   3.651   0.285 -0.1185 -0.1385 -0.4843
 1447SOL    HW1 4630   0.471   3.702   0.326  0.4182  0.5055 -0.2633
 1447SOL    HW2 4631   0.517   3.610   0.199 -1.2896 -1.5642  0.5432
 1448SOL     OW 4632   1.796   3.586   0.497  0.3327  0.3187  0.1218
 1448SOL    HW1 4633   1.868   3.566   0.431 -0.8212  0.6804 -1.3049
 1448SOL    HW2 4634   1.828   3.565   0.589  1.3665 -1.9724 -0.6908
 1449SOL     OW 4635   0.342   5.028   5.029  0.1274 -0.1166  0.5279
 1449SOL    HW1 4636   0.418   5.063   4.975 -0.9617  0.4870 -0.6439
 1449SOL    HW2 4637   0.272   4.991   4.969 -1.0986  0.5212  1.5146
 1450SOL     OW 4638   0.584   4.254   2.979 -0.4221 -0.0223 -0.1727
 1450SOL    HW1 4639   0.490   4.247   3.011  0.0345  1.2083  1.6016
 1450SOL    HW2 4640   0.624   4.163   2.971 -1.0644 -0.4639  1.3189
 1451SOL     OW 4641   0.205   5.953   0.572 -0.5616  0.6550  0.5908
 1451SOL    HW1 4642   0.233   6.002   0.654 -1.3870  0.1920  1.1578
 1451SOL    HW2 4643   0.110   5.923   0.581 -0.2576 -0.5400  0.0102
 1452SOL     OW 4644   0.994   4.344   1.730  0.6315  0.1291 -0.2216
 1452SOL    HW1 4645   1.091   4.363   1.749  0.0686  1.4841  1.5547
 1452SOL    HW2 4646   0.939   4.424   1.753 -1.3599 -1.9273  2.9378
 1453SOL     OW 4647   0.708   5.638   0.799 -0.4331  0.1928  0.4821
 1453SOL    HW1 4648   0.718   5.727   0.844 -0.6087  1.9029 -2.5740
 1453SOL    HW2 4649   0.797   5.593   0.795 -0.1394  0.6861  1.1539
 1454SOL     OW 4650   2.645   5.753   5.964 -0.2529 -0.5822 -0.1532
 1454SOL    HW1 4651   2.674   5.842   5.928  0.3709 -0.5901  0.3141
 1454SOL    HW2 4652   2.598   5.767   6.051  1.9880 -0.8649  1.1727
 1455SOL     OW 4653   1.209   3.788   0.551  0.0267  0.0230  0.3360
 1455SOL    HW1 4654   1.141   3.769   0.481  1.1086  1.7541 -1.2981
 1455SOL    HW2 4655   1.266   3.707   0.566  0.4332 -0.1045 -1.6060
 1456SOL     OW 4656   1.874   3.593   0.761  0.4839 -0.2660  0.6105
 1456SOL    HW1 4657   1.917   3.613   0.849  0.3258 -1.7486  1.0575
 1456SOL    HW2 4658   1.781   3.628   0.760  0.2526 -0.8427  1.3156
 1457SOL     OW 4659   0.486   3.695   5.540 -0.1767 -0.0242  0.3961
 1457SOL    HW1 4660   0.533   3.775   5.578  0.6176  0.2738 -1.1399
 1457SOL    HW2 4661   0.538   3.661   5.462 -1.5072 -0.9069 -0.1242
 1458SOL     OW 4662   5.958   4.458   1.070 -0.0099 -0.0731 -0.6441
 1458SOL    HW1 4663   6.020   4.484   0.996  2.0131 -2.1336  0.1954
 1458SOL    HW2 4664   5.880   4.408   1.032 -0.1153  0.7221 -1.5307
 1459SOL     OW 4665   2.137   0.352   0.094 -0.0265  0.4254  0.5574
 1459SOL    HW1 4666   2.146   0.425   0.162  2.8944  1.7392 -1.0547
 1459SOL    HW2 4667   2.218   0.294   0.095 -0.5561 -0.4123 -0.8225
 1460SOL     OW 4668   5.710   4.499   1.477 -0.5529  0.2838 -0.1585
 1460SOL    HW1 4669   5.665   4.417   1.512 -1.1420  1.2873  1.5603
 1460SOL    HW2 4670   5.809   4.483   1.473 -0.8585 -1.6449 -3.1838
 1461SOL     OW 4671   2.289   0.344   0.732 -0.1162  0.2693 -0.4696
 1461SOL    HW1 4672   2.191   0.327   0.728 -0.2327 -0.3619  2.5352
 1461SOL    HW2 4673   2.337   0.274   0.679 -1.2067 -0.9463  0.0981
 1462SOL     OW 4674   2.210   2.328   5.908  0.3699 -0.4303  0.2331
 1462SOL    HW1 4675   2.282   2.362   5.968 -0.4811 -1.8025  2.1251
 1462SOL    HW2 4676   2.250   2.275   5.834  1.3076 -1.7355  1.6290
 1463SOL     OW 4677   0.144   3.797   1.088  0.2439 -0.4872  0.0658
 1463SOL    HW1 4678   0.202   3.736   1.141  1.6419 -0.3791 -1.2792
 1463SOL    HW2 4679   0.152   3.890   1.123  1.5272 -0.3329 -0.5894
 1464SOL     OW 4680   1.055   3.393   0.280 -0.0320  0.2929 -0.1570
 1464SOL    HW1 4681   1.064   3.462   0.208  0.4348 -0.4555 -0.8366
 1464SOL    HW2 4682   1.138   3.336   0.282 -0.4797 -0.3573  0.2726
 1465SOL     OW 4683   5.989   4.214   0.405  0.2099  0.0389 -0.3378
 1465SOL    HW1 4684   6.040   4.297   0.424 -0.6860  0.2787  1.2034
 1465SOL    HW2 4685   5.931   4.191   0.484  0.0994 -1.7961 -0.8988
 1466SOL     OW 4686   2.006   3.373   5.637 -0.2441  0.3413  0.1018
 1466SOL    HW1 4687   1.938   3.410   5.700 -0.9072 -0.1949 -0.2746
 1466SOL    HW2 4688   1.963   3.357   5.547  0.9344  2.0853 -0.8234
 1467SOL     OW 4689   1.125   4.181   0.722 -0.4225  0.0401  0.6204
 1467SOL    HW1 4690   1.050   4.224   0.673 -1.3286 -0.5660  1.4337
 1467SOL    HW2 4691   1.182   4.130   0.657 -1.3601 -0.4163  0.1264
 1468SOL     OW 4692   0.383   4.736   5.746  0.2589  0.3755  0.1463
 1468SOL    HW1 4693   0.331   4.767   5.668  1.7547 -0.8176 -1.4082
 1468SOL    HW2 4694   0.328   4.672   5.800 -1.0299  1.7477  0.5294
 1469SOL     OW 4695   0.899   4.388   1.195 -0.2229 -0.1967 -0.1954
 1469SOL    HW1 4696   0.804   4.373   1.167 -0.2087 -2.2475  0.6811
 1469SOL    HW2 4697   0.959   4.379   1.115 -0.6042 -0.9738 -0.4068
 1470SOL     OW 4698   0.693   5.044   4.686 -0.3604 -0.0426 -0.1929
 1470SOL    HW1 4699   0.771   5.075   4.740 -1.0032  0.0965  0.6763
 1470SOL    HW2 4700   0.608   5.073   4.730 -0.9349 -1.2008 -0.4886
 1471SOL     OW 4701   1.272   4.422   1.182 -0.3626  0.2606  0.3271
 1471SOL    HW1 4702   1.300   4.462   1.270  0.6669  0.6523 -0.1665
 1471SOL    HW2 4703   1.280   4.323   1.187  0.1130  0.3037  0.5420
 1472SOL     OW 4704   1.373   4.396   5.322 -0.3918  0.9159 -0.1241
 1472SOL    HW1 4705   1.362   4.454   5.241 -0.8016  0.1880 -0.6037
 1472SOL    HW2 4706   1.289   4.345   5.338  0.3599 -0.4661 -0.4487
 1473SOL     OW 4707   5.602   5.266   0.524 -0.1458 -0.5057 -0.2531
 1473SOL    HW1 4708   5.657   5.249   0.606 -0.7736 -0.9903  0.0773
 1473SOL    HW2 4709   5.515   5.217   0.532 -2.0458  2.7054  0.7164
 1474SOL     OW 4710   2.605   5.559   5.588  0.4695  0.1223  0.2665
 1474SOL    HW1 4711   2.537   5.494   5.554 -0.4475  1.6997 -1.1150
 1474SOL    HW2 4712   2.569   5.605   5.669 -0.0899  0.8444 -0.3726
 1475SOL     OW 4713   0.390   4.787   1.790  0.1516  0.0124  0.0048
 1475SOL    HW1 4714   0.445   4.747   1.716 -0.4696 -0.5235 -0.1765
 1475SOL    HW2 4715   0.408   4.737   1.875  1.3469  1.0299  0.3839
 1476SOL     OW 4716   1.512   4.418   0.924  0.1639  0.7626  0.1036
 1476SOL    HW1 4717   1.464   4.331   0.913  0.1691  0.8182 -0.3998
 1476SOL    HW2 4718   1.452   4.484   0.969 -0.9012  1.3787 -2.0971
 1477SOL     OW 4719   0.393   3.990   0.535  0.4727 -0.0869 -0.0234
 1477SOL    HW1 4720   0.469   3.937   0.573 -0.1467 -0.1288  1.2105
 1477SOL    HW2 4721   0.386   4.078   0.582  0.2236  0.2440 -0.6573
 1478SOL     OW 4722   1.234   4.883   1.619 -0.4076 -0.0335  0.1814
 1478SOL    HW1 4723   1.333   4.872   1.610 -0.2908  1.5017 -0.7994
 1478SOL    HW2 4724   1.213   4.915   1.712 -0.0211 -0.5711  0.4654
 1479SOL     OW 4725   1.241   2.760   1.771 -0.2370 -0.4742  0.1770
 1479SOL    HW1 4726   1.203   2.668   1.769 -0.1738 -0.5622  1.7815
 1479SOL    HW2 4727   1.168   2.826   1.785  0.0234 -0.5482  2.0723
 1480SOL     OW 4728   0.389   5.038   2.334  0.1632  0.1708  0.1866
 1480SOL    HW1 4729   0.429   4.956   2.294  0.6895  0.4761  0.0720
 1480SOL    HW2 4730   0.436   5.119   2.297 -0.2329  0.5118  0.4264
 1481SOL     OW 4731   1.225   4.522   0.333 -0.1391 -0.4916 -0.1910
 1481SOL    HW1 4732   1.247   4.425   0.342  0.5669 -0.1463  2.7207
 1481SOL    HW2 4733   1.305   4.571   0.299  0.4757 -0.5810  1.0632
 1482SOL     OW 4734   5.809   4.718   1.696  0.2963 -0.1853 -0.4116
 1482SOL    HW1 4735   5.843   4.656   1.767  0.5111 -0.8694 -1.1024
 1482SOL    HW2 4736   5.770   4.666   1.621  0.6902  0.5021 -1.1135
 1483SOL     OW 4737   1.391   3.626   5.430  0.2367 -0.3762  0.2101
 1483SOL    HW1 4738   1.390   3.548   5.368  0.4666 -0.7622  0.6772
 1483SOL    HW2 4739   1.470   3.683   5.411  0.0856 -0.2755 -0.1131
 1484SOL     OW 4740   0.378   5.258   1.461 -0.7203 -0.1639  0.0669
 1484SOL    HW1 4741   0.282   5.230   1.461 -0.6584 -1.2783 -4.3727
 1484SOL    HW2 4742   0.436   5.179   1.482 -0.7407 -0.1941  0.0104
 1485SOL     OW 4743   0.492   5.940   1.988  0.1064  0.2050  0.3730
 1485SOL    HW1 4744   0.428   5.883   2.039  1.0667 -0.6397  0.6812
 1485SOL    HW2 4745   0.450   5.969   1.902  0.2133 -2.5962 -0.7196
 1486SOL     OW 4746   0.175   4.530   0.363  0.3872  0.0648  0.0612
 1486SOL    HW1 4747   0.225   4.459   0.315  0.6832  1.4779 -1.8297
 1486SOL    HW2 4748   0.178   4.512   0.462  0.3012 -2.5770 -0.3480
 1487SOL     OW 4749   0.039   0.371   0.587 -0.8976  0.4324 -0.0269
 1487SOL    HW1 4750  -0.002   0.280   0.584 -1.0527  0.4098  1.5834
 1487SOL    HW2 4751   0.075   0.395   0.497  0.1154 -1.6672 -0.2444
 1488SOL     OW 4752   0.807   0.251   1.003  0.5735 -0.2482  0.2917
 1488SOL    HW1 4753   0.869   0.329   1.011  0.1504  0.1006  0.2061
 1488SOL    HW2 4754   0.825   0.187   1.078  1.9589 -0.8177 -0.4995
 1489SOL     OW 4755   1.585   4.151   6.020  0.3862  0.0731  0.2332
 1489SOL    HW1 4756   1.552   4.219   5.955  0.6410  0.4513  0.4962
 1489SOL    HW2 4757   1.580   4.060   5.979  2.3742  0.4779 -1.0653
 1490SOL     OW 4758   0.039   5.778   1.594 -0.1599  0.7931 -0.0335
 1490SOL    HW1 4759   0.019   5.694   1.644 -0.8455  0.7366 -0.3989
 1490SOL    HW2 4760  -0.041   5.837   1.593 -0.2123  0.7357 -1.1815
 1491SOL     OW 4761   0.287   4.440   1.940 -0.3625 -0.3628  0.1246
 1491SOL    HW1 4762   0.320   4.347   1.952 -1.7729 -0.7461  1.4290
 1491SOL    HW2 4763   0.216   4.441   1.869 -1.7137 -0.6883  1.4198
 1492SOL     OW 4764   1.758   4.289   1.545  0.9236 -0.3140 -0.0953
 1492SOL    HW1 4765   1.778   4.380   1.581 -0.1453 -0.2727  0.4261
 1492SOL    HW2 4766   1.677   4.293   1.487  1.3753 -0.7857 -0.7820
 1493SOL     OW 4767   1.783   3.339   2.371 -0.7179 -0.5049  0.0674
 1493SOL    HW1 4768   1.873   3.374   2.397 -0.2927 -1.8348  0.4603
 1493SOL    HW2 4769   1.726   3.415   2.339 -0.6882  0.9923  3.1876
 1494SOL     OW 4770   1.697   4.046   1.094  0.0312 -0.0869  0.0019
 1494SOL    HW1 4771   1.759   4.081   1.023 -1.9300  1.2763 -1.1251
 1494SOL    HW2 4772   1.630   3.985   1.052  0.8638 -1.9607  1.2891
 1495SOL     OW 4773   0.121   5.179   1.452 -0.3395  0.7575  0.0735
 1495SOL    HW1 4774   0.136   5.081   1.463 -0.7665  0.5283 -1.1458
 1495SOL    HW2 4775   0.052   5.210   1.518 -0.0360  0.2914  0.6184
 1496SOL     OW 4776   0.683   4.306   0.718  0.2575 -0.0632  0.2734
 1496SOL    HW1 4777   0.707   4.385   0.776  0.4700 -0.2871  0.4951
 1496SOL    HW2 4778   0.765   4.275   0.670  0.0579  0.1873 -0.2335
 1497SOL     OW 4779   1.540   3.835   5.785  0.2807  0.2666  0.0592
 1497SOL    HW1 4780   1.514   3.851   5.880  1.1018  1.6543  0.0742
 1497SOL    HW2 4781   1.566   3.921   5.743  1.3265 -0.5496 -1.0109
 1498SOL     OW 4782   0.780   4.137   0.022 -0.0921 -0.2576  0.1546
 1498SOL    HW1 4783   0.696   4.172  -0.018  0.2339 -0.2653 -0.5426
 1498SOL    HW2 4784   0.759   4.085   0.105 -0.6146  1.3538  1.0793
 1499SOL     OW 4785   5.961   5.447   0.659 -0.5208  0.3826  0.1019
 1499SOL    HW1 4786   6.029   5.479   0.725 -0.4246  0.1148  0.1340
 1499SOL    HW2 4787   5.939   5.520   0.595  0.9990 -0.0224 -0.9147
 1500SOL     OW 4788   0.563   3.956   0.082  0.7325 -0.4908 -0.1887
 1500SOL    HW1 4789   0.611   3.897   0.016 -0.3036 -3.4261  1.4841
 1500SOL    HW2 4790   0.608   3.951   0.170 -0.8834 -0.9557  0.6532
 1501SOL     OW 4791   3.148   4.976   1.709  0.1987  0.3104  0.8737
 1501SOL    HW1 4792   3.209   5.004   1.635  0.6682 -0.6991  0.8606
 1501SOL    HW2 4793   3.201   4.929   1.779 -0.4726 -0.0045  1.1739
 1502SOL     OW 4794   1.440   4.081   0.334 -0.2055 -0.3159 -0.4430
 1502SOL    HW1 4795   1.446   4.119   0.242 -1.8463 -1.4098 -1.0500
 1502SOL    HW2 4796   1.509   4.010   0.346  0.7952  0.6402 -0.3866
 1503SOL     OW 4797   2.038   3.782   1.554 -0.1336 -0.4866 -0.1907
 1503SOL    HW1 4798   2.044   3.768   1.455 -1.7722 -1.2696 -0.2229
 1503SOL    HW2 4799   2.064   3.698   1.602 -1.2823 -0.7709 -0.0435
 1504SOL     OW 4800   0.005   4.739   5.508  0.5236  0.6846 -0.0026
 1504SOL    HW1 4801   0.086   4.796   5.526  1.7042 -1.0257  0.3649
 1504SOL    HW2 4802   0.033   4.643   5.499 -1.3459  0.1867 -1.0101
 1505SOL     OW 4803   1.175   5.119   0.845 -0.4248 -0.2675  0.5638
 1505SOL    HW1 4804   1.246   5.114   0.774 -1.4418 -1.6761 -0.3994
 1505SOL    HW2 4805   1.184   5.040   0.906 -0.4158  0.2166  1.2034
 1506SOL     OW 4806   1.790   5.081   1.287 -0.6039  0.6187  0.4547
 1506SOL    HW1 4807   1.752   5.129   1.209 -0.0899  0.6299  0.2084
 1506SOL    HW2 4808   1.740   4.995   1.301  0.8639 -0.6226 -1.4360
 1507SOL     OW 4809   0.980   3.489   1.244  0.2833 -0.3645  0.1344
 1507SOL    HW1 4810   1.023   3.492   1.154 -0.7722 -1.5288 -0.4352
 1507SOL    HW2 4811   0.884   3.518   1.237  0.0761 -0.8472  0.8084
 1508SOL     OW 4812   1.709   2.253   0.162  0.1508 -0.1094  0.2209
 1508SOL    HW1 4813   1.802   2.280   0.188  0.4963 -0.5588 -0.5189
 1508SOL    HW2 4814   1.709   2.220   0.067 -1.0778  1.5643 -0.4202
 1509SOL     OW 4815   0.747   4.951   5.728  0.3981  0.0997  0.1381
 1509SOL    HW1 4816   0.663   4.924   5.774  0.6690 -0.3857  0.3582
 1509SOL    HW2 4817   0.826   4.929   5.787  0.6448  1.1391  0.2133
 1510SOL     OW 4818   1.455   0.338   0.768  0.0831 -0.0027 -0.0840
 1510SOL    HW1 4819   1.507   0.283   0.833  0.0885 -0.7964 -0.7476
 1510SOL    HW2 4820   1.518   0.386   0.706  0.1444  1.8477  1.3137
 1511SOL     OW 4821   5.695   5.629   2.211  0.1444 -0.1475 -0.0762
 1511SOL    HW1 4822   5.641   5.712   2.201 -0.5131 -0.5655 -0.0293
 1511SOL    HW2 4823   5.753   5.617   2.130 -1.4200 -0.8250 -1.1485
 1512SOL     OW 4824   5.879   4.068   0.628  0.5404 -0.1103 -0.6160
 1512SOL    HW1 4825   5.852   4.039   0.720 -0.6686  0.3768 -0.7865
 1512SOL    HW2 4826   5.918   3.991   0.578 -1.5865 -1.2234 -0.6943
 1513SOL     OW 4827   1.225   4.545   0.010 -0.0187  0.1778 -0.2899
 1513SOL    HW1 4828   1.170   4.608   0.065 -1.1003  0.2245 -1.3783
 1513SOL    HW2 4829   1.167   4.471  -0.023  0.8249 -0.3540 -0.5924
 1514SOL     OW 4830   1.048   5.192   2.620  0.1993 -0.0265  0.1586
 1514SOL    HW1 4831   1.112   5.254   2.575 -0.1151 -0.9448 -1.6547
 1514SOL    HW2 4832   0.955   5.222   2.603  0.0582 -0.7286 -0.3631
 1515SOL     OW 4833   0.260   4.898   5.539 -0.0590 -0.1809  0.0836
 1515SOL    HW1 4834   0.222   4.981   5.581 -1.4926 -0.4505 -0.6029
 1515SOL    HW2 4835   0.301   4.922   5.451 -2.0920 -0.4095 -0.9878
 1516SOL     OW 4836   0.340   5.686   1.252  0.3409 -0.6316  0.1689
 1516SOL    HW1 4837   0.242   5.684   1.271  0.2779 -1.6945 -0.2031
 1516SOL    HW2 4838   0.380   5.596   1.270  0.9386 -0.6654 -1.1576
 1517SOL     OW 4839   0.345   5.487   2.160  0.5202  0.2969 -0.1337
 1517SOL    HW1 4840   0.300   5.492   2.071  1.0777 -0.6615 -0.4834
 1517SOL    HW2 4841   0.338   5.575   2.206 -1.7955  0.1635 -0.1322
 1518SOL     OW 4842   0.783   4.854   5.478 -0.3798 -0.4309  0.5855
 1518SOL    HW1 4843   0.775   4.917   5.401 -0.4801 -1.7578 -0.5311
 1518SOL    HW2 4844   0.752   4.899   5.562 -2.7580  0.2742 -0.5819
 1519SOL     OW 4845   5.268   3.508   1.297 -0.3248  0.7188 -0.2020
 1519SOL    HW1 4846   5.222   3.551   1.219  2.4210 -1.2161 -3.1563
 1519SOL    HW2 4847   5.212   3.433   1.332 -0.4680 -0.1996 -2.2532
 1520SOL     OW 4848   0.464   4.646   1.988  0.3870 -0.0071  0.6659
 1520SOL    HW1 4849   0.389   4.580   1.989 -0.3586  0.8243  1.4451
 1520SOL    HW2 4850   0.549   4.601   2.017  0.1301 -0.8776  0.0901
 1521SOL     OW 4851   1.999   5.225   1.606 -0.0206 -0.3919  0.1585
 1521SOL    HW1 4852   2.076   5.234   1.542  0.6699 -0.1051  1.0193
 1521SOL    HW2 4853   1.984   5.312   1.652 -0.5190 -0.6007  0.3993
 1522SOL     OW 4854   5.803   4.367   5.461 -0.3567 -0.0252  0.0814
 1522SOL    HW1 4855   5.706   4.361   5.486 -0.0788 -0.1034  1.1883
 1522SOL    HW2 4856   5.811   4.404   5.368 -1.5250 -2.5375 -1.0977
 1523SOL     OW 4857   2.390   4.223   0.445  0.5598 -0.0611 -0.3650
 1523SOL    HW1 4858   2.397   4.211   0.544 -2.1268  0.9934  0.0325
 1523SOL    HW2 4859   2.315   4.167   0.410  1.0217  0.1243 -1.7049
 1524SOL     OW 4860   5.851   5.290   1.626 -0.2393  0.3793  0.0734
 1524SOL    HW1 4861   5.790   5.329   1.557 -0.1601  0.9380  0.3132
 1524SOL    HW2 4862   5.819   5.198   1.651 -0.8666  0.5902  0.0551
 1525SOL     OW 4863   5.324   5.171   1.522 -0.3160  0.2402 -0.4297
 1525SOL    HW1 4864   5.411   5.126   1.500 -0.2231  1.4233 -2.8263
 1525SOL    HW2 4865   5.265   5.107   1.571  0.9442 -1.4355 -0.9945
 1526SOL     OW 4866   0.371   0.021   1.779  0.0450 -0.0126  0.7495
 1526SOL    HW1 4867   0.345  -0.052   1.716  2.6690 -1.0216  0.7050
 1526SOL    HW2 4868   0.349   0.110   1.738  3.2103 -0.5235 -2.5666
 1527SOL     OW 4869   0.155   2.417   4.717  0.0701 -0.4229  0.2849
 1527SOL    HW1 4870   0.116   2.329   4.746 -0.4230 -0.2106  0.2573
 1527SOL    HW2 4871   0.128   2.437   4.623  0.1664 -0.2301  0.2970
 1528SOL     OW 4872   5.594   5.457   1.844  0.5035 -0.0817  0.5444
 1528SOL    HW1 4873   5.501   5.456   1.881  0.6410  0.1467  0.9059
 1528SOL    HW2 4874   5.649   5.388   1.891 -0.1197 -2.0102 -1.3974
 1529SOL     OW 4875   1.970   4.169   1.050  0.0993 -0.2002 -0.6820
 1529SOL    HW1 4876   2.026   4.215   0.981  0.4563  1.1877  0.4893
 1529SOL    HW2 4877   2.015   4.085   1.079  1.6770  0.9266  0.3009
 1530SOL     OW 4878   5.939   5.870   0.609 -0.1445  0.1699 -0.0862
 1530SOL    HW1 4879   5.856   5.888   0.661 -0.3498  1.4925 -0.8238
 1530SOL    HW2 4880   5.931   5.782   0.562 -0.9160  0.0689  0.2266
 1531SOL     OW 4881   2.705   5.678   0.847 -0.5869  0.1285 -0.1017
 1531SOL    HW1 4882   2.729   5.704   0.753  2.4064 -1.9808 -0.0417
 1531SOL    HW2 4883   2.624   5.620   0.846 -2.3234  2.4131 -1.0005
 1532SOL     OW 4884   0.830   5.419   1.984 -0.0121 -0.4818  0.0086
 1532SOL    HW1 4885   0.857   5.323   1.978  0.9692 -0.1620 -1.4355
 1532SOL    HW2 4886   0.734   5.429   1.957 -0.0182 -1.0135 -0.1751
 1533SOL     OW 4887   5.652   1.184   2.529  0.4608 -0.1699  0.3676
 1533SOL    HW1 4888   5.655   1.198   2.430  1.8227 -1.7120  0.1497
 1533SOL    HW2 4889   5.589   1.109   2.551 -0.3089  0.5676  0.7470
 1534SOL     OW 4890   1.051   4.964   1.454 -0.2281 -0.2640 -0.0739
 1534SOL    HW1 4891   1.042   5.063   1.468 -1.2337 -0.1779 -1.1931
 1534SOL    HW2 4892   1.135   4.932   1.498 -0.7056  0.8040  1.7315
 1535SOL     OW 4893   1.802   3.383   0.129 -0.3134  0.4828 -0.2679
 1535SOL    HW1 4894   1.782   3.300   0.181 -0.7973  1.1386  0.6173
 1535SOL    HW2 4895   1.835   3.454   0.191 -0.0076  0.9893 -0.9988
 1536SOL     OW 4896   0.787   5.001   0.519  0.3475  0.0961  0.5313
 1536SOL    HW1 4897   0.709   4.939   0.514  2.0135 -2.1380  0.8087
 1536SOL    HW2 4898   0.816   5.012   0.614 -0.9433  2.7734  0.7170
 1537SOL     OW 4899   1.500   5.158   0.232 -0.2048 -0.3421 -0.3745
 1537SOL    HW1 4900   1.448   5.154   0.317 -0.3398 -2.0659 -0.5060
 1537SOL    HW2 4901   1.467   5.234   0.177 -2.0268 -0.8714 -0.0741
 1538SOL     OW 4902   0.149   5.034   2.157  0.8253  0.1057 -0.3009
 1538SOL    HW1 4903   0.087   4.956   2.150  0.5197  0.3880 -0.8384
 1538SOL    HW2 4904   0.205   5.025   2.239  0.2800 -0.3046  0.0316
 1539SOL     OW 4905   0.429   4.216   0.675 -0.5567  0.3851 -0.1240
 1539SOL    HW1 4906   0.387   4.210   0.766  1.0772 -1.6684  0.5979
 1539SOL    HW2 4907   0.526   4.239   0.685 -0.5826  1.1219 -1.4380
 1540SOL     OW 4908   0.463   1.024   1.292  0.0266 -0.4036 -0.4192
 1540SOL    HW1 4909   0.550   1.050   1.251  0.4376 -1.0681  0.0047
 1540SOL    HW2 4910   0.398   1.098   1.282  0.9088  0.4546  0.0230
 1541SOL     OW 4911   1.790   0.213   0.126 -0.3810  0.2833 -0.4194
 1541SOL    HW1 4912   1.813   0.310   0.120  1.4869  0.2241  2.9617
 1541SOL    HW2 4913   1.854   0.159   0.072 -0.2543  0.8394 -0.8232
 1542SOL     OW 4914   1.737   5.751   0.800  0.0654  0.0522  0.0431
 1542SOL    HW1 4915   1.659   5.725   0.742  0.7152  1.3881 -1.5061
 1542SOL    HW2 4916   1.710   5.827   0.860 -0.2743 -0.5785  0.7101
 1543SOL     OW 4917   1.957   2.851   2.330 -0.1400  0.5519 -0.5931
 1543SOL    HW1 4918   2.028   2.921   2.339 -1.0080  1.5509 -1.2361
 1543SOL    HW2 4919   1.888   2.864   2.402 -0.2742  0.3212 -0.6771
 1544SOL     OW 4920   5.707   3.535   0.110  0.2773  0.4726  1.0863
 1544SOL    HW1 4921   5.673   3.450   0.151  1.7222 -0.4227  0.4959
 1544SOL    HW2 4922   5.668   3.546   0.019  2.9479 -1.6447 -0.4759
 1545SOL     OW 4923   2.071   5.383   5.567  0.0957  0.7369  0.1490
 1545SOL    HW1 4924   2.086   5.290   5.534  2.1627  1.0547  0.1061
 1545SOL    HW2 4925   1.976   5.392   5.597 -0.5110 -0.9822 -1.0888
 1546SOL     OW 4926   0.142   5.409   1.308  1.0406  0.0780 -0.1978
 1546SOL    HW1 4927   0.127   5.327   1.362  0.7945  0.6833  0.6733
 1546SOL    HW2 4928   0.239   5.435   1.313  0.9240  0.4106  0.3613
 1547SOL     OW 4929   0.423   3.166   5.492 -0.1386  0.2857 -0.0235
 1547SOL    HW1 4930   0.502   3.194   5.547  3.2247 -0.6073 -3.9545
 1547SOL    HW2 4931   0.412   3.229   5.415 -1.1996 -1.4763 -1.3838
 1548SOL     OW 4932   2.144   5.969   5.798 -0.3076  0.8996  0.1549
 1548SOL    HW1 4933   2.136   5.946   5.701  1.0136 -0.4021  0.3312
 1548SOL    HW2 4934   2.222   5.921   5.838 -0.4100  1.9581  1.7152
 1549SOL     OW 4935  -0.019   4.925   1.327 -0.2801  0.4093 -0.3508
 1549SOL    HW1 4936   0.078   4.935   1.304 -0.1857 -0.4583 -0.3628
 1549SOL    HW2 4937  -0.027   4.896   1.423 -0.4348 -1.4225 -0.8906
 1550SOL     OW 4938   1.763   5.430   1.860  0.4558  0.7721 -0.0930
 1550SOL    HW1 4939   1.682   5.476   1.897 -0.5866 -0.1553 -1.1676
 1550SOL    HW2 4940   1.772   5.340   1.901  1.5682  1.2496  0.7887
 1551SOL     OW 4941   5.856   4.718   1.164  0.6713  0.7161 -0.3770
 1551SOL    HW1 4942   5.901   4.632   1.140 -1.4222 -0.3590 -0.6306
 1551SOL    HW2 4943   5.925   4.783   1.197  2.1411 -1.4808  1.1154
 1552SOL     OW 4944   0.328   4.334   0.244 -0.5204  0.3936 -0.6283
 1552SOL    HW1 4945   0.308   4.238   0.260  1.1249  0.2340  0.6746
 1552SOL    HW2 4946   0.331   4.352   0.146 -1.1025 -0.8187 -0.8760
 1553SOL     OW 4947   2.033   5.909   0.214 -0.3960  0.0080  0.4011
 1553SOL    HW1 4948   1.996   5.817   0.206 -2.6883  0.9520 -0.7935
 1553SOL    HW2 4949   2.024   5.957   0.126  0.6404  1.4296  1.0201
 1554SOL     OW 4950   0.586   4.215   2.657  0.3863 -0.2063  0.4424
 1554SOL    HW1 4951   0.515   4.197   2.725  0.0539 -0.5236  0.0206
 1554SOL    HW2 4952   0.653   4.279   2.694 -0.6117  0.8159  0.5281
 1555SOL     OW 4953   5.154   4.804   5.353  0.1976  0.1508 -0.2373
 1555SOL    HW1 4954   5.117   4.770   5.267 -0.8369 -0.7441  0.5462
 1555SOL    HW2 4955   5.201   4.891   5.336 -1.1422  0.6811 -1.4783
 1556SOL     OW 4956   0.279   3.615   1.270  0.2288 -0.4109 -0.2918
 1556SOL    HW1 4957   0.352   3.552   1.242  0.9276 -0.4175  1.4080
 1556SOL    HW2 4958   0.275   3.618   1.370 -1.2697  0.5823 -0.3562
 1557SOL     OW 4959   1.481   5.039   1.631  0.2361  0.3371 -0.1605
 1557SOL    HW1 4960   1.580   5.041   1.642  0.2028 -0.3499  0.3083
 1557SOL    HW2 4961   1.457   5.071   1.539  0.9091  0.2382 -0.3751
 1558SOL     OW 4962   0.306   3.932   4.711  0.1287  0.1121 -0.3659
 1558SOL    HW1 4963   0.340   4.015   4.756  0.9853  0.4627 -1.6178
 1558SOL    HW2 4964   0.231   3.956   4.649  0.5751  0.0159 -0.9541
 1559SOL     OW 4965   1.541   3.690   1.645 -0.4824  0.0352 -0.6024
 1559SOL    HW1 4966   1.549   3.594   1.617 -0.9444 -0.0797 -0.3513
 1559SOL    HW2 4967   1.614   3.743   1.602  0.5725 -0.6566  0.2569
 1560SOL     OW 4968   0.993   4.656   0.381  0.1013  0.2802  0.0486
 1560SOL    HW1 4969   0.931   4.654   0.302  1.2553 -0.5799 -0.8607
 1560SOL    HW2 4970   1.065   4.588   0.369  0.5691  0.4561  1.6416
 1561SOL     OW 4971   0.966   4.872   5.874 -0.1985  0.2413  0.6630
 1561SOL    HW1 4972   0.911   4.789   5.889  0.3157  0.0247  1.4085
 1561SOL    HW2 4973   0.999   4.873   5.780  0.3794 -0.7658  0.8407
 1562SOL     OW 4974   0.547   4.161   1.132  0.0013  0.3493  0.1085
 1562SOL    HW1 4975   0.580   4.253   1.111  0.1384  0.4974  0.9561
 1562SOL    HW2 4976   0.590   4.095   1.071  1.7981  0.5520  1.1001
 1563SOL     OW 4977   5.969   5.114   0.986  0.3480 -0.1020 -0.2013
 1563SOL    HW1 4978   5.995   5.210   0.978 -1.6027  0.6434  1.6566
 1563SOL    HW2 4979   5.948   5.077   0.895 -0.2977  1.6612 -0.7995
 1564SOL     OW 4980   5.867   3.950   1.831 -0.2011  0.4540  0.4082
 1564SOL    HW1 4981   5.926   3.870   1.837  0.1142  0.7098  0.7292
 1564SOL    HW2 4982   5.907   4.015   1.766 -0.2129  0.5557  0.5033
 1565SOL     OW 4983   1.885   3.343   1.507 -0.0972  0.0747 -0.9633
 1565SOL    HW1 4984   1.880   3.265   1.570 -0.0765 -1.0728 -2.3169
 1565SOL    HW2 4985   1.981   3.370   1.495 -0.0581 -0.0241 -0.8718
 1566SOL     OW 4986   0.304   4.936   1.453 -0.1359  0.2636 -0.1392
 1566SOL    HW1 4987   0.280   4.854   1.506 -0.3449 -0.5805 -1.4936
 1566SOL    HW2 4988   0.337   4.908   1.363  0.3268  1.6646 -0.4174
 1567SOL     OW 4989   1.791   4.260   0.472  0.4176 -0.0285 -0.4217
 1567SOL    HW1 4990   1.764   4.172   0.512 -1.4336  0.5381 -0.3165
 1567SOL    HW2 4991   1.808   4.248   0.374  2.6714 -0.9662  0.0311
 1568SOL     OW 4992   1.329   3.556   5.963  0.3821 -0.5531  0.0712
 1568SOL    HW1 4993   1.373   3.552   5.874  0.0606  0.8626 -0.1724
 1568SOL    HW2 4994   1.392   3.596   6.030  1.0134 -2.5637  0.7749
 1569SOL     OW 4995   0.301   5.047   0.848 -0.0745  0.5879 -0.2534
 1569SOL    HW1 4996   0.296   5.147   0.846  0.1690  0.6878  2.0761
 1569SOL    HW2 4997   0.244   5.011   0.921  0.8791 -0.9008 -0.1925
 1570SOL     OW 4998   2.193   3.861   2.460 -0.1407 -0.3284  0.6517
 1570SOL    HW1 4999   2.292   3.865   2.449 -0.3038  2.8227 -0.5514
 1570SOL    HW2 5000   2.153   3.951   2.442 -3.4651 -1.9996 -1.2995
 1571SOL     OW 5001   2.084   4.553   0.514  0.1778 -0.4940  0.4447
 1571SOL    HW1 5002   2.083   4.542   0.614  1.3914  0.8986  0.6564
 1571SOL    HW2 5003   2.132   4.638   0.491 -2.1726  0.4771 -1.2479
 1572SOL     OW 5004   5.659   4.200  -0.004  0.0087  0.1541 -0.2127
 1572SOL    HW1 5005   5.656   4.291   0.038  0.4529 -0.5610  1.4210
 1572SOL    HW2 5006   5.749   4.159   0.009 -1.2004 -1.9792  2.3967
 1573SOL     OW 5007   5.510   4.806   5.782 -0.3849  0.3522 -0.4252
 1573SOL    HW1 5008   5.414   4.813   5.753 -0.5132  1.2445  0.1799
 1573SOL    HW2 5009   5.522   4.727   5.842 -0.3913 -0.7292 -1.7938
 1574SOL     OW 5010   1.092   0.062   0.811  0.0884  0.2271  0.2336
 1574SOL    HW1 5011   1.091  -0.006   0.738  0.6822  0.2226  0.2266
 1574SOL    HW2 5012   1.001   0.102   0.821 -0.2246 -0.4471  0.1262
 1575SOL     OW 5013   2.885   3.662   5.329  0.3532  0.2785  0.1650
 1575SOL    HW1 5014   2.946   3.740   5.318  0.5188 -0.0258 -1.3234
 1575SOL    HW2 5015   2.795   3.684   5.291  0.0212  0.1669  0.8722
 1576SOL     OW 5016   1.770   5.986   0.914 -0.4607 -0.1618  0.2417
 1576SOL    HW1 5017   1.824   5.950   0.990 -2.0579 -0.0868  1.4864
 1576SOL    HW2 5018   1.829   6.034   0.850  1.4505 -3.0660 -0.3723
 1577SOL     OW 5019   0.098   4.809   2.640 -0.1771 -0.2670 -0.3583
 1577SOL    HW1 5020   0.088   4.758   2.555 -1.2633  0.7448 -0.8704
 1577SOL    HW2 5021   0.189   4.850   2.643 -0.8577  1.6042 -2.1969
 1578SOL     OW 5022   5.641   5.287   1.177  0.1526 -0.5268  0.5418
 1578SOL    HW1 5023   5.694   5.203   1.172  0.1621 -0.5313  0.7437
 1578SOL    HW2 5024   5.681   5.356   1.116  0.4871 -0.4725  0.8258
 1579SOL     OW 5025   0.013   4.452   1.526 -0.5129  0.0376  0.1709
 1579SOL    HW1 5026   0.058   4.384   1.468  0.0132  0.2684  0.3027
 1579SOL    HW2 5027   0.063   4.538   1.522 -0.1343 -0.0993  1.3906
 1580SOL     OW 5028   0.725   3.332   2.012 -0.0512  0.4056  0.2224
 1580SOL    HW1 5029   0.659   3.330   1.937 -0.8360  1.3298  0.8710
 1580SOL    HW2 5030   0.702   3.262   2.079  0.6735 -0.4476 -0.3836
 1581SOL     OW 5031   2.126   4.602   5.794 -0.6404  0.8509 -0.4289
 1581SOL    HW1 5032   2.103   4.513   5.833 -1.0911  0.9130 -0.5518
 1581SOL    HW2 5033   2.093   4.607   5.700  0.9894  0.4715 -1.0414
 1582SOL     OW 5034   1.361   4.784   0.759 -0.8548 -0.0972 -0.4051
 1582SOL    HW1 5035   1.269   4.755   0.784 -0.4507 -0.7561  0.3310
 1582SOL    HW2 5036   1.359   4.879   0.727 -2.0088 -0.5525 -1.7620
 1583SOL     OW 5037   5.987   4.663   0.043  0.1839  0.6541  0.2884
 1583SOL    HW1 5038   5.929   4.628  -0.030  0.5776 -0.9865  0.7125
 1583SOL    HW2 5039   5.960   4.621   0.130  2.0016 -0.1920  0.4901
 1584SOL     OW 5040   0.533   5.385   0.606 -0.0624  0.2325 -0.2701
 1584SOL    HW1 5041   0.630   5.360   0.603 -0.2990 -0.8517  0.4601
 1584SOL    HW2 5042   0.513   5.451   0.533  1.8399  2.7140  1.2551
 1585SOL     OW 5043   1.876   4.423   2.233  0.1478  1.0711 -0.3043
 1585SOL    HW1 5044   1.939   4.406   2.309  0.0161  0.4207 -0.3363
 1585SOL    HW2 5045   1.928   4.437   2.149  0.3227  2.4027  0.0021
 1586SOL     OW 5046   0.852   2.553   5.767 -0.5512 -0.2940 -0.3784
 1586SOL    HW1 5047   0.843   2.606   5.851 -1.0371 -0.4795 -0.3091
 1586SOL    HW2 5048   0.804   2.599   5.693  0.2310  0.0839 -0.6626
 1587SOL     OW 5049   5.869   4.250   4.894  0.1243  0.7026  0.1224
 1587SOL    HW1 5050   5.811   4.292   4.824  0.5540  2.3493  0.7078
 1587SOL    HW2 5051   5.958   4.296   4.894  0.5316 -0.0785  0.9552
 1588SOL     OW 5052   0.285   5.003   1.895  0.4131 -0.1526 -0.6220
 1588SOL    HW1 5053   0.349   4.934   1.864  1.3571 -0.2450  1.3765
 1588SOL    HW2 5054   0.259   4.985   1.990  0.5055  2.0537 -0.1069
 1589SOL     OW 5055   2.579   2.723   0.064 -0.0615  0.5240  0.4608
 1589SOL    HW1 5056   2.571   2.721  -0.035 -0.5151  0.1353  0.4993
 1589SOL    HW2 5057   2.491   2.697   0.105 -0.0076  1.1095  0.9663
 1590SOL     OW 5058   1.000   3.714   0.401  0.4980 -0.3711 -0.8402
 1590SOL    HW1 5059   0.903   3.693   0.417  0.2642  1.2050 -0.0089
 1590SOL    HW2 5060   1.034   3.659   0.325 -0.8102 -1.5951 -0.5789
 1591SOL     OW 5061   1.315   3.686   0.938  0.4606  0.2072 -0.0505
 1591SOL    HW1 5062   1.243   3.709   0.872  1.1188 -1.0492 -1.2661
 1591SOL    HW2 5063   1.273   3.646   1.020 -0.3251  1.0736 -0.0135
 1592SOL     OW 5064   0.707   3.718   0.988  0.5578 -0.7429  0.3486
 1592SOL    HW1 5065   0.794   3.692   0.948 -0.4201 -2.6913 -0.6766
 1592SOL    HW2 5066   0.640   3.645   0.972 -1.1670  0.5254  1.4138
 1593SOL     OW 5067   0.888   0.089   1.182 -0.2298  0.1886  0.0526
 1593SOL    HW1 5068   0.975   0.042   1.165  0.2773  0.9658  0.4165
 1593SOL    HW2 5069   0.861   0.076   1.277  0.0324  0.8106  0.2166
 1594SOL     OW 5070   1.320   3.065   1.888 -0.4287 -0.8329  0.1395
 1594SOL    HW1 5071   1.401   3.049   1.831  0.6775 -1.8824  1.9383
 1594SOL    HW2 5072   1.309   3.163   1.904  0.6717 -0.7004  0.1397
 1595SOL     OW 5073   5.937   4.536   3.099  0.2327  0.4621 -1.1328
 1595SOL    HW1 5074   5.959   4.623   3.145  2.1231  0.6924 -2.3612
 1595SOL    HW2 5075   5.966   4.460   3.157 -2.1918  0.5699  0.3264
 1596SOL     OW 5076   0.724   3.578   1.312  0.1152  0.5977  0.0087
 1596SOL    HW1 5077   0.656   3.628   1.260  0.1047  0.0187 -0.5473
 1596SOL    HW2 5078   0.693   3.484   1.327  1.5370 -0.2480 -1.8501
 1597SOL     OW 5079   0.717   4.668   3.569  0.6164  0.2067 -0.2804
 1597SOL    HW1 5080   0.618   4.659   3.562  0.4194  2.1198 -0.4490
 1597SOL    HW2 5081   0.746   4.641   3.661 -0.4604  2.2484  0.7266
 1598SOL     OW 5082   2.663   5.970   1.732 -0.2820 -0.8012  1.1213
 1598SOL    HW1 5083   2.661   5.888   1.674  1.2383 -1.2294  1.6503
 1598SOL    HW2 5084   2.619   5.949   1.820 -0.8589 -0.7137  0.8615
 1599SOL     OW 5085   1.107   4.383   2.590  0.2030 -0.1864  0.4901
 1599SOL    HW1 5086   1.086   4.306   2.530  1.1578 -0.3966  0.4008
 1599SOL    HW2 5087   1.190   4.362   2.642  0.8275  1.0389  0.0151
 1600SOL     OW 5088   2.075   4.761   1.514  0.2753 -0.1491 -0.1538
 1600SOL    HW1 5089   2.090   4.853   1.478  0.3900 -0.4784 -0.9719
 1600SOL    HW2 5090   1.976   4.742   1.514  0.2151  0.1440  0.4627
 1601SOL     OW 5091   0.126   5.109   3.123 -0.5605  0.2428  0.0084
 1601SOL    HW1 5092   0.030   5.097   3.147 -1.3204  0.3569 -2.6756
 1601SOL    HW2 5093   0.145   5.065   3.035  2.0084 -0.2563  0.7200
 1602SOL     OW 5094   0.840   3.005   3.744 -0.1147 -0.1003  0.3805
 1602SOL    HW1 5095   0.790   3.046   3.820  2.1150  0.2518  1.7474
 1602SOL    HW2 5096   0.792   2.922   3.714 -1.6205  0.3381  1.4300
 1603SOL     OW 5097   0.627   5.645   3.584 -0.2470  0.0041  0.1773
 1603SOL    HW1 5098   0.573   5.667   3.666 -1.2327 -2.5018  0.3134
 1603SOL    HW2 5099   0.581   5.679   3.503 -1.5613 -1.1841  0.3840
 1604SOL     OW 5100   0.519   4.802   4.030  0.2018 -0.1140 -0.6040
 1604SOL    HW1 5101   0.477   4.862   4.099 -0.4201 -0.8830 -0.3034
 1604SOL    HW2 5102   0.609   4.773   4.063  0.4289  0.4991 -0.6693
 1605SOL     OW 5103   1.150   4.575   2.378  0.1973 -0.4996 -0.3687
 1605SOL    HW1 5104   1.156   4.512   2.455  0.0675  0.7870  0.7433
 1605SOL    HW2 5105   1.229   4.563   2.318  2.5167  1.1711  2.1431
 1606SOL     OW 5106   1.408   0.326   3.586 -0.2127 -0.4160  0.4172
 1606SOL    HW1 5107   1.486   0.272   3.555 -1.9176 -3.2008  0.6139
 1606SOL    HW2 5108   1.414   0.340   3.684  0.0289 -0.6028  0.4295
 1607SOL     OW 5109   5.882   5.661   3.634  0.1784  0.0899  0.2334
 1607SOL    HW1 5110   5.906   5.728   3.564 -0.6128  1.2367  1.0240
 1607SOL    HW2 5111   5.911   5.570   3.605  0.0880  0.5740 -1.4533
 1608SOL     OW 5112   1.631   4.168   2.692  0.1147 -0.0316  0.2999
 1608SOL    HW1 5113   1.661   4.077   2.663  1.1363  0.7240 -1.1138
 1608SOL    HW2 5114   1.701   4.209   2.750 -0.6883 -0.4234  1.5857
 1609SOL     OW 5115   0.603   4.450   3.339 -0.3737  0.8736  0.5428
 1609SOL    HW1 5116   0.657   4.480   3.418 -1.2420 -0.0507  1.5171
 1609SOL    HW2 5117   0.628   4.355   3.317 -2.6226 -0.1477  2.0064
 1610SOL     OW 5118   1.289   5.239   3.704  0.3860 -0.3001 -0.0430
 1610SOL    HW1 5119   1.196   5.214   3.676  0.8984 -2.2975 -0.1256
 1610SOL    HW2 5120   1.317   5.322   3.655 -1.4297  0.4918  0.1957
 1611SOL     OW 5121   0.929   5.687   2.435  0.0016  0.6729 -0.0027
 1611SOL    HW1 5122   0.853   5.744   2.468  0.5849  0.9651  0.8651
 1611SOL    HW2 5123   1.002   5.686   2.503 -0.3812 -1.9412  0.4535
 1612SOL     OW 5124   0.161   3.889   2.821 -0.1117  0.3914  0.1099
 1612SOL    HW1 5125   0.075   3.873   2.871 -0.7005  0.5235 -0.8281
 1612SOL    HW2 5126   0.198   3.802   2.789 -1.0509  0.4720 -1.3154
 1613SOL     OW 5127   1.421   4.463   3.147 -0.2184 -0.0886  0.0001
 1613SOL    HW1 5128   1.464   4.550   3.172 -0.9082 -0.3107  2.1788
 1613SOL    HW2 5129   1.337   4.480   3.096  0.1282  0.4839 -0.3863
 1614SOL     OW 5130   1.323   4.029   1.966 -0.3300  0.2862 -0.4257
 1614SOL    HW1 5131   1.338   3.945   1.913 -1.5803  1.0586 -2.0971
 1614SOL    HW2 5132   1.400   4.091   1.953  0.3216 -0.3376  0.3383
 1615SOL     OW 5133   1.697   2.989   4.508 -0.4022  0.4549  0.4256
 1615SOL    HW1 5134   1.630   3.059   4.532  1.3761  2.4050  0.0326
 1615SOL    HW2 5135   1.748   2.962   4.590  0.2149  1.0836  0.2560
 1616SOL     OW 5136   5.906   5.016   3.539  0.1736  0.3095  0.8468
 1616SOL    HW1 5137   5.827   4.966   3.503  1.2325  0.8886 -2.6651
 1616SOL    HW2 5138   5.967   4.952   3.585 -2.2470 -0.1301  3.7980
 1617SOL     OW 5139   2.851   5.315   2.433 -0.5085  0.5245  0.2579
 1617SOL    HW1 5140   2.798   5.368   2.367 -2.7833  0.5334  1.9629
 1617SOL    HW2 5141   2.870   5.372   2.513 -0.3461 -0.3143  0.8262
 1618SOL     OW 5142   1.144   4.794   2.860 -0.2879 -0.1201 -0.6279
 1618SOL    HW1 5143   1.091   4.827   2.939 -1.4469  0.4978 -1.6167
 1618SOL    HW2 5144   1.112   4.703   2.834  0.3531 -0.4828 -0.1676
 1619SOL     OW 5145   1.330   3.809   1.789 -0.0245 -0.3628  0.3982
 1619SOL    HW1 5146   1.409   3.760   1.751  0.3638 -1.0524  2.0376
 1619SOL    HW2 5147   1.273   3.842   1.714  0.4092 -2.1701 -0.8054
 1620SOL     OW 5148   2.030   5.000   1.394  0.2388 -0.6560  0.0686
 1620SOL    HW1 5149   2.101   5.065   1.423  2.0403 -1.0719 -3.0213
 1620SOL    HW2 5150   1.967   5.046   1.331 -0.1912 -1.2099  0.0868
 1621SOL     OW 5151   5.248   4.595   3.435 -0.4180  0.0002 -0.0944
 1621SOL    HW1 5152   5.272   4.508   3.479 -1.1836  0.1291  0.6172
 1621SOL    HW2 5153   5.331   4.646   3.416  0.0489 -0.9094 -0.5729
 1622SOL     OW 5154   0.890   0.560   3.441  0.2587  0.5184 -0.0578
 1622SOL    HW1 5155   0.944   0.624   3.386  2.2506  0.8479  2.0869
 1622SOL    HW2 5156   0.897   0.468   3.403 -0.4912  1.0989 -1.6991
 1623SOL     OW 5157   2.047   4.755   2.237 -0.5449  0.2269 -0.2311
 1623SOL    HW1 5158   2.092   4.711   2.315 -0.2480  1.7578  0.4943
 1623SOL    HW2 5159   2.093   4.842   2.216 -3.7717  2.4919  1.3169
 1624SOL     OW 5160   4.755   4.083   2.938  0.2583 -0.2371  0.3420
 1624SOL    HW1 5161   4.778   3.992   2.972 -2.9005 -2.2568 -2.2879
 1624SOL    HW2 5162   4.803   4.100   2.852 -1.1251 -0.6280 -0.5377
 1625SOL     OW 5163   5.783   5.109   2.734 -0.5616  0.1776 -0.1011
 1625SOL    HW1 5164   5.801   5.011   2.746 -1.5732 -0.0954 -0.7110
 1625SOL    HW2 5165   5.868   5.160   2.747  0.0671 -0.8163 -0.1842
 1626SOL     OW 5166   0.922   4.969   2.691 -0.5022 -0.4633  0.1660
 1626SOL    HW1 5167   0.956   4.882   2.656  0.1165  0.1140 -0.7385
 1626SOL    HW2 5168   0.981   5.043   2.658  0.5031  0.1004  2.9980
 1627SOL     OW 5169   2.119   5.404   3.195 -0.3474 -0.1784 -0.0479
 1627SOL    HW1 5170   2.193   5.338   3.180  1.8303  2.1530 -0.4343
 1627SOL    HW2 5171   2.128   5.443   3.286 -0.7296  0.5368 -0.3095
 1628SOL     OW 5172   1.217   2.678   2.785 -0.6332  0.0865  0.2354
 1628SOL    HW1 5173   1.135   2.721   2.747 -0.3539  1.2601  0.9124
 1628SOL    HW2 5174   1.223   2.584   2.752 -0.3079  1.0536 -2.8007
 1629SOL     OW 5175   1.918   4.484   3.748 -0.7810 -0.0603  0.0972
 1629SOL    HW1 5176   1.979   4.502   3.824 -0.1215  1.5422 -0.7793
 1629SOL    HW2 5177   1.830   4.529   3.764 -0.9504 -0.4454  0.2844
 1630SOL     OW 5178   1.734   4.199   2.417  0.0044 -0.7707 -0.4372
 1630SOL    HW1 5179   1.694   4.211   2.507 -0.8529 -0.7399 -0.8080
 1630SOL    HW2 5180   1.726   4.284   2.365  1.7242 -0.3679 -0.0816
 1631SOL     OW 5181   2.061   3.919   1.955 -0.5202  0.5689 -0.0738
 1631SOL    HW1 5182   2.105   4.007   1.976 -2.4311  1.7588 -0.7569
 1631SOL    HW2 5183   1.962   3.930   1.960 -0.8064 -1.5996 -0.1553
 1632SOL     OW 5184   2.286   4.706   3.356  0.0325  0.0561 -0.6201
 1632SOL    HW1 5185   2.334   4.777   3.407  0.5468 -0.4952 -0.3169
 1632SOL    HW2 5186   2.190   4.733   3.343  0.1161  0.6090 -0.1468
 1633SOL     OW 5187   1.324   4.661   2.123  0.9024  0.3367  0.1327
 1633SOL    HW1 5188   1.403   4.720   2.111  1.8989 -0.9644  0.1252
 1633SOL    HW2 5189   1.290   4.633   2.033  0.0930  1.3041  0.1205
 1634SOL     OW 5190   1.075   3.824   3.807  0.1995 -0.2605  0.9095
 1634SOL    HW1 5191   0.990   3.873   3.784  0.9644 -0.1247 -2.0782
 1634SOL    HW2 5192   1.150   3.889   3.813  1.1302 -0.8246 -2.5916
 1635SOL     OW 5193   2.059   3.981   3.474 -0.0669 -0.2182 -0.2238
 1635SOL    HW1 5194   2.151   3.986   3.436 -0.2439  0.6522 -0.5628
 1635SOL    HW2 5195   2.036   4.068   3.518 -0.6993 -0.4522 -0.0795
 1636SOL     OW 5196   2.487   4.198   4.109 -0.9328  0.6491 -0.0205
 1636SOL    HW1 5197   2.510   4.292   4.133  0.1676  0.9629 -2.0045
 1636SOL    HW2 5198   2.458   4.194   4.013 -0.9272 -1.0183  0.0097
 1637SOL     OW 5199   0.741   4.432   2.750  0.2797 -0.3332  0.0464
 1637SOL    HW1 5200   0.689   4.483   2.681 -2.9346 -0.9835  1.7842
 1637SOL    HW2 5201   0.721   4.470   2.841  1.4222 -1.8207  0.9625
 1638SOL     OW 5202   2.917   4.575   2.416 -0.8143 -0.2341 -0.5095
 1638SOL    HW1 5203   2.844   4.575   2.484  1.2462  1.4886  1.8874
 1638SOL    HW2 5204   2.960   4.485   2.414  0.9944  0.3889  2.8545
 1639SOL     OW 5205   2.170   4.248   3.278 -0.4495  0.0771  0.1057
 1639SOL    HW1 5206   2.099   4.231   3.210  0.7513 -2.1669 -0.7224
 1639SOL    HW2 5207   2.200   4.161   3.317  0.3311  1.1507  2.0353
 1640SOL     OW 5208   0.694   5.499   2.803 -0.3361 -0.3263  0.8244
 1640SOL    HW1 5209   0.603   5.518   2.765 -0.5117 -0.1409  1.3339
 1640SOL    HW2 5210   0.684   5.451   2.890 -0.0144  1.7226  2.0577
 1641SOL     OW 5211   5.806   4.127   1.484  0.4776 -0.7929 -0.2702
 1641SOL    HW1 5212   5.753   4.206   1.514 -0.2958 -1.1603 -0.6521
 1641SOL    HW2 5213   5.787   4.108   1.388 -0.2961 -2.1893  0.1291
 1642SOL     OW 5214   2.198   5.377   2.868 -0.0320  0.3298  0.3888
 1642SOL    HW1 5215   2.214   5.467   2.910  1.7761 -0.2633  1.0341
 1642SOL    HW2 5216   2.275   5.354   2.809 -2.1885  0.8436 -2.8997
 1643SOL     OW 5217   3.812   4.739   0.974  0.6002 -0.4254  0.6140
 1643SOL    HW1 5218   3.814   4.709   0.878  2.7571  1.4782 -0.0493
 1643SOL    HW2 5219   3.729   4.793   0.990  1.3302  1.2927 -0.9655
 1644SOL     OW 5220   1.881   4.479   3.482 -0.7974  0.2972 -0.2909
 1644SOL    HW1 5221   1.907   4.492   3.578  0.3694 -0.9272 -0.4212
 1644SOL    HW2 5222   1.861   4.383   3.465 -2.4243  0.7155 -0.9679
 1645SOL     OW 5223   0.344   0.308   1.694  0.2959  0.4333 -0.1589
 1645SOL    HW1 5224   0.293   0.317   1.780  0.7054 -1.0608  0.2598
 1645SOL    HW2 5225   0.433   0.353   1.703  0.9451 -0.9749  0.7340
 1646SOL     OW 5226   0.064   5.648   2.722  0.2939  0.0106 -0.2924
 1646SOL    HW1 5227  -0.002   5.584   2.682 -2.2402  2.7455 -0.8023
 1646SOL    HW2 5228   0.133   5.673   2.654  0.5221 -1.1056 -0.4906
 1647SOL     OW 5229   1.886   5.384   2.196  0.3170  0.5753  0.6157
 1647SOL    HW1 5230   1.812   5.349   2.138 -0.3773  2.1771  0.5035
 1647SOL    HW2 5231   1.872   5.354   2.290 -0.8669  1.4340  0.7233
 1648SOL     OW 5232   2.767   5.163   3.104  0.5662  0.1573 -0.3053
 1648SOL    HW1 5233   2.866   5.172   3.096  0.8205  0.2920  2.2554
 1648SOL    HW2 5234   2.728   5.251   3.130  0.0591 -0.4054  0.8720
 1649SOL     OW 5235   0.882   4.229   0.546 -0.0560  0.1685 -0.1348
 1649SOL    HW1 5236   0.868   4.253   0.450  0.2591  0.3833 -0.1268
 1649SOL    HW2 5237   0.916   4.135   0.552  0.8640  0.4849 -0.2894
 1650SOL     OW 5238   1.781   4.543   0.946  0.1721  0.2676  0.6025
 1650SOL    HW1 5239   1.792   4.615   0.877 -0.1435  1.3448  1.6537
 1650SOL    HW2 5240   1.685   4.519   0.955  0.2720 -0.2938  0.2765
 1651SOL     OW 5241   5.709   5.614   3.951 -0.4611 -0.8836 -0.3567
 1651SOL    HW1 5242   5.766   5.541   3.987  0.5312  0.2903  0.5624
 1651SOL    HW2 5243   5.767   5.693   3.928 -1.7121  0.3983  0.7163
 1652SOL     OW 5244   1.149   5.341   2.303  0.5105  0.5099  0.1423
 1652SOL    HW1 5245   1.196   5.386   2.379 -0.5674  1.1636  0.4430
 1652SOL    HW2 5246   1.064   5.389   2.283  0.2496 -0.2986 -0.7756
 1653SOL     OW 5247   0.332   3.649   3.074  0.5760  0.6081  0.2676
 1653SOL    HW1 5248   0.373   3.702   3.000 -0.2202  0.7749 -0.0727
 1653SOL    HW2 5249   0.322   3.554   3.045 -0.6062  0.8561 -0.2365
 1654SOL     OW 5250   1.332   5.115   1.340 -0.2337  0.0730 -0.1323
 1654SOL    HW1 5251   1.408   5.179   1.323  0.2264 -0.5106 -0.2940
 1654SOL    HW2 5252   1.248   5.167   1.356 -0.1902  0.7165 -1.8023
 1655SOL     OW 5253   1.283   5.043   2.436 -0.1925 -0.4093 -0.1840
 1655SOL    HW1 5254   1.276   5.065   2.338  0.8634 -1.9098 -0.6235
 1655SOL    HW2 5255   1.191   5.025   2.472 -0.5431 -0.3492 -1.0203
 1656SOL     OW 5256   2.956   4.538   1.203  0.2526  0.2220 -0.0202
 1656SOL    HW1 5257   3.006   4.478   1.141 -0.4607 -0.1551 -0.2455
 1656SOL    HW2 5258   2.906   4.482   1.270  2.5553  0.6186  2.2020
 1657SOL     OW 5259   5.805   5.509   3.044 -0.6527  0.0539  0.3280
 1657SOL    HW1 5260   5.738   5.501   2.970  0.2142  1.7681 -0.7010
 1657SOL    HW2 5261   5.765   5.475   3.129 -2.8801  1.1432 -0.2184
 1658SOL     OW 5262   2.213   4.903   2.648 -0.2647 -0.6175 -0.3915
 1658SOL    HW1 5263   2.263   4.932   2.566 -2.1208  1.1891 -0.9605
 1658SOL    HW2 5264   2.155   4.978   2.680 -1.7352 -2.2364  0.9211
 1659SOL     OW 5265   1.030   4.553   2.787  0.3870  0.2871  0.1802
 1659SOL    HW1 5266   0.931   4.546   2.797  0.7410 -2.8097  3.7788
 1659SOL    HW2 5267   1.060   4.503   2.706 -0.8934  0.0385 -0.1515
 1660SOL     OW 5268   1.465   2.978   3.762  0.0812  0.0175 -0.1099
 1660SOL    HW1 5269   1.445   3.075   3.749 -0.1503 -0.1316 -0.9335
 1660SOL    HW2 5270   1.493   2.938   3.675  0.9047 -0.4924  0.3761
 1661SOL     OW 5271   2.186   4.217   2.007  0.7752 -0.0742 -0.1047
 1661SOL    HW1 5272   2.188   4.194   2.105  0.5415  1.5714  0.3236
 1661SOL    HW2 5273   2.148   4.309   1.996  0.2709 -0.4566 -1.8042
 1662SOL     OW 5274   1.092   4.415   3.528 -0.3467  0.4143  0.0935
 1662SOL    HW1 5275   1.130   4.496   3.484  0.1658  0.2256  0.1768
 1662SOL    HW2 5276   1.122   4.413   3.624 -1.7164  0.9951  0.5563
 1663SOL     OW 5277   1.782   4.283   3.252 -0.8724  0.0986  0.0068
 1663SOL    HW1 5278   1.801   4.372   3.210 -1.0033 -0.0249 -0.3174
 1663SOL    HW2 5279   1.856   4.219   3.231  0.8755  0.9706  2.8358
 1664SOL     OW 5280   1.754   4.193   3.835 -0.2890  0.2989 -0.2767
 1664SOL    HW1 5281   1.660   4.177   3.805 -0.2083  0.1892 -0.4734
 1664SOL    HW2 5282   1.795   4.265   3.778 -0.1459  0.1138 -0.4075
 1665SOL     OW 5283   1.149   5.171   2.891  0.1144 -0.0788 -0.2096
 1665SOL    HW1 5284   1.199   5.086   2.904  0.4537  0.1103 -0.2456
 1665SOL    HW2 5285   1.140   5.191   2.793 -0.0571 -0.1274 -0.2040
 1666SOL     OW 5286   1.857   5.001   2.287  0.1427 -0.5463 -0.2140
 1666SOL    HW1 5287   1.925   5.039   2.223 -0.0868 -0.3072 -0.3152
 1666SOL    HW2 5288   1.880   4.905   2.306  0.6391 -0.4011 -0.0698
 1667SOL     OW 5289   5.586   4.290   1.574 -0.3494 -0.3967  0.6117
 1667SOL    HW1 5290   5.604   4.268   1.670  0.9340 -1.0552  0.2458
 1667SOL    HW2 5291   5.507   4.350   1.568 -0.7392 -0.7179  2.0478
 1668SOL     OW 5292   3.141   5.173   1.253  0.0592  0.0579 -0.1577
 1668SOL    HW1 5293   3.156   5.145   1.158 -1.0995  2.0338 -1.0089
 1668SOL    HW2 5294   3.042   5.181   1.270  0.2582 -0.1526  1.1889
 1669SOL     OW 5295   5.773   4.129   1.982  0.3596 -0.1588 -0.2872
 1669SOL    HW1 5296   5.798   4.045   1.933  0.1668 -0.4740  0.1472
 1669SOL    HW2 5297   5.856   4.183   1.999  0.5989 -0.6219  0.0800
 1670SOL     OW 5298   0.675   4.466   2.074  0.0020  0.0023 -0.0998
 1670SOL    HW1 5299   0.647   4.372   2.055 -0.8458  0.4574 -1.1868
 1670SOL    HW2 5300   0.774   4.469   2.085  0.0243 -1.0351  0.1025
 1671SOL     OW 5301   1.443   4.906   3.880  0.0873  0.4965  0.5437
 1671SOL    HW1 5302   1.389   4.841   3.826 -0.1693  0.8353  0.3925
 1671SOL    HW2 5303   1.539   4.900   3.853  0.3510 -0.9884  1.6587
 1672SOL     OW 5304   1.467   4.439   3.468 -0.2129  0.4828 -0.1310
 1672SOL    HW1 5305   1.462   4.536   3.493 -0.2655  0.0421  1.6819
 1672SOL    HW2 5306   1.434   4.428   3.374 -2.7317  1.8742  0.4829
 1673SOL     OW 5307   1.279   4.421   3.755 -0.2170 -0.4276 -0.5631
 1673SOL    HW1 5308   1.342   4.366   3.700  0.3547 -0.5948  0.2264
 1673SOL    HW2 5309   1.255   4.369   3.838 -0.7214 -0.0200 -0.4544
 1674SOL     OW 5310   2.429   4.273   2.681  0.4626 -0.2877 -0.0730
 1674SOL    HW1 5311   2.377   4.188   2.691  0.0692 -0.1235 -0.6530
 1674SOL    HW2 5312   2.519   4.262   2.723  0.0246 -0.6323  0.8026
 1675SOL     OW 5313   0.470   3.200   2.812 -0.3048 -0.6453  0.5310
 1675SOL    HW1 5314   0.529   3.262   2.862  0.8327 -1.3859  0.1456
 1675SOL    HW2 5315   0.526   3.136   2.760 -1.4546 -1.2785  0.0436
 1676SOL     OW 5316   5.765   0.244   3.356  0.0419  0.4414  0.7534
 1676SOL    HW1 5317   5.696   0.177   3.327  1.7340 -0.4472 -1.5067
 1676SOL    HW2 5318   5.783   0.307   3.280  2.4140  0.0282  0.9224
 1677SOL     OW 5319   1.731   4.437   2.917  0.1494 -0.6072  0.2097
 1677SOL    HW1 5320   1.792   4.469   2.989 -0.2612 -0.1056  0.3436
 1677SOL    HW2 5321   1.651   4.497   2.912 -0.7239 -1.6951  0.5838
 1678SOL     OW 5322   1.630   3.750   3.591  0.2370 -0.4264 -0.0928
 1678SOL    HW1 5323   1.727   3.765   3.611  0.1248 -0.6853  0.6638
 1678SOL    HW2 5324   1.618   3.658   3.556 -0.1200 -1.5194  2.6921
 1679SOL     OW 5325   1.794   4.862   3.260 -0.2787 -0.1156 -0.2090
 1679SOL    HW1 5326   1.746   4.946   3.285  0.2073 -0.0399  0.4786
 1679SOL    HW2 5327   1.872   4.884   3.202  0.0285 -0.0686  0.2258
 1680SOL     OW 5328   3.025   5.230   3.120  0.0952  0.2769  0.3739
 1680SOL    HW1 5329   3.083   5.154   3.150 -0.5234 -0.1310  0.5807
 1680SOL    HW2 5330   3.039   5.308   3.180 -1.4376 -0.6703  2.0829
 1681SOL     OW 5331   1.490   4.203   3.229  0.1546  0.0888 -0.5750
 1681SOL    HW1 5332   1.589   4.213   3.239  0.3476 -0.5226 -1.7193
 1681SOL    HW2 5333   1.451   4.290   3.201  0.6482 -0.1341 -2.0314
 1682SOL     OW 5334   2.866   3.763   2.306  0.5557  0.7318  0.1538
 1682SOL    HW1 5335   2.771   3.733   2.305  1.1442 -1.2262 -0.2424
 1682SOL    HW2 5336   2.891   3.799   2.216  0.7444 -0.7125 -0.3997
 1683SOL     OW 5337   0.552   4.656   1.611 -0.8108  0.5563 -0.3241
 1683SOL    HW1 5338   0.584   4.563   1.627 -2.7627 -0.2088 -0.6084
 1683SOL    HW2 5339   0.601   4.695   1.533 -1.1237 -0.8431 -1.2538
 1684SOL     OW 5340   2.263   5.185   3.060  0.5208  0.6783 -0.5286
 1684SOL    HW1 5341   2.236   5.251   2.990 -0.0571  1.5390  0.4871
 1684SOL    HW2 5342   2.350   5.143   3.034 -0.4627 -0.2331 -2.5637
 1685SOL     OW 5343   5.989   4.364   2.853  0.2490 -0.3952  0.3501
 1685SOL    HW1 5344   5.959   4.426   2.925 -0.0035 -0.3609  0.2170
 1685SOL    HW2 5345   5.937   4.382   2.769  0.2501 -0.7116  0.2786
 1686SOL     OW 5346   0.857   4.806   2.198 -0.1238  0.0789  0.2391
 1686SOL    HW1 5347   0.800   4.887   2.189  1.3042  0.9916 -1.0254
 1686SOL    HW2 5348   0.948   4.824   2.162  0.8023 -1.5429  1.5717
 1687SOL     OW 5349   0.841   5.356   4.365  0.4395 -0.3492 -0.1482
 1687SOL    HW1 5350   0.791   5.359   4.278  0.2417  1.1007 -0.0064
 1687SOL    HW2 5351   0.908   5.282   4.362 -1.7763 -2.5069 -0.2880
 1688SOL     OW 5352   0.337   0.108   3.173  0.0359  0.6867  0.2616
 1688SOL    HW1 5353   0.355   0.205   3.186 -0.9367  0.8116  0.7214
 1688SOL    HW2 5354   0.366   0.057   3.254 -1.2880  0.8468  0.8588
 1689SOL     OW 5355   0.939   4.394   4.536  0.2815 -0.4018  1.0825
 1689SOL    HW1 5356   0.931   4.452   4.617 -0.3753 -0.0289  0.7556
 1689SOL    HW2 5357   0.949   4.452   4.455 -0.9822 -0.7280  0.6825
 1690SOL     OW 5358   2.866   5.171   1.284 -0.7889  0.5933 -0.1007
 1690SOL    HW1 5359   2.827   5.202   1.370  0.8076 -2.0712  1.7456
 1690SOL    HW2 5360   2.824   5.084   1.258  1.0606 -0.3432 -0.1445
 1691SOL     OW 5361   2.016   5.136   2.799  0.1387 -0.5508 -0.2995
 1691SOL    HW1 5362   2.060   5.226   2.797 -1.0035  0.0062 -0.9364
 1691SOL    HW2 5363   1.931   5.141   2.851  0.8865 -1.6734  1.1049
 1692SOL     OW 5364   1.158   3.495   3.044 -0.2512 -0.4072 -0.5766
 1692SOL    HW1 5365   1.127   3.588   3.027  1.0475  0.2523  0.4944
 1692SOL    HW2 5366   1.113   3.459   3.126 -0.9883 -0.8587 -1.1657
 1693SOL     OW 5367   5.948   5.429   4.075 -0.0896  0.2209  0.1635
 1693SOL    HW1 5368   5.941   5.379   4.161  1.1938 -2.1308 -1.0105
 1693SOL    HW2 5369   5.994   5.516   4.090  1.1396 -0.6562  1.7015
 1694SOL     OW 5370   1.507   5.168   2.517 -0.0213  0.2712 -0.0529
 1694SOL    HW1 5371   1.514   5.256   2.469 -1.6674  0.5484  0.1638
 1694SOL    HW2 5372   1.419   5.126   2.498  0.8154 -1.4413 -0.2781
 1695SOL     OW 5373   0.871   3.200   3.054 -0.6129  0.2460 -0.2479
 1695SOL    HW1 5374   0.799   3.140   3.088  1.4601 -2.2891  0.0025
 1695SOL    HW2 5375   0.838   3.251   2.975 -3.1822  0.5772  0.9552
 1696SOL     OW 5376   1.459   4.425   2.288  0.0167  0.2105  0.0257
 1696SOL    HW1 5377   1.456   4.359   2.364  1.9685 -0.5849 -0.5375
 1696SOL    HW2 5378   1.415   4.384   2.208 -2.7737  1.3516  0.8502
 1697SOL     OW 5379   5.511   4.420   3.025 -0.4784 -0.5633 -0.2524
 1697SOL    HW1 5380   5.480   4.402   2.931 -3.0198 -0.9195  0.5794
 1697SOL    HW2 5381   5.578   4.351   3.051 -0.3275 -0.9389 -1.5337
 1698SOL     OW 5382   2.601   4.483   2.127 -0.2393 -0.1454  0.2407
 1698SOL    HW1 5383   2.526   4.518   2.182 -0.0346  1.6423 -0.5502
 1698SOL    HW2 5384   2.574   4.481   2.031  0.6273  0.3419 -0.0295
 1699SOL     OW 5385   1.182   4.070   4.339  0.7896 -0.1865  0.0262
 1699SOL    HW1 5386   1.280   4.059   4.355  0.8306  0.0071 -0.0863
 1699SOL    HW2 5387   1.134   4.077   4.427  1.1800  2.3642  0.1066
 1700SOL     OW 5388   1.638   4.967   2.618  0.0048  0.6916 -0.8814
 1700SOL    HW1 5389   1.673   4.972   2.711  0.2183 -0.0840 -0.9081
 1700SOL    HW2 5390   1.585   5.049   2.597 -2.3051 -0.2103  0.8639
 1701SOL     OW 5391   1.497   5.914   4.329 -0.5549  0.0350  0.6349
 1701SOL    HW1 5392   1.540   5.868   4.407  1.1981  1.6652  0.7038
 1701SOL    HW2 5393   1.398   5.900   4.332 -0.2502 -2.3249  1.5221
 1702SOL     OW 5394   1.428   3.981   3.053 -0.4843 -0.1820 -0.0511
 1702SOL    HW1 5395   1.435   4.050   3.126  0.1680 -1.7038  1.3931
 1702SOL    HW2 5396   1.336   3.941   3.054 -0.0719 -1.1716  0.9126
 1703SOL     OW 5397   5.395   0.585   3.314 -0.5160 -0.3357 -0.5233
 1703SOL    HW1 5398   5.445   0.666   3.345 -1.6027 -0.3949  1.5567
 1703SOL    HW2 5399   5.453   0.530   3.254  0.4887  1.5952 -1.3892
 1704SOL     OW 5400   1.398   4.275   2.494 -0.4826  0.3810  0.1931
 1704SOL    HW1 5401   1.466   4.254   2.565  0.8649  0.1392 -1.1273
 1704SOL    HW2 5402   1.346   4.193   2.472  0.4871 -0.0539 -0.5177
 1705SOL     OW 5403   1.358   2.093   3.051  0.1356 -0.1281  0.1071
 1705SOL    HW1 5404   1.441   2.096   3.107  1.4124 -1.3938 -1.5929
 1705SOL    HW2 5405   1.345   2.000   3.016 -0.9699  0.4666 -1.1361
 1706SOL     OW 5406   1.720   3.532   3.871 -0.3187 -0.3571 -0.1339
 1706SOL    HW1 5407   1.792   3.510   3.805  0.8214 -0.9718  1.2536
 1706SOL    HW2 5408   1.632   3.499   3.836  0.4933 -2.0918 -0.6735
 1707SOL     OW 5409   1.510   3.834   2.861 -0.3032 -0.1256  0.3133
 1707SOL    HW1 5410   1.586   3.778   2.895  1.5482  1.7929 -0.4733
 1707SOL    HW2 5411   1.482   3.898   2.932 -0.5609 -0.1955  0.2760
 1708SOL     OW 5412   0.535   3.698   2.862 -0.2102 -0.2729 -0.3345
 1708SOL    HW1 5413   0.590   3.633   2.915 -2.1587 -0.6877  1.3103
 1708SOL    HW2 5414   0.551   3.791   2.896  0.1289 -0.2881 -0.4525
 1709SOL     OW 5415   2.824   4.474   2.917  0.2538  0.0613 -0.2288
 1709SOL    HW1 5416   2.797   4.533   2.993  2.3047  0.1599  0.4911
 1709SOL    HW2 5417   2.769   4.495   2.837 -1.7917  0.1316  1.1353
 1710SOL     OW 5418   1.288   3.678   2.777 -0.2138  0.2699  0.1303
 1710SOL    HW1 5419   1.230   3.741   2.726 -2.1396  0.1070  1.9768
 1710SOL    HW2 5420   1.352   3.731   2.834 -0.2326  0.4951 -0.0559
 1711SOL     OW 5421   5.936   4.109   3.022 -0.0532  0.1042 -0.3039
 1711SOL    HW1 5422   5.960   4.176   2.951 -1.1969  0.6350 -0.2151
 1711SOL    HW2 5423   5.866   4.048   2.987  0.2647 -0.4183 -0.0341
 1712SOL     OW 5424   0.576   4.878   3.285  0.0378 -0.3965  0.0961
 1712SOL    HW1 5425   0.538   4.970   3.281  1.3265  0.1395 -0.3733
 1712SOL    HW2 5426   0.547   4.833   3.369 -1.5114  0.0142 -0.1861
 1713SOL     OW 5427   1.771   3.233   3.665 -0.4156  0.6888  0.2992
 1713SOL    HW1 5428   1.774   3.206   3.569 -3.1695  2.1685 -0.3172
 1713SOL    HW2 5429   1.859   3.215   3.708  0.4902 -1.2097 -2.1458
 1714SOL     OW 5430   2.023   3.850   3.754  0.0498  0.3010  0.4912
 1714SOL    HW1 5431   2.065   3.927   3.707  0.9832 -0.6893 -0.3725
 1714SOL    HW2 5432   2.093   3.796   3.799 -0.5050 -0.3706  0.5759
 1715SOL     OW 5433   0.402   5.791   2.323  0.5052  0.7230  0.0002
 1715SOL    HW1 5434   0.435   5.869   2.375  0.6069 -0.5401  1.9223
 1715SOL    HW2 5435   0.370   5.822   2.233 -3.2029  3.6224  2.0517
 1716SOL     OW 5436   2.491   3.262   2.247 -0.2025 -0.5012 -0.0426
 1716SOL    HW1 5437   2.475   3.361   2.251  0.8663 -0.3257  0.3340
 1716SOL    HW2 5438   2.461   3.221   2.333 -0.4065 -0.4715 -0.0981
 1717SOL     OW 5439   1.472   5.177   2.846  0.3195 -0.2155  0.3893
 1717SOL    HW1 5440   1.415   5.101   2.815  0.6905 -1.1180  1.8037
 1717SOL    HW2 5441   1.447   5.260   2.796 -0.3982 -1.1567 -0.8825
 1718SOL     OW 5442   1.851   3.964   3.924 -0.6486 -0.2701  0.0735
 1718SOL    HW1 5443   1.909   3.915   3.858  0.0078  0.2410  0.2539
 1718SOL    HW2 5444   1.819   4.049   3.883 -0.9858 -0.3805  0.1034
 1719SOL     OW 5445   2.467   3.909   4.417  0.3844  0.0422 -0.1934
 1719SOL    HW1 5446   2.565   3.916   4.436  0.5302 -0.6934 -0.6483
 1719SOL    HW2 5447   2.428   4.001   4.407  1.0357  0.3353 -0.0654
 1720SOL     OW 5448   0.543   5.067   4.364  0.4106 -0.2101  0.1681
 1720SOL    HW1 5449   0.626   5.013   4.350  0.3449 -0.5585  1.0501
 1720SOL    HW2 5450   0.543   5.144   4.301  0.6430 -1.0718 -0.9097
 1721SOL     OW 5451   1.169   3.924   3.030 -0.2236  0.4839  0.0025
 1721SOL    HW1 5452   1.111   3.845   3.012 -0.4035  0.5406  0.3295
 1721SOL    HW2 5453   1.136   3.973   3.111  0.9893 -0.1909  0.9396
 1722SOL     OW 5454   0.666   5.131   2.996 -0.4061  0.0976  0.6777
 1722SOL    HW1 5455   0.643   5.136   2.898  0.3526  0.5551  0.5132
 1722SOL    HW2 5456   0.737   5.062   3.010 -3.1231 -2.7349  1.4515
 1723SOL     OW 5457   0.935   4.553   2.191 -0.2846  0.5579 -0.0245
 1723SOL    HW1 5458   0.893   4.642   2.205  0.0156  0.4632  1.6501
 1723SOL    HW2 5459   0.994   4.530   2.269 -1.2140 -1.5864  0.1286
 1724SOL     OW 5460   1.276   3.265   2.490  0.1189 -0.0407  0.3701
 1724SOL    HW1 5461   1.288   3.298   2.396  1.0854 -1.0905  0.1009
 1724SOL    HW2 5462   1.238   3.338   2.547  0.5728  0.9659 -0.5857
 1725SOL     OW 5463   1.323   4.315   2.059 -1.0044  0.3249  0.0020
 1725SOL    HW1 5464   1.238   4.290   2.106  0.5385 -1.5387  2.0391
 1725SOL    HW2 5465   1.364   4.233   2.019 -0.5190  1.3254 -1.6151
 1726SOL     OW 5466   2.031   2.979   3.929  0.7745  0.1995  0.7394
 1726SOL    HW1 5467   2.111   3.036   3.945  1.4909 -0.7205  0.4721
 1726SOL    HW2 5468   2.037   2.936   3.839  0.1325 -0.1242  0.8427
 1727SOL     OW 5469   0.976   4.289   3.303  0.6758 -0.0724 -0.0607
 1727SOL    HW1 5470   1.009   4.202   3.267  0.3928 -0.2316  0.0651
 1727SOL    HW2 5471   1.018   4.307   3.392 -0.4204 -0.8117  0.6205
 1728SOL     OW 5472   0.204   4.561   2.178  0.9625 -0.0591  0.3366
 1728SOL    HW1 5473   0.293   4.565   2.224  1.0863 -1.5291  0.2791
 1728SOL    HW2 5474   0.215   4.517   2.088 -0.0373 -1.8026  1.0087
 1729SOL     OW 5475   0.714   5.361   2.363  0.0986  0.2128 -0.6840
 1729SOL    HW1 5476   0.810   5.380   2.339  1.2366 -3.6760  0.0821
 1729SOL    HW2 5477   0.708   5.336   2.459 -1.4897 -0.7054 -0.9885
 1730SOL     OW 5478   5.520   4.949   2.668  0.2083 -0.4071  0.0320
 1730SOL    HW1 5479   5.518   4.945   2.768 -1.5429 -1.3519 -0.0031
 1730SOL    HW2 5480   5.576   5.027   2.640  0.8375 -0.1862  1.7272
 1731SOL     OW 5481   0.179   4.979   2.895 -0.1226  0.6874 -0.2933
 1731SOL    HW1 5482   0.279   4.977   2.891 -0.1638  0.0106 -1.5542
 1731SOL    HW2 5483   0.142   4.893   2.859 -1.1663  0.9601  0.0813
 1732SOL     OW 5484   5.596   4.429   3.607 -0.7511  0.4439  0.1281
 1732SOL    HW1 5485   5.586   4.435   3.507  0.9820  0.9206 -0.0573
 1732SOL    HW2 5486   5.618   4.335   3.633 -2.1488  0.1158  0.1833
 1733SOL     OW 5487   5.555   4.723   3.057  0.1296  0.4611  0.2525
 1733SOL    HW1 5488   5.647   4.736   3.022 -0.2890  0.9372 -0.7136
 1733SOL    HW2 5489   5.523   4.631   3.036 -0.5879  1.1340 -1.8115
 1734SOL     OW 5490   2.506   4.581   3.171 -0.4254  0.3399  0.0516
 1734SOL    HW1 5491   2.435   4.634   3.216  0.1298  0.9427  0.2381
 1734SOL    HW2 5492   2.504   4.486   3.203 -0.4807  0.6004  0.8243
 1735SOL     OW 5493   0.938   4.036   2.219  0.1413  0.3567  0.7658
 1735SOL    HW1 5494   0.986   4.021   2.133 -0.8711 -0.8955  0.3720
 1735SOL    HW2 5495   0.872   3.962   2.233  0.0289  0.7374  2.4464
 1736SOL     OW 5496   3.104   3.419   4.090  0.0447 -0.0669  0.3770
 1736SOL    HW1 5497   3.201   3.413   4.115 -0.2013 -1.3100  1.1683
 1736SOL    HW2 5498   3.075   3.514   4.090  0.9668  0.2404  1.3903
 1737SOL     OW 5499   1.375   5.468   3.624  0.0579 -0.1949  0.4595
 1737SOL    HW1 5500   1.333   5.530   3.690  0.0170  1.3426 -0.9550
 1737SOL    HW2 5501   1.474   5.480   3.625  0.1138 -0.6417  0.6809
 1738SOL     OW 5502   0.980   3.533   2.734  0.3205  0.4169  0.0362
 1738SOL    HW1 5503   0.935   3.573   2.654  0.1089 -0.4772 -0.2953
 1738SOL    HW2 5504   1.074   3.510   2.711  1.1153  2.6120  0.8307
 1739SOL     OW 5505   1.758   5.867   3.920 -0.4687 -0.3836 -0.6085
 1739SOL    HW1 5506   1.843   5.827   3.953 -0.3567  1.5143  1.6737
 1739SOL    HW2 5507   1.680   5.825   3.967 -0.5261  0.2016 -0.1623
 1740SOL     OW 5508   1.056   3.989   0.974 -0.3392  0.6404  0.6883
 1740SOL    HW1 5509   1.044   3.938   1.059 -0.9761  1.3877  1.0665
 1740SOL    HW2 5510   1.092   3.928   0.903 -1.6028 -0.4866  0.9641
 1741SOL     OW 5511   0.411   4.584   2.788 -0.6191  0.1220  0.1171
 1741SOL    HW1 5512   0.473   4.584   2.866 -0.9685 -1.3028  0.4264
 1741SOL    HW2 5513   0.407   4.676   2.749  0.1497  0.6884  1.2968
 1742SOL     OW 5514   1.112   4.918   3.167  0.1198 -0.1077  0.1679
 1742SOL    HW1 5515   1.120   5.007   3.211 -0.7549 -0.0961  0.3228
 1742SOL    HW2 5516   1.190   4.861   3.193  1.8902  1.3148 -1.6507
 1743SOL     OW 5517   0.996   4.292   1.441  0.2787  0.0193 -0.4336
 1743SOL    HW1 5518   0.967   4.347   1.520 -1.7617  0.7596 -1.6221
 1743SOL    HW2 5519   0.966   4.336   1.357  2.6729 -0.6156 -1.6847
 1744SOL     OW 5520   1.143   4.475   3.038 -0.5085 -0.0004 -0.1585
 1744SOL    HW1 5521   1.150   4.375   3.039 -0.1030  0.0262 -0.0962
 1744SOL    HW2 5522   1.098   4.505   2.955 -0.0463 -0.2025 -0.4863
 1745SOL     OW 5523   1.788   0.071   3.717 -0.6591 -0.1857 -0.3452
 1745SOL    HW1 5524   1.765  -0.015   3.762  0.3772 -0.6388 -0.6488
 1745SOL    HW2 5525   1.887   0.084   3.719 -0.8208  1.1069 -0.1306
 1746SOL     OW 5526   0.725   4.169   3.326 -0.0810  0.2107  0.2258
 1746SOL    HW1 5527   0.818   4.200   3.304  0.4206 -1.3350  0.0694
 1746SOL    HW2 5528   0.724   4.126   3.416 -0.7948  0.7764  0.5023
 1747SOL     OW 5529   0.526   4.670   4.718  0.3018  0.2746 -0.2238
 1747SOL    HW1 5530   0.461   4.732   4.673 -0.6716 -1.0550 -0.7230
 1747SOL    HW2 5531   0.608   4.721   4.744  0.3156  1.4104 -2.2505
 1748SOL     OW 5532   1.811   3.960   2.045  0.1268  0.3525  0.1599
 1748SOL    HW1 5533   1.766   4.049   2.033 -2.1893 -0.7673 -0.0888
 1748SOL    HW2 5534   1.797   3.928   2.139  1.8366  0.6608  0.5528
 1749SOL     OW 5535   2.584   4.927   1.859 -0.6307 -0.5065  0.1730
 1749SOL    HW1 5536   2.516   4.967   1.797 -2.0361 -2.0520  0.6587
 1749SOL    HW2 5537   2.666   4.903   1.807  0.2636  2.7581 -0.1768
 1750SOL     OW 5538   5.475   0.314   4.445 -0.4726 -0.1193 -0.2412
 1750SOL    HW1 5539   5.401   0.370   4.482  0.2587  2.2661 -2.1483
 1750SOL    HW2 5540   5.522   0.267   4.520 -0.2211  2.9866  1.7185
 1751SOL     OW 5541   2.470   4.133   1.390 -0.5538 -0.3644 -0.0491
 1751SOL    HW1 5542   2.539   4.115   1.460 -0.7380  0.8416  0.4726
 1751SOL    HW2 5543   2.408   4.055   1.383 -0.1208 -0.7797  0.6449
 1752SOL     OW 5544   0.913   3.701   4.402 -0.1417  0.0829 -0.3021
 1752SOL    HW1 5545   0.962   3.616   4.422 -0.4049 -0.2456 -1.0197
 1752SOL    HW2 5546   0.838   3.682   4.339 -0.8111  0.6858  0.3050
 1753SOL     OW 5547   0.520   5.469   1.589 -0.0091 -0.1398 -0.0208
 1753SOL    HW1 5548   0.457   5.401   1.550 -1.1691  1.3658 -0.8849
 1753SOL    HW2 5549   0.471   5.526   1.654  0.6490  0.6047 -0.1651
 1754SOL     OW 5550   0.973   4.495   3.961 -0.5690 -0.5576  0.1922
 1754SOL    HW1 5551   1.061   4.535   3.985 -1.1481 -0.5891  2.5287
 1754SOL    HW2 5552   0.947   4.426   4.028 -2.2447 -0.7831 -0.6185
 1755SOL     OW 5553   2.579   3.815   2.252  0.2955  0.3130 -0.6777
 1755SOL    HW1 5554   2.522   3.843   2.329  1.2255  0.7455 -0.1161
 1755SOL    HW2 5555   2.615   3.897   2.206  0.6888  0.0544 -0.8383
 1756SOL     OW 5556   0.938   3.807   3.196 -0.5837 -0.0721  0.7367
 1756SOL    HW1 5557   0.919   3.853   3.110  0.7485 -1.3678 -0.3036
 1756SOL    HW2 5558   0.895   3.716   3.195  2.8948 -1.8674 -0.4517
 1757SOL     OW 5559   1.230   0.357   2.108 -0.2426  0.4181 -0.1456
 1757SOL    HW1 5560   1.163   0.290   2.142 -0.8231  0.7904 -0.5325
 1757SOL    HW2 5561   1.262   0.414   2.185 -0.8095  0.6120 -0.0459
 1758SOL     OW 5562   1.019   3.675   4.044  0.3914 -0.2204  0.2527
 1758SOL    HW1 5563   1.046   3.729   3.965 -2.0643  0.8375  0.0338
 1758SOL    HW2 5564   1.049   3.722   4.128 -0.0754  0.5242  0.0140
 1759SOL     OW 5565   2.354   4.570   2.244  0.0884  0.6150  0.6134
 1759SOL    HW1 5566   2.292   4.594   2.318 -0.8199  1.2901 -0.3467
 1759SOL    HW2 5567   2.306   4.576   2.156  1.4376  0.9160 -0.1345
 1760SOL     OW 5568   1.188   5.733   1.557 -0.1028 -0.2460  0.2754
 1760SOL    HW1 5569   1.184   5.657   1.621 -1.0789  1.4130  2.3221
 1760SOL    HW2 5570   1.249   5.804   1.594 -0.3138  0.5654 -0.8695
 1761SOL     OW 5571   0.407   4.015   3.707  0.1136 -0.0836 -0.0020
 1761SOL    HW1 5572   0.462   3.971   3.636  1.4621 -1.6277  1.9070
 1761SOL    HW2 5573   0.310   3.999   3.688  0.5017 -2.0664 -0.5410
 1762SOL     OW 5574   2.465   3.918   2.467  0.7846  0.3847  0.5459
 1762SOL    HW1 5575   2.539   3.985   2.471  0.9494  0.1962  4.3988
 1762SOL    HW2 5576   2.457   3.872   2.555 -3.0477 -0.6364 -0.1561
 1763SOL     OW 5577   0.554   3.952   2.986  0.0397 -0.4863  0.2346
 1763SOL    HW1 5578   0.506   4.001   2.914 -0.6913 -0.5634  0.6546
 1763SOL    HW2 5579   0.520   3.984   3.075  3.0488  1.8871  0.7150
 1764SOL     OW 5580   1.308   4.033   3.353 -0.0549 -0.3561 -0.0774
 1764SOL    HW1 5581   1.338   4.002   3.443  2.1730  1.0204 -0.2702
 1764SOL    HW2 5582   1.372   4.101   3.318 -1.8206  0.4531 -1.9641
 1765SOL     OW 5583   4.730   5.682   2.100 -0.1407  0.1447 -0.2403
 1765SOL    HW1 5584   4.740   5.781   2.100 -0.9646  0.2399 -1.0375
 1765SOL    HW2 5585   4.746   5.646   2.009  1.5120 -0.6329  0.3178
 1766SOL     OW 5586   2.012   3.542   4.063  0.0217  0.2467 -0.0775
 1766SOL    HW1 5587   1.945   3.615   4.076 -1.0859 -1.0334  1.7704
 1766SOL    HW2 5588   2.097   3.581   4.026 -1.1909  2.1334 -0.9922
 1767SOL     OW 5589   0.997   5.204   1.829  0.2858  0.0321  0.9027
 1767SOL    HW1 5590   1.068   5.273   1.815  2.8390 -2.6436 -0.4247
 1767SOL    HW2 5591   0.949   5.187   1.743  1.2976 -1.4011  0.5784
 1768SOL     OW 5592   0.219   5.136   3.533  0.1124 -0.3992  0.8445
 1768SOL    HW1 5593   0.158   5.200   3.487  2.1553  1.2843  0.2881
 1768SOL    HW2 5594   0.167   5.058   3.566 -2.5942  1.6617  1.8451
 1769SOL     OW 5595   0.368   3.706   3.346 -0.1745  0.1802  0.3036
 1769SOL    HW1 5596   0.367   3.714   3.246  1.7869 -1.3250  0.1125
 1769SOL    HW2 5597   0.421   3.781   3.384  2.0990 -1.1479 -0.0959
 1770SOL     OW 5598   0.244   4.827   1.181  0.4614  0.1144 -0.0775
 1770SOL    HW1 5599   0.201   4.790   1.098 -0.3918  0.8877  0.0029
 1770SOL    HW2 5600   0.243   4.927   1.177 -0.9641  0.2022  1.5279
 1771SOL     OW 5601   2.457   3.793   2.726  0.3194  0.4470  0.0301
 1771SOL    HW1 5602   2.518   3.803   2.805  1.4850  0.3718 -0.8280
 1771SOL    HW2 5603   2.477   3.707   2.679  0.1230  0.8103 -0.7373
 1772SOL     OW 5604   5.745   3.196   3.382  0.2239 -0.4738  0.0562
 1772SOL    HW1 5605   5.741   3.272   3.318  0.2572  0.5871  1.2867
 1772SOL    HW2 5606   5.793   3.224   3.466 -0.6325 -1.5244  0.9369
 1773SOL     OW 5607   0.910   0.660   2.133  0.6024 -0.0411  0.0890
 1773SOL    HW1 5608   0.983   0.676   2.200  2.4918 -1.4076 -1.5512
 1773SOL    HW2 5609   0.926   0.717   2.053 -1.4256  1.2816  0.5581
 1774SOL     OW 5610   0.367   5.888   4.246 -0.0270  0.0921 -0.2808
 1774SOL    HW1 5611   0.328   5.978   4.228  0.2022  0.0774 -0.8585
 1774SOL    HW2 5612   0.297   5.818   4.233 -0.2485  0.1948  0.3262
 1775SOL     OW 5613   1.754   5.194   2.891 -0.0071 -0.7434  0.4072
 1775SOL    HW1 5614   1.654   5.190   2.881  0.0585 -1.0351 -0.1618
 1775SOL    HW2 5615   1.777   5.263   2.959 -0.5627  0.1028 -0.2298
 1776SOL     OW 5616   5.113   3.341   3.820 -0.0646  0.1402  0.0931
 1776SOL    HW1 5617   5.045   3.373   3.886  0.0986 -0.4794  0.5690
 1776SOL    HW2 5618   5.147   3.251   3.848 -0.7661 -0.6193 -1.3942
 1777SOL     OW 5619   1.735   5.491   3.013  0.3789  0.3868  0.1866
 1777SOL    HW1 5620   1.681   5.539   3.082  0.3633 -0.9817  1.1626
 1777SOL    HW2 5621   1.794   5.423   3.057  0.2024 -0.6831 -1.1490
 1778SOL     OW 5622   0.774   5.001   3.738  0.1144 -0.0779  0.4597
 1778SOL    HW1 5623   0.826   5.013   3.654 -0.8882 -3.2228 -0.7593
 1778SOL    HW2 5624   0.681   4.971   3.716 -1.1746  1.8995  2.6653
 1779SOL     OW 5625   2.800   4.562   3.185  0.3463 -0.0355  0.3291
 1779SOL    HW1 5626   2.817   4.479   3.238 -1.5144  0.5280  1.9122
 1779SOL    HW2 5627   2.701   4.579   3.181  0.5480  0.9694 -1.7914
 1780SOL     OW 5628   0.736   3.300   0.818 -0.0985 -0.1662 -0.5098
 1780SOL    HW1 5629   0.775   3.369   0.757 -1.3723  1.2955  0.2475
 1780SOL    HW2 5630   0.808   3.237   0.848  1.5931  2.0855  0.4308
 1781SOL     OW 5631   0.060   4.301   2.447 -0.3336  0.4672 -0.2857
 1781SOL    HW1 5632   0.150   4.321   2.486 -0.1290  1.5279 -1.2703
 1781SOL    HW2 5633   0.068   4.289   2.348 -0.9743 -1.3842 -0.1585
 1782SOL     OW 5634   2.799   4.497   4.288  0.0571  0.4459 -0.0833
 1782SOL    HW1 5635   2.824   4.547   4.206  2.1971  0.2662  0.4121
 1782SOL    HW2 5636   2.802   4.559   4.367 -0.4806  0.2721  0.0788
 1783SOL     OW 5637   1.863   4.788   3.904 -0.3732  0.1136 -1.2265
 1783SOL    HW1 5638   1.942   4.755   3.852 -0.4821 -0.0816 -1.2691
 1783SOL    HW2 5639   1.884   4.878   3.943  0.8786 -1.1237  1.0994
 1784SOL     OW 5640   1.084   4.742   0.836  0.1602  0.1555  0.2757
 1784SOL    HW1 5641   1.097   4.691   0.921 -2.2090 -0.3261  0.4050
 1784SOL    HW2 5642   0.991   4.728   0.801  1.1299  0.0943 -2.5885
 1785SOL     OW 5643   2.175   5.558   3.421  0.5032  0.1361  0.0508
 1785SOL    HW1 5644   2.170   5.498   3.500  1.0861  1.7639  1.3973
 1785SOL    HW2 5645   2.253   5.620   3.430 -0.5543  1.6967 -0.7953
 1786SOL     OW 5646   0.371   4.524   3.270  0.7494  0.3335  0.3083
 1786SOL    HW1 5647   0.337   4.444   3.222  1.3885  0.5289 -0.4952
 1786SOL    HW2 5648   0.465   4.509   3.300  0.6446  0.5322  0.7576
 1787SOL     OW 5649   2.396   4.267   1.799  0.7951 -0.0849 -0.4362
 1787SOL    HW1 5650   2.325   4.277   1.729  0.8079 -1.9506 -0.7844
 1787SOL    HW2 5651   2.354   4.238   1.885  0.7560  2.3957  0.4604
 1788SOL     OW 5652   1.983   5.145   3.596 -0.1021  0.2675  0.0635
 1788SOL    HW1 5653   1.895   5.133   3.642  0.4712  0.6753  1.3091
 1788SOL    HW2 5654   2.046   5.073   3.625 -0.2196 -0.4553 -1.3793
 1789SOL     OW 5655   0.628   5.613   3.184 -0.7386 -0.0350  0.0442
 1789SOL    HW1 5656   0.648   5.525   3.140  0.2196 -1.1902  2.6177
 1789SOL    HW2 5657   0.666   5.687   3.129  1.6155 -1.4876 -0.4292
 1790SOL     OW 5658   1.489   4.555   2.828 -0.6319 -0.2700  0.2414
 1790SOL    HW1 5659   1.512   4.649   2.853 -1.4397  0.0495 -0.1858
 1790SOL    HW2 5660   1.430   4.555   2.747 -0.5674 -1.1505  0.1780
 1791SOL     OW 5661   0.514   4.634   3.043 -0.0751  0.3327 -0.0365
 1791SOL    HW1 5662   0.608   4.600   3.057 -0.6734 -1.5102 -0.1670
 1791SOL    HW2 5663   0.460   4.615   3.125 -0.3879  1.2603 -0.0161
 1792SOL     OW 5664   1.300   3.364   3.321  0.1615  0.0069  0.0668
 1792SOL    HW1 5665   1.315   3.278   3.369 -0.6881 -0.5750 -0.6741
 1792SOL    HW2 5666   1.219   3.356   3.263  0.3648  1.1409 -0.4007
 1793SOL     OW 5667   1.019   4.142   2.460 -0.1446 -0.5493 -0.4428
 1793SOL    HW1 5668   0.949   4.110   2.524  0.7989 -0.7286  0.5114
 1793SOL    HW2 5669   1.025   4.077   2.383 -0.9051 -0.6154 -0.4578
 1794SOL     OW 5670   2.038   4.497   1.986  0.4509  0.3047  0.2132
 1794SOL    HW1 5671   1.979   4.578   1.994 -0.5664 -0.3008 -0.8421
 1794SOL    HW2 5672   2.024   4.455   1.896  0.4066 -1.4697  1.0293
 1795SOL     OW 5673   0.470   4.888   2.960 -0.1516  0.0685 -0.6703
 1795SOL    HW1 5674   0.492   4.802   3.006 -1.1743  0.3734  0.4529
 1795SOL    HW2 5675   0.530   4.960   2.995 -0.7674  0.2489  0.0613
 1796SOL     OW 5676   5.638   5.714   1.744  0.6749  0.2526  0.1390
 1796SOL    HW1 5677   5.605   5.688   1.654 -0.2899  0.7021  0.3532
 1796SOL    HW2 5678   5.634   5.635   1.806 -1.1706  0.5760  0.4843
 1797SOL     OW 5679   2.179   4.617   2.451 -0.1344 -0.5113 -0.5398
 1797SOL    HW1 5680   2.230   4.648   2.531 -0.5108  2.2852 -1.2825
 1797SOL    HW2 5681   2.102   4.560   2.480 -0.8845  1.2961  1.2142
 1798SOL     OW 5682   0.405   3.283   3.825  0.0345  0.0124 -0.4348
 1798SOL    HW1 5683   0.320   3.231   3.821  0.1622 -0.1241 -1.5589
 1798SOL    HW2 5684   0.482   3.221   3.835  0.1397  0.0188 -1.1805
 1799SOL     OW 5685   2.050   3.959   2.877 -0.1037 -0.3791 -0.1718
 1799SOL    HW1 5686   2.019   3.897   2.949  2.4451 -1.2398  0.3151
 1799SOL    HW2 5687   1.998   3.942   2.793 -1.2252 -1.3222  0.6801
 1800SOL     OW 5688   1.872   5.760   3.530  0.2277 -0.0921  0.6859
 1800SOL    HW1 5689   1.845   5.710   3.448 -0.1265 -1.1344  1.4116
 1800SOL    HW2 5690   1.791   5.782   3.584  0.4687  0.4774  0.8246
 1801SOL     OW 5691   2.847   4.954   0.514  0.2651  0.2419  0.0569
 1801SOL    HW1 5692   2.887   4.910   0.433  0.7872  1.0242 -0.1241
 1801SOL    HW2 5693   2.806   5.042   0.488 -0.0517  0.2442  0.5450
 1802SOL     OW 5694   1.612   4.462   1.897 -0.7010  0.2303  0.2282
 1802SOL    HW1 5695   1.586   4.366   1.892  2.7152 -0.7737 -2.2727
 1802SOL    HW2 5696   1.629   4.487   1.993 -0.3269 -2.0794  0.8256
 1803SOL     OW 5697   1.431   3.592   2.556 -0.1776  0.6759 -0.2409
 1803SOL    HW1 5698   1.395   3.623   2.645 -0.6598  0.3432 -0.3121
 1803SOL    HW2 5699   1.522   3.630   2.541 -0.9308  2.4333 -0.5348
 1804SOL     OW 5700   5.695   4.698   2.358 -0.8863 -0.0275  0.2722
 1804SOL    HW1 5701   5.707   4.794   2.335 -0.8584  0.0129  0.4512
 1804SOL    HW2 5702   5.765   4.643   2.312 -0.6332  0.0890  0.5130
 1805SOL     OW 5703   0.970   5.506   2.832  0.0316  0.8000  0.3033
 1805SOL    HW1 5704   0.980   5.407   2.828 -0.6795  0.7255  0.2437
 1805SOL    HW2 5705   0.875   5.531   2.813  0.4582  1.5795 -0.9291
 1806SOL     OW 5706   4.801   3.761   2.635 -0.2448 -0.3724  0.3516
 1806SOL    HW1 5707   4.847   3.710   2.708  0.5758  1.7076  1.3981
 1806SOL    HW2 5708   4.870   3.797   2.572 -0.8956 -1.4883 -1.0395
 1807SOL     OW 5709   0.074   4.052   4.062 -0.1250 -0.1545  0.4416
 1807SOL    HW1 5710   0.140   4.094   3.999  0.8218 -1.2492  0.6771
 1807SOL    HW2 5711   0.118   4.038   4.151  0.3178 -3.5404 -0.2008
 1808SOL     OW 5712   5.637   3.996   4.766 -0.4859 -0.2656 -0.1480
 1808SOL    HW1 5713   5.687   3.991   4.852  2.0763  3.4677 -1.1946
 1808SOL    HW2 5714   5.702   3.990   4.690 -1.9322  1.8706 -1.6621
 1809SOL     OW 5715   0.577   5.645   5.815 -0.0495  0.2846  0.0079
 1809SOL    HW1 5716   0.609   5.665   5.723  0.1066  0.9287  0.1955
 1809SOL    HW2 5717   0.649   5.669   5.881  0.4278 -1.5679  0.2097
 1810SOL     OW 5718   1.652   4.787   4.302 -0.3253 -0.1095  0.7827
 1810SOL    HW1 5719   1.600   4.729   4.238 -1.0343 -0.0047  1.2604
 1810SOL    HW2 5720   1.662   4.739   4.389 -1.4739  0.7350  1.3986
 1811SOL     OW 5721   0.983   4.336   4.175 -0.4694  0.1592 -0.2877
 1811SOL    HW1 5722   0.987   4.252   4.121  0.7458  0.1317 -0.1975
 1811SOL    HW2 5723   1.073   4.353   4.216 -0.9050  1.1040  0.3086
 1812SOL     OW 5724   2.946   5.127   5.054 -0.2814  0.2570  0.1776
 1812SOL    HW1 5725   2.863   5.152   5.005  0.6545  0.7526 -1.2051
 1812SOL    HW2 5726   2.939   5.032   5.085 -1.5669  0.4619  0.5710
 1813SOL     OW 5727   0.600   4.018   4.442 -0.3905  0.3420  0.2724
 1813SOL    HW1 5728   0.531   4.077   4.401 -3.8877 -0.7486  3.8678
 1813SOL    HW2 5729   0.577   3.922   4.425  0.0368 -0.0624  1.7561
 1814SOL     OW 5730   1.850   3.876   5.276  1.0835  0.2548  0.0669
 1814SOL    HW1 5731   1.892   3.790   5.306 -0.0221 -0.2223  0.2811
 1814SOL    HW2 5732   1.850   3.940   5.353 -0.2104 -0.3800  0.6206
 1815SOL     OW 5733   1.889   3.675   4.514 -0.1506  0.3687 -0.3094
 1815SOL    HW1 5734   1.975   3.638   4.479 -0.5586  0.6332 -1.6492
 1815SOL    HW2 5735   1.893   3.679   4.614  0.2882 -2.3012 -0.1511
 1816SOL     OW 5736   0.688   3.831   5.250 -0.4991  0.4521  0.0502
 1816SOL    HW1 5737   0.695   3.802   5.154  1.5830 -1.2669  0.6390
 1816SOL    HW2 5738   0.622   3.905   5.257 -0.3799  0.9631 -2.7912
 1817SOL     OW 5739   0.669   5.731   5.578 -0.0589 -0.2833  0.3120
 1817SOL    HW1 5740   0.735   5.787   5.627 -0.6820  1.5386 -0.8275
 1817SOL    HW2 5741   0.717   5.672   5.513  0.5307  0.1322  0.3652
 1818SOL     OW 5742   2.205   3.553   4.784 -0.3718  0.2511 -0.6467
 1818SOL    HW1 5743   2.176   3.588   4.696  1.1997  1.4631 -0.7134
 1818SOL    HW2 5744   2.124   3.529   4.839 -1.3834 -2.0061 -2.9218
 1819SOL     OW 5745   0.409   3.380   5.312 -0.4409  0.5357  0.4115
 1819SOL    HW1 5746   0.342   3.449   5.338  0.2072  1.6494 -0.7394
 1819SOL    HW2 5747   0.499   3.422   5.302  0.5730 -1.0033  2.3063
 1820SOL     OW 5748   2.942   4.767   4.734  0.4697  0.4577 -0.2943
 1820SOL    HW1 5749   3.016   4.829   4.759 -1.0846  2.5011 -0.5410
 1820SOL    HW2 5750   2.926   4.702   4.809  1.3630  1.0867  0.4610
 1821SOL     OW 5751   1.438   3.958   3.641  0.1263  0.3312  0.4322
 1821SOL    HW1 5752   1.478   4.044   3.612  0.5996  0.0859  0.3364
 1821SOL    HW2 5753   1.504   3.884   3.625  0.1899  0.1130  1.5989
 1822SOL     OW 5754   1.361   4.569   5.115 -0.5750  0.1752 -0.0535
 1822SOL    HW1 5755   1.274   4.616   5.127 -0.4724  0.2061  0.6196
 1822SOL    HW2 5756   1.424   4.627   5.063 -0.9765  0.1230 -0.5989
 1823SOL     OW 5757   1.440   3.948   4.386  0.7259 -0.1890 -0.2248
 1823SOL    HW1 5758   1.512   4.014   4.409  2.1561 -1.2718 -1.4244
 1823SOL    HW2 5759   1.476   3.879   4.323 -0.8436 -1.9073  0.6665
 1824SOL     OW 5760   0.203   5.107   4.056  0.2971 -0.1565 -0.4915
 1824SOL    HW1 5761   0.147   5.161   4.119  0.0439  1.8366 -2.3131
 1824SOL    HW2 5762   0.273   5.166   4.015  1.6742 -1.8414 -0.6981
 1825SOL     OW 5763   0.107   4.400   4.261  0.3309  0.4659  0.2147
 1825SOL    HW1 5764   0.115   4.486   4.210  0.5129  0.6718  0.5859
 1825SOL    HW2 5765   0.145   4.412   4.353 -2.2855  0.8595  1.3267
 1826SOL     OW 5766   5.391   5.171   3.497 -0.2776  0.0279 -0.6682
 1826SOL    HW1 5767   5.302   5.127   3.478 -0.4649 -0.5094  1.2705
 1826SOL    HW2 5768   5.462   5.127   3.442 -1.0851 -0.0315 -1.6973
 1827SOL     OW 5769   1.107   3.823   4.545  0.4166 -0.3224  0.2104
 1827SOL    HW1 5770   1.043   3.786   4.478  3.2281 -0.9331 -2.4028
 1827SOL    HW2 5771   1.082   3.916   4.568 -2.1587 -0.9994  0.4767
 1828SOL     OW 5772   0.016   4.386   3.875 -0.1304  0.1256 -0.1090
 1828SOL    HW1 5773  -0.060   4.400   3.938  2.0496  1.2574  2.4625
 1828SOL    HW2 5774   0.096   4.353   3.925  1.1507 -1.0043 -2.6909
 1829SOL     OW 5775   3.022   5.535   3.475  0.3425  0.4138  0.0617
 1829SOL    HW1 5776   3.113   5.499   3.460  1.2753  2.0397  1.4318
 1829SOL    HW2 5777   2.989   5.580   3.392  0.8364 -0.0522 -0.3906
 1830SOL     OW 5778   5.671   5.177   3.168  0.6172 -0.2147  0.2877
 1830SOL    HW1 5779   5.681   5.273   3.195  0.1043  0.0740 -0.5154
 1830SOL    HW2 5780   5.750   5.125   3.199  2.2047  0.9873 -1.5216
 1831SOL     OW 5781   1.077   5.787   4.137  0.0088 -0.2273 -0.1920
 1831SOL    HW1 5782   0.992   5.779   4.188  0.7982  2.4440  1.7550
 1831SOL    HW2 5783   1.062   5.844   4.056  0.0733  0.8845  0.5644
 1832SOL     OW 5784   0.820   5.672   4.285  0.4284 -0.7032  0.0103
 1832SOL    HW1 5785   0.812   5.575   4.259  2.1974 -0.7310 -0.6027
 1832SOL    HW2 5786   0.851   5.678   4.380 -2.2946 -0.6528  0.9735
 1833SOL     OW 5787   0.615   5.204   4.130 -0.1524  0.1039  0.0603
 1833SOL    HW1 5788   0.547   5.219   4.059  0.3041 -2.7169 -1.0733
 1833SOL    HW2 5789   0.703   5.180   4.089  0.1313 -1.5799  1.5022
 1834SOL     OW 5790   5.411   5.636   3.536 -0.3406 -0.2925 -0.1887
 1834SOL    HW1 5791   5.325   5.684   3.557  0.1465  1.2148 -1.4176
 1834SOL    HW2 5792   5.452   5.603   3.620 -0.4382  1.9709  0.8313
 1835SOL     OW 5793   1.681   0.383   5.440  0.3850 -0.0952 -0.1053
 1835SOL    HW1 5794   1.636   0.430   5.516  0.1871  2.5067 -1.6801
 1835SOL    HW2 5795   1.615   0.327   5.391 -0.7043  1.8389 -0.9951
 1836SOL     OW 5796   1.244   4.478   4.688 -0.5898  0.2885 -0.4379
 1836SOL    HW1 5797   1.248   4.433   4.598 -0.6979  1.3016 -0.9633
 1836SOL    HW2 5798   1.292   4.566   4.683 -0.3760  0.2352  0.5730
 1837SOL     OW 5799   0.896   4.724   3.813  0.2173  0.0632  0.0352
 1837SOL    HW1 5800   0.807   4.759   3.841 -0.4797  0.1454 -2.0754
 1837SOL    HW2 5801   0.921   4.646   3.870  0.3917  2.0255  2.8301
 1838SOL     OW 5802   0.394   4.655   4.333  0.4702 -0.2624 -0.0184
 1838SOL    HW1 5803   0.474   4.662   4.393  0.4303 -0.8128  0.1020
 1838SOL    HW2 5804   0.380   4.742   4.287  0.5352  0.1548  0.7315
 1839SOL     OW 5805   0.912   5.513   5.625 -0.1978 -1.0797 -0.1340
 1839SOL    HW1 5806   0.876   5.507   5.532  0.0864 -1.2329 -0.2334
 1839SOL    HW2 5807   0.976   5.439   5.642  1.6823  0.3552 -0.6573
 1840SOL     OW 5808   0.598   2.457   4.728 -0.1268  1.0072  0.7434
 1840SOL    HW1 5809   0.564   2.495   4.815  0.0004  2.0663  0.3482
 1840SOL    HW2 5810   0.520   2.431   4.671 -0.3062  2.4991  0.2464
 1841SOL     OW 5811   2.735   5.634   4.960 -0.0700  0.0275  0.1427
 1841SOL    HW1 5812   2.801   5.564   4.935  0.7631  0.3804  1.2601
 1841SOL    HW2 5813   2.745   5.656   5.057 -1.8800  0.0370  0.3755
 1842SOL     OW 5814   1.013   4.537   3.283 -0.4281 -0.7503  0.1163
 1842SOL    HW1 5815   0.980   4.443   3.295  1.4261 -1.2749  1.6377
 1842SOL    HW2 5816   1.073   4.542   3.203  0.2889 -1.1342  0.6162
 1843SOL     OW 5817   0.338   4.345   3.617 -0.0570  0.3072 -0.4991
 1843SOL    HW1 5818   0.353   4.443   3.607  0.7070  0.0137 -2.6671
 1843SOL    HW2 5819   0.422   4.301   3.650 -0.0340  0.2240 -0.6704
 1844SOL     OW 5820   2.457   4.617   4.781 -0.0728  0.0468  0.6238
 1844SOL    HW1 5821   2.412   4.573   4.857 -2.0720 -0.6644 -0.8935
 1844SOL    HW2 5822   2.390   4.669   4.727  0.9947 -0.4772 -1.3293
 1845SOL     OW 5823   2.463   5.517   4.060 -0.0056 -0.6462  0.4885
 1845SOL    HW1 5824   2.466   5.423   4.027 -1.1730 -0.5479  0.0751
 1845SOL    HW2 5825   2.525   5.526   4.138 -2.2658 -2.6273  2.6891
 1846SOL     OW 5826   5.940   3.753   4.349  0.0309  0.0021  0.0211
 1846SOL    HW1 5827   5.877   3.829   4.364  0.1120 -0.2060  1.6156
 1846SOL    HW2 5828   5.982   3.761   4.259 -2.0992  0.2520 -1.0007
 1847SOL     OW 5829   2.243   2.700   5.668 -0.1304  0.3405 -0.2252
 1847SOL    HW1 5830   2.263   2.657   5.580 -1.7915  3.2157 -2.1701
 1847SOL    HW2 5831   2.185   2.639   5.722 -0.4011 -0.8555 -1.7880
 1848SOL     OW 5832   0.662   4.641   4.454 -0.1264  0.2907 -0.3675
 1848SOL    HW1 5833   0.627   4.635   4.547  0.0018  1.0096 -0.2709
 1848SOL    HW2 5834   0.680   4.549   4.419  1.4404  0.0521  0.9343
 1849SOL     OW 5835   0.554   3.362   5.665 -0.9159 -0.1809  0.1195
 1849SOL    HW1 5836   0.586   3.456   5.661 -0.2522 -0.4026  0.0937
 1849SOL    HW2 5837   0.592   3.317   5.746 -0.4091 -0.7221 -0.4132
 1850SOL     OW 5838   3.163   4.053   3.700  0.2708 -0.5136  0.0739
 1850SOL    HW1 5839   3.167   4.103   3.787  2.8729 -0.8845  0.2462
 1850SOL    HW2 5840   3.162   3.955   3.719 -0.3385 -0.5933 -0.3381
 1851SOL     OW 5841   5.850   4.276   4.237  0.2251  0.9911 -0.1733
 1851SOL    HW1 5842   5.810   4.310   4.152 -1.5308  2.1348  1.0484
 1851SOL    HW2 5843   5.942   4.312   4.247  0.0759  1.6753 -1.0917
 1852SOL     OW 5844   5.252   5.520   0.208  0.7852  0.0047  0.5189
 1852SOL    HW1 5845   5.351   5.505   0.204  0.9909  0.2033  3.2481
 1852SOL    HW2 5846   5.222   5.517   0.303 -1.8275  0.1760 -0.2425
 1853SOL     OW 5847   1.878   4.508   3.146  0.0280 -0.0693 -0.4648
 1853SOL    HW1 5848   1.912   4.586   3.093  1.8644 -0.7661 -0.4008
 1853SOL    HW2 5849   1.875   4.532   3.243 -0.0531  0.1337 -0.5181
 1854SOL     OW 5850   2.207   3.499   5.939  0.0140  0.5218  0.6325
 1854SOL    HW1 5851   2.220   3.449   6.025  0.4948  1.7306  1.2982
 1854SOL    HW2 5852   2.251   3.450   5.864 -1.6100 -1.2822  0.7884
 1855SOL     OW 5853   2.587   4.979   2.621 -0.3198  0.3586  0.6997
 1855SOL    HW1 5854   2.603   4.909   2.691  0.3553 -0.4032 -0.1911
 1855SOL    HW2 5855   2.489   4.983   2.600 -0.3513 -0.4100  0.6758
 1856SOL     OW 5856   1.528   4.023   4.767  0.4358 -0.0265 -0.3119
 1856SOL    HW1 5857   1.441   4.016   4.717 -0.1428 -0.5628  0.7474
 1856SOL    HW2 5858   1.519   4.090   4.840  0.5014 -1.0067  0.6072
 1857SOL     OW 5859   0.370   4.895   4.232  0.2688 -0.1281  0.8531
 1857SOL    HW1 5860   0.299   4.952   4.191  0.1620 -0.6160  0.3516
 1857SOL    HW2 5861   0.420   4.949   4.300  1.7737  1.3624 -1.2884
 1858SOL     OW 5862   1.723   0.543   4.002 -0.0908  0.8435 -0.2004
 1858SOL    HW1 5863   1.661   0.471   3.972 -1.1542  1.4542  0.4667
 1858SOL    HW2 5864   1.710   0.561   4.099 -1.8950  3.7931 -0.8494
 1859SOL     OW 5865   1.974   5.571   4.614 -0.0296  0.9131 -0.2106
 1859SOL    HW1 5866   2.016   5.640   4.555  1.0899  1.3718  1.0689
 1859SOL    HW2 5867   2.007   5.583   4.707 -1.9037  0.3403  0.5696
 1860SOL     OW 5868   0.902   4.579   5.016 -0.2221 -0.1592  0.4573
 1860SOL    HW1 5869   0.947   4.516   4.954 -0.0070 -1.1494  1.5861
 1860SOL    HW2 5870   0.970   4.619   5.079 -0.3111  1.3925 -0.3719
 1861SOL     OW 5871   5.961   0.008   5.607 -0.0187  1.1459 -0.0594
 1861SOL    HW1 5872   5.989  -0.041   5.690 -0.8721  0.1671 -0.3141
 1861SOL    HW2 5873   6.023   0.084   5.590  1.8049 -0.2546 -0.0145
 1862SOL     OW 5874   2.416   5.432   4.553  0.2068  0.0105 -0.0990
 1862SOL    HW1 5875   2.417   5.371   4.632 -2.1553  0.6240  0.4940
 1862SOL    HW2 5876   2.509   5.459   4.530  1.0551 -1.3158  1.5698
 1863SOL     OW 5877   5.668   0.076   5.175  0.3798  0.0682 -0.2220
 1863SOL    HW1 5878   5.703   0.009   5.110  0.6940  0.1943 -0.1818
 1863SOL    HW2 5879   5.595   0.129   5.132  0.7602  0.3262 -0.5541
 1864SOL     OW 5880   1.923   5.797   4.205  0.6345 -0.7096  0.0136
 1864SOL    HW1 5881   1.867   5.714   4.205  1.0229 -0.9798 -0.4952
 1864SOL    HW2 5882   1.974   5.803   4.119  1.0423 -0.2400  0.2799
 1865SOL     OW 5883   5.572   3.818   3.581  0.3424 -0.5131  0.2014
 1865SOL    HW1 5884   5.515   3.899   3.586  0.3427 -0.3801 -1.4108
 1865SOL    HW2 5885   5.529   3.743   3.630  0.6036  0.5755  2.1881
 1866SOL     OW 5886   0.417   5.165   3.692  0.2139  0.3178 -0.6895
 1866SOL    HW1 5887   0.335   5.152   3.637  0.8096 -3.0820 -0.9588
 1866SOL    HW2 5888   0.497   5.172   3.632  0.7076 -2.0836 -0.3995
 1867SOL     OW 5889   0.721   4.392   4.281 -0.3105  0.1375  0.3027
 1867SOL    HW1 5890   0.718   4.351   4.372 -2.1464 -2.1394 -0.6731
 1867SOL    HW2 5891   0.812   4.379   4.242  0.4099  0.8932  1.6678
 1868SOL     OW 5892   1.214   3.059   4.427  0.6338 -0.2806 -0.1033
 1868SOL    HW1 5893   1.189   2.969   4.391 -0.6451  0.1366 -0.3043
 1868SOL    HW2 5894   1.160   3.078   4.509  0.6363  0.4660 -0.2706
 1869SOL     OW 5895   1.921   0.279   4.649 -0.2509 -0.2333 -0.4605
 1869SOL    HW1 5896   1.857   0.219   4.600 -1.8128  0.0431  1.1517
 1869SOL    HW2 5897   1.910   0.373   4.616 -0.8070 -0.1576 -0.0629
 1870SOL     OW 5898   1.046   4.972   5.030 -0.1450  0.6044  0.0971
 1870SOL    HW1 5899   1.076   4.886   4.989  0.6740  0.7927  0.2925
 1870SOL    HW2 5900   1.064   4.970   5.128  0.0723  1.0900  0.0656
 1871SOL     OW 5901   1.345   3.858   4.079  0.4714  0.4035  0.4550
 1871SOL    HW1 5902   1.278   3.809   4.134  0.3552  1.5537  1.3815
 1871SOL    HW2 5903   1.437   3.836   4.110  0.4246  0.6839  0.7951
 1872SOL     OW 5904   0.586   2.781   4.545 -0.2080 -0.3311  0.0751
 1872SOL    HW1 5905   0.649   2.772   4.622 -0.6152  0.5674  0.5289
 1872SOL    HW2 5906   0.617   2.723   4.469  0.8701 -0.2815  0.4668
 1873SOL     OW 5907   1.557   3.342   2.665  0.2633 -0.0319  0.5241
 1873SOL    HW1 5908   1.629   3.405   2.637  0.3614 -0.3812 -0.0222
 1873SOL    HW2 5909   1.472   3.366   2.620 -0.0622  0.6092  1.4569
 1874SOL     OW 5910   5.848   4.104   5.408 -0.2003  0.5551 -0.1232
 1874SOL    HW1 5911   5.847   4.194   5.453  0.3949  0.5783 -0.1484
 1874SOL    HW2 5912   5.913   4.107   5.332 -1.6233  0.7061 -1.3739
 1875SOL     OW 5913   0.662   4.387   5.583  0.1539 -1.1933 -0.6549
 1875SOL    HW1 5914   0.711   4.446   5.519  0.3881 -0.7679 -0.0955
 1875SOL    HW2 5915   0.622   4.444   5.656  2.4070 -1.9060  1.2582
 1876SOL     OW 5916   0.995   3.047   4.580 -0.6864 -0.5027  0.2019
 1876SOL    HW1 5917   1.021   2.950   4.578  0.5266 -0.1938 -0.3002
 1876SOL    HW2 5918   1.044   3.093   4.654  0.4449  0.1487 -0.9129
 1877SOL     OW 5919   0.108   5.307   3.349  0.1393  0.0579  0.1649
 1877SOL    HW1 5920   0.144   5.231   3.296  1.6446 -0.4040  1.7483
 1877SOL    HW2 5921   0.174   5.382   3.350  0.3120 -0.0772  1.6201
 1878SOL     OW 5922   1.465   4.222   4.935  1.0037 -0.3861 -0.4847
 1878SOL    HW1 5923   1.533   4.259   4.998  0.4031 -0.4590  0.2142
 1878SOL    HW2 5924   1.378   4.269   4.948  1.3214  0.9184 -2.5508
 1879SOL     OW 5925   5.902   3.207   4.202  0.1396  0.1930 -0.3857
 1879SOL    HW1 5926   5.888   3.268   4.280  0.9378 -0.8793  0.6323
 1879SOL    HW2 5927   6.000   3.191   4.189  0.0002  0.0321 -1.3717
 1880SOL     OW 5928   2.317   3.962   5.177  0.5830 -0.1577  0.3788
 1880SOL    HW1 5929   2.236   3.934   5.126  0.1092 -0.0723  1.0683
 1880SOL    HW2 5930   2.298   3.958   5.275  0.6436  2.0974  0.5428
 1881SOL     OW 5931   0.902   2.738   3.170 -0.6202 -0.0103 -0.6466
 1881SOL    HW1 5932   0.993   2.778   3.164  0.3794 -2.0412 -0.0936
 1881SOL    HW2 5933   0.868   2.745   3.263 -0.7776  0.2069 -0.7187
 1882SOL     OW 5934   1.062   4.056   3.230 -0.8228  0.0778  0.2324
 1882SOL    HW1 5935   1.141   4.051   3.290 -0.0215  1.5269 -0.6534
 1882SOL    HW2 5936   0.994   3.987   3.258  0.9777 -1.6123  0.6249
 1883SOL     OW 5937   0.682   3.305   5.184  0.3337  0.1235 -0.4288
 1883SOL    HW1 5938   0.679   3.397   5.224  0.5252  0.7884 -1.8662
 1883SOL    HW2 5939   0.772   3.264   5.200  0.7408  0.7739 -1.0065
 1884SOL     OW 5940   1.702   5.371   4.052  0.8645  0.6152  0.3746
 1884SOL    HW1 5941   1.765   5.426   4.107  0.2791 -0.2056  1.9302
 1884SOL    HW2 5942   1.729   5.376   3.956  1.8197  2.2340  0.6915
 1885SOL     OW 5943   0.372   0.006   3.760  0.0413  0.1330  0.2039
 1885SOL    HW1 5944   0.314   0.044   3.688  1.2257 -0.4493 -1.1105
 1885SOL    HW2 5945   0.468   0.012   3.732  0.3471 -4.8727 -0.7697
 1886SOL     OW 5946   1.287   5.984   5.941 -0.1108 -0.5371 -0.3240
 1886SOL    HW1 5947   1.273   5.975   6.040 -1.6722 -1.2032 -0.5708
 1886SOL    HW2 5948   1.329   5.901   5.905 -1.6921 -1.2815 -0.5359
 1887SOL     OW 5949   1.794   4.556   4.039  0.2178  0.0797  0.3429
 1887SOL    HW1 5950   1.697   4.552   4.062 -0.5127 -2.2736 -2.5330
 1887SOL    HW2 5951   1.814   4.643   3.996 -0.9908  0.0480 -0.3313
 1888SOL     OW 5952   0.627   4.361   3.692  0.0170  0.1834 -0.3678
 1888SOL    HW1 5953   0.723   4.338   3.708  0.3232  1.1546 -0.7074
 1888SOL    HW2 5954   0.606   4.448   3.736 -0.6866  0.0129 -0.3590
 1889SOL     OW 5955   1.118   3.889   5.153  0.4465 -0.3243  0.3033
 1889SOL    HW1 5956   1.086   3.976   5.116 -1.7308 -0.1750  2.2139
 1889SOL    HW2 5957   1.048   3.819   5.139  1.7033 -1.5129 -0.2588
 1890SOL     OW 5958   5.344   3.827   5.156  0.1038  0.1358  0.7972
 1890SOL    HW1 5959   5.401   3.769   5.214  1.9581  1.0413 -0.0183
 1890SOL    HW2 5960   5.401   3.900   5.118 -1.1646 -0.0884 -1.6781
 1891SOL     OW 5961   0.846   3.036   4.375  0.0430 -0.4179  0.2088
 1891SOL    HW1 5962   0.912   3.058   4.446  1.5681  1.4152 -1.6294
 1891SOL    HW2 5963   0.755   3.068   4.402  0.0963 -1.8804  2.2657
 1892SOL     OW 5964   1.981   4.725   3.442 -0.7695 -0.2729  0.1866
 1892SOL    HW1 5965   1.953   4.631   3.461  1.4180 -0.7366  1.4863
 1892SOL    HW2 5966   1.911   4.770   3.386 -2.5268 -2.2016  0.7068
 1893SOL     OW 5967   1.248   4.076   4.726 -0.4531 -0.2595 -0.2560
 1893SOL    HW1 5968   1.239   4.069   4.825  0.6783  1.1186 -0.0243
 1893SOL    HW2 5969   1.179   4.138   4.689 -0.0352  0.2695 -0.1529
 1894SOL     OW 5970   2.424   3.449   4.512  0.2648 -0.7088  0.0004
 1894SOL    HW1 5971   2.478   3.381   4.562 -1.3058 -0.7144  1.8041
 1894SOL    HW2 5972   2.426   3.427   4.414  0.1104 -3.1751  0.4658
 1895SOL     OW 5973   1.297   4.026   3.858  0.5189  0.5630 -0.0670
 1895SOL    HW1 5974   1.312   3.963   3.934  0.1093  0.6200  0.0626
 1895SOL    HW2 5975   1.362   4.006   3.785  0.9628  0.5524  0.3256
 1896SOL     OW 5976   2.711   5.264   4.487 -0.2114 -0.3193  0.3839
 1896SOL    HW1 5977   2.659   5.242   4.405  0.6447  0.4217 -0.3767
 1896SOL    HW2 5978   2.703   5.362   4.506  1.5493 -0.0330 -0.2226
 1897SOL     OW 5979   1.561   4.200   3.579 -0.3343  0.3816  0.3068
 1897SOL    HW1 5980   1.520   4.284   3.542  0.7705  1.0243  0.4946
 1897SOL    HW2 5981   1.605   4.149   3.505 -2.3785 -0.9026 -0.1100
 1898SOL     OW 5982   0.593   4.574   3.892  0.1645  0.1393 -0.2310
 1898SOL    HW1 5983   0.546   4.530   3.969  0.4868  2.1470  1.1895
 1898SOL    HW2 5984   0.557   4.666   3.880  1.1384  0.3598 -1.5783
 1899SOL     OW 5985   1.996   5.620   5.183 -0.1137  0.3396  0.2213
 1899SOL    HW1 5986   2.054   5.595   5.260  0.8139 -0.1218 -0.6078
 1899SOL    HW2 5987   1.939   5.698   5.208 -0.4109 -0.2970  1.6351
 1900SOL     OW 5988   0.628   4.604   5.807 -0.0991 -0.2038 -0.9324
 1900SOL    HW1 5989   0.608   4.536   5.878  1.0931  1.3019  0.9707
 1900SOL    HW2 5990   0.545   4.655   5.785 -0.0805  0.7728  1.0603
 1901SOL     OW 5991   1.751   5.441   4.568 -0.0553  0.2244 -0.7222
 1901SOL    HW1 5992   1.713   5.390   4.645 -0.4612 -1.1051 -1.7545
 1901SOL    HW2 5993   1.828   5.496   4.599 -1.3631  1.1732  0.9645
 1902SOL     OW 5994   1.183   4.585   4.146  0.1142 -0.5967  0.6510
 1902SOL    HW1 5995   1.173   4.678   4.111  1.9963 -1.2374 -1.9390
 1902SOL    HW2 5996   1.261   4.581   4.208 -0.2377 -0.3826  1.1122
 1903SOL     OW 5997   1.032   4.575   4.364  0.3076 -0.2346 -0.4062
 1903SOL    HW1 5998   1.076   4.564   4.275  0.6156 -0.2781 -0.2490
 1903SOL    HW2 5999   1.065   4.659   4.408  0.2498 -0.2756 -0.2825
 1904SOL     OW 6000   2.066   2.149   0.185  0.9999  0.3506  0.0114
 1904SOL    HW1 6001   1.998   2.220   0.201  0.6275 -0.1981  1.0086
 1904SOL    HW2 6002   2.158   2.186   0.201  0.7855  0.5125  0.9093
 1905SOL     OW 6003   0.484   0.333   5.842  0.0063 -0.2253 -0.0527
 1905SOL    HW1 6004   0.560   0.348   5.780 -0.4495 -1.5268 -0.9880
 1905SOL    HW2 6005   0.517   0.331   5.936  1.2194 -1.2331 -0.4790
 1906SOL     OW 6006   5.927   4.603   3.736 -0.2373  0.0962  1.0015
 1906SOL    HW1 6007   5.871   4.664   3.793 -1.0751 -0.3254  0.6421
 1906SOL    HW2 6008   5.955   4.524   3.790 -2.5225 -1.2172  0.4171
 1907SOL     OW 6009   1.174   3.754   4.281  0.3127 -0.3173  0.3070
 1907SOL    HW1 6010   1.161   3.684   4.352 -1.2947 -0.5081 -0.1298
 1907SOL    HW2 6011   1.201   3.840   4.324 -1.2941 -0.2453  1.2778
 1908SOL     OW 6012   1.297   3.477   5.044  0.1774 -0.1448  0.3688
 1908SOL    HW1 6013   1.353   3.560   5.047  0.3221 -0.2073 -0.5391
 1908SOL    HW2 6014   1.332   3.412   5.112  0.2425  0.4159  0.8866
 1909SOL     OW 6015   1.153   5.334   5.309 -0.1332  1.0494 -0.0327
 1909SOL    HW1 6016   1.191   5.295   5.225 -1.2469  1.0952 -0.5680
 1909SOL    HW2 6017   1.209   5.305   5.387  1.2179  1.4357 -0.8318
 1910SOL     OW 6018   0.072   5.673   4.788  0.4111  0.0190 -0.3908
 1910SOL    HW1 6019  -0.018   5.634   4.768  0.6614 -0.9865  0.3784
 1910SOL    HW2 6020   0.071   5.771   4.768 -1.3415  0.3595  1.0859
 1911SOL     OW 6021   5.963   4.497   3.477 -0.5574  0.7255 -0.0261
 1911SOL    HW1 6022   5.938   4.530   3.568 -2.6451  1.2794 -0.7583
 1911SOL    HW2 6023   5.941   4.400   3.470  3.5125 -0.5129  1.3716
 1912SOL     OW 6024   2.207   4.101   3.883 -0.1978 -0.5716 -0.3406
 1912SOL    HW1 6025   2.207   4.042   3.964  0.7635  1.3725  1.1813
 1912SOL    HW2 6026   2.270   4.065   3.815  0.7573 -1.0521  0.7689
 1913SOL     OW 6027   1.213   4.811   4.411 -0.4288 -0.1661  0.2085
 1913SOL    HW1 6028   1.140   4.876   4.432 -1.4472 -0.7361 -1.3242
 1913SOL    HW2 6029   1.249   4.830   4.320  1.2176 -0.0274  0.8673
 1914SOL     OW 6030   1.418   3.551   4.230 -0.0283 -0.1704 -0.7604
 1914SOL    HW1 6031   1.319   3.560   4.218 -0.1954  1.1372  1.0961
 1914SOL    HW2 6032   1.438   3.479   4.296  0.3229 -0.9379 -1.6822
 1915SOL     OW 6033   5.249   4.643   4.658  0.0388 -0.5515  0.1643
 1915SOL    HW1 6034   5.275   4.697   4.577 -0.7048 -1.2656 -0.5732
 1915SOL    HW2 6035   5.312   4.663   4.733 -0.2280  1.3558 -0.0700
 1916SOL     OW 6036   0.791   4.560   5.427 -0.0933 -0.8871  0.5173
 1916SOL    HW1 6037   0.869   4.506   5.398 -0.5962 -1.2458 -0.1990
 1916SOL    HW2 6038   0.817   4.657   5.431  0.0966 -0.8507 -0.8671
 1917SOL     OW 6039   2.581   4.282   5.273 -0.4980  0.2895 -0.5589
 1917SOL    HW1 6040   2.527   4.234   5.203 -0.6634  1.0568 -0.9790
 1917SOL    HW2 6041   2.650   4.339   5.228 -0.6214  0.8098 -0.0983
 1918SOL     OW 6042   2.873   3.894   0.299 -0.3715 -0.2586  0.3943
 1918SOL    HW1 6043   2.878   3.845   0.212 -0.5584 -0.6849  0.6217
 1918SOL    HW2 6044   2.923   3.843   0.369  1.4439  1.0276  0.1125
 1919SOL     OW 6045   0.061   2.922   4.854 -0.2924  0.7596 -0.1698
 1919SOL    HW1 6046   0.084   3.002   4.799  0.5875  0.0847 -0.8136
 1919SOL    HW2 6047   0.095   2.840   4.809 -2.4307 -0.1454 -0.2652
 1920SOL     OW 6048   2.854   2.940   4.542 -0.1133 -0.2990  0.7942
 1920SOL    HW1 6049   2.819   3.023   4.587 -2.6389 -0.2037 -1.0855
 1920SOL    HW2 6050   2.937   2.961   4.492  0.3227  0.6170  1.8692
 1921SOL     OW 6051   0.356   3.238   4.890  0.0796  0.1620 -0.0930
 1921SOL    HW1 6052   0.335   3.231   4.792  1.2782  2.0942 -0.5333
 1921SOL    HW2 6053   0.365   3.146   4.928 -3.1483 -0.7191 -1.1255
 1922SOL     OW 6054   0.769   3.629   4.052  0.6995 -0.2854  0.3040
 1922SOL    HW1 6055   0.716   3.706   4.018  1.5257 -0.2534 -0.9794
 1922SOL    HW2 6056   0.867   3.650   4.044  0.9296 -1.4000  0.1107
 1923SOL     OW 6057   0.407   5.385   4.671  0.2526  0.1042 -0.3529
 1923SOL    HW1 6058   0.500   5.421   4.672  0.8530 -1.3444 -0.8388
 1923SOL    HW2 6059   0.342   5.460   4.662  1.2945  1.2460  1.2716
 1924SOL     OW 6060   1.734   4.152   5.219  0.3246 -0.9970  0.5245
 1924SOL    HW1 6061   1.762   4.067   5.175 -1.0979 -2.5398  2.3886
 1924SOL    HW2 6062   1.664   4.132   5.288  1.0105  1.4874  2.0859
 1925SOL     OW 6063   5.207   5.524   3.939 -0.8202 -0.0627 -0.0845
 1925SOL    HW1 6064   5.162   5.531   4.028 -2.8103  0.0572 -1.0539
 1925SOL    HW2 6065   5.275   5.597   3.931 -0.3446 -0.2898  1.4477
 1926SOL     OW 6066   1.105   4.668   5.589  0.1808 -0.3091  0.1478
 1926SOL    HW1 6067   1.182   4.689   5.650 -0.1334  0.2032  0.3697
 1926SOL    HW2 6068   1.055   4.751   5.568  0.8261 -0.3098 -1.5739
 1927SOL     OW 6069   5.883   5.423   3.467  0.3048  0.7916 -0.4016
 1927SOL    HW1 6070   5.875   5.357   3.541  1.1640  2.1474  0.9729
 1927SOL    HW2 6071   5.948   5.389   3.399  0.1380 -0.1072 -0.1245
 1928SOL     OW 6072   0.353   3.003   5.038  0.4552 -0.1250 -0.1954
 1928SOL    HW1 6073   0.288   2.979   5.110  1.0449  0.3603  0.5157
 1928SOL    HW2 6074   0.444   3.017   5.078  0.6172  1.0003 -0.9036
 1929SOL     OW 6075   1.110   3.746   4.816 -0.4757 -0.0915 -0.9985
 1929SOL    HW1 6076   1.121   3.757   4.717 -1.2567 -0.3338 -1.1226
 1929SOL    HW2 6077   1.200   3.739   4.859  0.0001  2.5829 -1.3778
 1930SOL     OW 6078   5.682   3.591   4.861  0.0931  0.2871  0.6309
 1930SOL    HW1 6079   5.751   3.662   4.844 -0.2086  0.4733  0.1544
 1930SOL    HW2 6080   5.622   3.584   4.782  1.9388 -2.6145 -0.6609
 1931SOL     OW 6081   2.054   2.807   4.950  0.1499 -0.0333 -0.6226
 1931SOL    HW1 6082   2.108   2.885   4.983 -1.2765  0.8074 -0.1679
 1931SOL    HW2 6083   2.033   2.747   5.026 -0.0545 -0.0412 -0.6859
 1932SOL     OW 6084   0.131   4.504   5.389  0.5110  0.3475 -0.0998
 1932SOL    HW1 6085   0.049   4.481   5.336 -0.5499  0.2707  1.5023
 1932SOL    HW2 6086   0.183   4.421   5.407  0.3030  0.2143 -0.1072
 1933SOL     OW 6087   1.387   3.956   5.063  0.3687  0.0558  0.6784
 1933SOL    HW1 6088   1.416   4.045   5.026  0.8213  0.4443  1.9369
 1933SOL    HW2 6089   1.287   3.954   5.068  0.3218  0.2162 -0.0102
 1934SOL     OW 6090   2.587   4.225   4.618 -0.5090  0.0674 -0.2714
 1934SOL    HW1 6091   2.613   4.319   4.640 -1.5946  0.5110 -0.8113
 1934SOL    HW2 6092   2.488   4.214   4.632 -0.6964 -0.4976 -1.9018
 1935SOL     OW 6093   1.555   5.469   5.008  0.2011  0.7954  0.4540
 1935SOL    HW1 6094   1.457   5.482   5.025 -0.3051 -1.6344 -0.1879
 1935SOL    HW2 6095   1.598   5.557   4.989 -2.3766  1.6956 -1.8826
 1936SOL     OW 6096   0.603   5.169   3.508 -0.3099  0.5447 -0.3658
 1936SOL    HW1 6097   0.673   5.102   3.484 -0.1548  0.8666 -0.8378
 1936SOL    HW2 6098   0.520   5.151   3.455 -0.5135  0.2914  0.0371
 1937SOL     OW 6099   0.889   4.330   3.742  0.0376  0.0355 -0.3982
 1937SOL    HW1 6100   0.908   4.391   3.819  0.8503 -0.8409  0.1202
 1937SOL    HW2 6101   0.950   4.353   3.666 -0.5576  0.7073 -0.6769
 1938SOL     OW 6102   1.326   3.547   0.606  0.5038  0.0586  0.1504
 1938SOL    HW1 6103   1.397   3.538   0.676 -0.9723  1.6462  1.9480
 1938SOL    HW2 6104   1.258   3.475   0.618  0.4948  0.0479  0.0376
 1939SOL     OW 6105   1.358   3.179   5.133  0.2240  0.1469  1.0012
 1939SOL    HW1 6106   1.427   3.155   5.064 -1.3053  0.8796 -0.9004
 1939SOL    HW2 6107   1.307   3.098   5.159  0.1274  0.0281  0.4537
 1940SOL     OW 6108   5.288   0.046   4.162 -0.5866 -0.2371 -0.1635
 1940SOL    HW1 6109   5.367  -0.012   4.144 -0.2111  0.1360  0.2436
 1940SOL    HW2 6110   5.309   0.140   4.135 -0.3958  0.1268  1.1444
 1941SOL     OW 6111   0.575   5.601   4.605 -0.1874 -0.0958  0.4643
 1941SOL    HW1 6112   0.530   5.597   4.515  0.8852  0.0421 -0.0964
 1941SOL    HW2 6113   0.672   5.580   4.594 -0.1895 -0.8722  1.7169
 1942SOL     OW 6114   1.345   5.061   5.960  0.1838  0.0523  0.1259
 1942SOL    HW1 6115   1.267   5.055   6.023 -1.5900  0.7905 -1.8972
 1942SOL    HW2 6116   1.387   4.971   5.952 -1.0182 -0.5860  0.5988
 1943SOL     OW 6117   5.692   4.598   4.837  0.5082  0.0832 -0.4166
 1943SOL    HW1 6118   5.682   4.506   4.799 -0.1888  0.4722 -1.2290
 1943SOL    HW2 6119   5.601   4.638   4.851  0.6591 -0.3980  2.6814
 1944SOL     OW 6120   4.797   4.886   4.717  0.2141  0.3210 -0.3024
 1944SOL    HW1 6121   4.740   4.964   4.741 -1.2755 -1.3181  1.9128
 1944SOL    HW2 6122   4.779   4.811   4.780  2.7528 -1.3037 -1.3335
 1945SOL     OW 6123   5.812   4.854   5.749 -0.0782  0.5398 -0.0651
 1945SOL    HW1 6124   5.718   4.826   5.731 -0.0262 -1.4660  2.2337
 1945SOL    HW2 6125   5.872   4.774   5.745  1.1522  1.3836  0.7639
 1946SOL     OW 6126   1.496   4.617   5.444 -0.0123 -0.6593 -0.3729
 1946SOL    HW1 6127   1.451   4.528   5.450  0.1768 -0.7494 -0.2939
 1946SOL    HW2 6128   1.530   4.631   5.351  0.9899 -1.1757 -0.1008
 1947SOL     OW 6129   5.779   4.047   5.022 -0.0574 -0.0031 -0.2849
 1947SOL    HW1 6130   5.841   3.970   5.033  0.9061  0.6337 -1.0467
 1947SOL    HW2 6131   5.826   4.121   4.974 -0.7812  1.2734  0.8877
 1948SOL     OW 6132   1.836   3.339   4.744  0.0036 -0.4305  0.1065
 1948SOL    HW1 6133   1.797   3.362   4.655 -0.8659 -0.0948  0.5658
 1948SOL    HW2 6134   1.887   3.253   4.736  0.3332 -0.1658 -0.8161
 1949SOL     OW 6135   0.247   4.371   5.816 -0.0384  0.5043  0.4767
 1949SOL    HW1 6136   0.160   4.337   5.853 -0.1516  0.5757  0.2764
 1949SOL    HW2 6137   0.276   4.451   5.870  0.4917 -0.2045  1.2782
 1950SOL     OW 6138   5.562   3.723   5.303  0.3261  0.1569 -0.0260
 1950SOL    HW1 6139   5.628   3.699   5.231  2.3494 -0.1381  1.8284
 1950SOL    HW2 6140   5.569   3.820   5.323 -0.2322  0.2371 -0.2065
 1951SOL     OW 6141   0.696   5.290   5.245 -0.3881  0.4454 -0.0546
 1951SOL    HW1 6142   0.639   5.368   5.270 -0.4121  0.0585  1.1298
 1951SOL    HW2 6143   0.787   5.322   5.217 -0.0737  0.8521  1.3807
 1952SOL     OW 6144   5.674   5.320   4.787  0.1742 -0.6678 -0.1858
 1952SOL    HW1 6145   5.575   5.327   4.799  0.2156 -2.2963  1.4141
 1952SOL    HW2 6146   5.698   5.229   4.752  1.0842 -0.0243 -1.3400
 1953SOL     OW 6147   0.133   4.000   4.527 -0.7207  0.6510  0.0575
 1953SOL    HW1 6148   0.166   3.949   4.448 -1.7061  0.3415 -0.1758
 1953SOL    HW2 6149   0.162   4.095   4.520  1.7273  0.0458  0.8446
 1954SOL     OW 6150   0.418   4.184   4.333 -0.3175  0.3556  0.0801
 1954SOL    HW1 6151   0.420   4.241   4.251  0.7575  1.0943  0.5823
 1954SOL    HW2 6152   0.393   4.241   4.412  1.9269  0.4814  0.7840
 1955SOL     OW 6153   2.677   5.453   3.328  0.2000 -0.4184  0.0913
 1955SOL    HW1 6154   2.660   5.530   3.388  0.1447 -0.2017 -0.2014
 1955SOL    HW2 6155   2.748   5.394   3.368 -0.4739 -0.7693  0.8105
 1956SOL     OW 6156   1.356   3.710   4.588  0.2650  0.2838  0.3319
 1956SOL    HW1 6157   1.324   3.804   4.577  2.4680  0.9720 -0.5496
 1956SOL    HW2 6158   1.317   3.653   4.516  0.1716  0.8626 -0.0824
 1957SOL     OW 6159   1.907   5.217   4.985 -0.1627 -0.1608  0.1392
 1957SOL    HW1 6160   1.994   5.261   4.962 -0.1788  0.2584  0.8423
 1957SOL    HW2 6161   1.876   5.250   5.074  0.1919 -2.1490  1.0407
 1958SOL     OW 6162   5.347   4.916   4.037 -0.0713  0.3764  0.6966
 1958SOL    HW1 6163   5.381   4.924   4.131 -0.4305  0.4945  0.8194
 1958SOL    HW2 6164   5.275   4.847   4.033  2.2327 -2.1475 -0.1539
 1959SOL     OW 6165   5.975   4.623   4.929  0.3918  0.0384 -0.0809
 1959SOL    HW1 6166   6.038   4.655   4.858  0.1961  2.3239  0.6709
 1959SOL    HW2 6167   5.885   4.607   4.890  0.6678 -0.2274 -0.6130
 1960SOL     OW 6168   1.780   2.958   4.782  0.6386  0.4022 -0.2512
 1960SOL    HW1 6169   1.750   3.023   4.852 -1.6687  0.8563 -1.5380
 1960SOL    HW2 6170   1.771   2.865   4.817 -0.7491  0.6072  0.0215
 1961SOL     OW 6171   1.405   1.243   3.649  0.0125  0.0419 -0.2752
 1961SOL    HW1 6172   1.501   1.270   3.638 -0.6364  1.7096 -2.4503
 1961SOL    HW2 6173   1.382   1.174   3.582 -0.6102  0.5566 -0.6028
 1962SOL     OW 6174   0.331   5.522   5.795 -0.7290  0.3032  0.3116
 1962SOL    HW1 6175   0.411   5.581   5.803  1.2320 -2.1553 -0.0356
 1962SOL    HW2 6176   0.323   5.464   5.877 -1.3735 -0.3872 -0.2191
 1963SOL     OW 6177   1.001   4.544   4.750 -0.3459  0.5049 -0.1316
 1963SOL    HW1 6178   1.008   4.632   4.797 -0.8894  0.2303  0.4837
 1963SOL    HW2 6179   1.092   4.511   4.727 -0.1819  1.9115 -1.6796
 1964SOL     OW 6180   1.177   3.807   5.425 -0.0269  0.2574 -0.0842
 1964SOL    HW1 6181   1.246   3.758   5.479 -0.1885 -0.6188 -0.6419
 1964SOL    HW2 6182   1.221   3.849   5.346 -0.1314 -0.3608 -0.4780
 1965SOL     OW 6183   2.376   5.704   3.550  0.5961  0.4161 -0.1618
 1965SOL    HW1 6184   2.375   5.761   3.632 -0.8534  0.6470 -0.3065
 1965SOL    HW2 6185   2.467   5.665   3.538  0.5701 -0.5456  2.1988
 1966SOL     OW 6186   1.412   5.251   4.839 -0.2228 -0.0183 -0.1342
 1966SOL    HW1 6187   1.480   5.318   4.811 -1.6972  1.0146 -1.3855
 1966SOL    HW2 6188   1.411   5.175   4.774  0.9489 -0.9410  0.8866
 1967SOL     OW 6189   1.486   4.711   3.526  0.3733  0.1885 -0.8611
 1967SOL    HW1 6190   1.564   4.774   3.530  1.4854 -1.2169  1.1476
 1967SOL    HW2 6191   1.424   4.731   3.602  0.5341 -0.8464 -0.4486
 1968SOL     OW 6192   1.230   4.375   4.959  0.1002  0.1943 -0.1726
 1968SOL    HW1 6193   1.237   4.408   4.865  0.8726 -2.0039 -0.9680
 1968SOL    HW2 6194   1.277   4.439   5.020 -0.1296  1.4994 -1.3015
 1969SOL     OW 6195   2.523   4.428   4.238  0.0515 -0.0221  0.1238
 1969SOL    HW1 6196   2.459   4.443   4.313 -0.2211  0.2285 -0.1597
 1969SOL    HW2 6197   2.617   4.441   4.271  0.0616 -1.6972  0.8717
 1970SOL     OW 6198   0.089   5.444   3.828  0.1326  0.2593 -0.2105
 1970SOL    HW1 6199   0.047   5.410   3.744 -0.4171  0.7655 -0.1491
 1970SOL    HW2 6200   0.030   5.420   3.906  1.3106 -1.4179  0.2065
 1971SOL     OW 6201   1.041   4.153   4.565 -0.1511 -0.1142  0.0770
 1971SOL    HW1 6202   0.966   4.101   4.606  0.0433  1.9285  3.4153
 1971SOL    HW2 6203   1.013   4.247   4.551  1.6457  0.6499  1.2347
 1972SOL     OW 6204   0.098   5.235   4.306  0.6014 -0.4453 -0.0590
 1972SOL    HW1 6205   0.049   5.258   4.390 -1.6623  0.6157 -1.5708
 1972SOL    HW2 6206   0.184   5.189   4.329 -0.0564 -0.4291  2.7917
 1973SOL     OW 6207   0.280   4.347   5.124  0.5441 -0.3708 -0.1263
 1973SOL    HW1 6208   0.290   4.259   5.172 -0.8246 -0.2389  0.4496
 1973SOL    HW2 6209   0.363   4.401   5.137  1.4908 -1.6317 -0.6443
 1974SOL     OW 6210   1.128   4.112   4.977 -0.6494  0.1226 -0.0368
 1974SOL    HW1 6211   1.155   4.208   4.983 -1.0023  0.1447  1.4348
 1974SOL    HW2 6212   1.032   4.106   4.949 -0.9807  0.2425  1.0565
 1975SOL     OW 6213   0.310   3.499   5.646  0.2480 -0.7424 -0.1258
 1975SOL    HW1 6214   0.356   3.411   5.648 -0.7334 -1.2894 -0.9925
 1975SOL    HW2 6215   0.376   3.570   5.619  0.7833 -1.3713 -0.5060
 1976SOL     OW 6216   0.202   4.523   4.499 -0.0166  0.0944  0.4364
 1976SOL    HW1 6217   0.175   4.583   4.573  0.5041  1.4364 -0.4289
 1976SOL    HW2 6218   0.262   4.572   4.435 -1.2224 -0.6941 -1.3972
 1977SOL     OW 6219   0.516   4.386   4.104 -0.5084  0.0247  0.1941
 1977SOL    HW1 6220   0.591   4.384   4.170  1.0492  1.2835 -1.4328
 1977SOL    HW2 6221   0.521   4.305   4.045 -0.6813 -0.0880  0.3324
 1978SOL     OW 6222   2.057   4.060   5.141  0.2194  0.4145  0.2924
 1978SOL    HW1 6223   2.124   4.096   5.206  1.3602  0.6937 -1.0130
 1978SOL    HW2 6224   1.965   4.090   5.168  0.4783 -0.5941  2.5374
 1979SOL     OW 6225   5.403   0.151   3.802 -0.3349  0.3709 -0.1660
 1979SOL    HW1 6226   5.374   0.198   3.718  1.9707  1.0492 -0.6589
 1979SOL    HW2 6227   5.503   0.148   3.806 -0.3781 -0.3033  2.2230
 1980SOL     OW 6228   5.887   0.929   5.347 -0.2681 -0.5313 -0.6052
 1980SOL    HW1 6229   5.915   1.006   5.291  0.4252 -2.0247 -2.4309
 1980SOL    HW2 6230   5.800   0.949   5.392 -0.2020  1.1914 -1.2010
 1981SOL     OW 6231   2.088   5.081   0.175  0.3125  0.1521 -0.1547
 1981SOL    HW1 6232   2.018   5.011   0.187  2.3957 -1.6720  2.5771
 1981SOL    HW2 6233   2.176   5.038   0.159  1.4413  2.2387  0.0512
 1982SOL     OW 6234   5.874   4.959   4.365  0.0706  0.5638  0.5171
 1982SOL    HW1 6235   5.836   4.867   4.374  0.2848  0.5072  0.8906
 1982SOL    HW2 6236   5.973   4.956   4.380  0.2346  0.7038 -0.4849
 1983SOL     OW 6237   1.317   5.679   4.510 -0.6805 -0.2650 -0.9127
 1983SOL    HW1 6238   1.284   5.598   4.558 -2.1223 -0.5186 -2.2661
 1983SOL    HW2 6239   1.413   5.667   4.486  0.5486  0.4130  2.9499
 1984SOL     OW 6240   1.229   3.379   4.806  0.0467 -0.1021 -0.0229
 1984SOL    HW1 6241   1.227   3.414   4.899 -2.1558 -0.5647  0.1423
 1984SOL    HW2 6242   1.310   3.415   4.759  0.6884  0.8869  1.7444
 1985SOL     OW 6243   0.941   3.693   5.078  0.6957 -0.1683  0.0690
 1985SOL    HW1 6244   0.996   3.688   4.995 -0.9875  0.0465 -1.1199
 1985SOL    HW2 6245   0.846   3.713   5.053  0.1651 -0.0205  2.0658
 1986SOL     OW 6246   0.286   4.301   5.424  0.1753 -0.3013 -0.0204
 1986SOL    HW1 6247   0.229   4.224   5.398 -0.9084  0.4039  0.2156
 1986SOL    HW2 6248   0.333   4.281   5.510  0.2086 -0.8376 -0.1597
 1987SOL     OW 6249   2.451   0.398   4.969  0.1970  0.1024 -0.0976
 1987SOL    HW1 6250   2.424   0.322   4.910  0.2759  0.1582 -0.2069
 1987SOL    HW2 6251   2.421   0.484   4.928 -1.6834  0.0246  1.0023
 1988SOL     OW 6252   0.627   2.708   5.344 -0.6286  0.1528  0.1189
 1988SOL    HW1 6253   0.651   2.665   5.258  0.7705 -0.4744  0.7953
 1988SOL    HW2 6254   0.705   2.760   5.380 -1.1172  0.2482  1.0969
 1989SOL     OW 6255   1.076   4.938   5.633 -0.1513 -0.1335  0.0131
 1989SOL    HW1 6256   1.056   5.001   5.558 -2.3127 -0.1451  0.5336
 1989SOL    HW2 6257   1.174   4.941   5.652 -0.0374  2.4719 -0.5165
 1990SOL     OW 6258   2.009   0.102   5.986  0.0908 -0.0057 -0.0727
 1990SOL    HW1 6259   2.047   0.193   6.004  1.8021 -0.8087  0.5753
 1990SOL    HW2 6260   2.041   0.069   5.897 -1.3755  0.4130 -0.7948
 1991SOL     OW 6261   0.686   4.310   4.560  0.2496  0.2379  0.8769
 1991SOL    HW1 6262   0.675   4.211   4.563  2.9712 -0.1413  1.0501
 1991SOL    HW2 6263   0.783   4.333   4.572 -0.1071  2.8625 -0.5462
 1992SOL     OW 6264   1.454   3.759   3.255  0.5414 -0.0708 -0.5212
 1992SOL    HW1 6265   1.434   3.691   3.185 -2.7123 -0.3937  0.5437
 1992SOL    HW2 6266   1.443   3.851   3.218 -1.6382 -0.2418 -0.4020
 1993SOL     OW 6267   0.574   3.429   4.529  0.2034 -0.0136 -0.4640
 1993SOL    HW1 6268   0.570   3.452   4.432  1.2019  1.6439 -0.1370
 1993SOL    HW2 6269   0.513   3.490   4.581 -1.0038 -1.4435 -0.0975
 1994SOL     OW 6270   1.619   3.247   5.467 -0.1776 -0.4470  0.1298
 1994SOL    HW1 6271   1.672   3.324   5.503 -1.1713  0.8844 -1.1416
 1994SOL    HW2 6272   1.678   3.168   5.457  0.9657  0.2380  1.1412
 1995SOL     OW 6273   2.591   3.661   5.423 -0.4890  0.2687 -0.3683
 1995SOL    HW1 6274   2.586   3.757   5.395  0.2207  0.7480  1.0970
 1995SOL    HW2 6275   2.522   3.643   5.493 -0.8557 -0.3965 -0.8863
 1996SOL     OW 6276   1.539   4.605   4.078 -0.4387 -0.7226 -0.6525
 1996SOL    HW1 6277   1.477   4.605   4.156 -0.7160 -1.3339 -0.8698
 1996SOL    HW2 6278   1.499   4.551   4.004  0.0992 -0.6520 -0.9982
 1997SOL     OW 6279   0.899   5.592   4.834  0.3188  0.1854  0.0294
 1997SOL    HW1 6280   0.861   5.675   4.874  0.2294  0.4725 -0.6474
 1997SOL    HW2 6281   0.999   5.592   4.844  0.2496 -0.0332  0.7872
 1998SOL     OW 6282   0.690   3.429   3.902 -0.0202 -0.2192 -0.0720
 1998SOL    HW1 6283   0.721   3.498   3.966  2.8646 -0.6321 -0.8568
 1998SOL    HW2 6284   0.679   3.470   3.811  2.0247 -0.7117 -0.6161
 1999SOL     OW 6285   0.883   4.075   3.830  0.2765 -0.3269  0.0144
 1999SOL    HW1 6286   0.886   4.166   3.787  1.6929 -0.8746 -1.1277
 1999SOL    HW2 6287   0.920   4.081   3.923  2.0549 -0.0224 -0.6784
 2000SOL     OW 6288   0.746   4.366   4.984 -0.3932 -0.9642 -0.0782
 2000SOL    HW1 6289   0.657   4.371   4.938 -0.9842 -0.6184  1.0770
 2000SOL    HW2 6290   0.781   4.459   4.998 -0.4702 -1.0387  0.6387
 2001SOL     OW 6291   0.190   5.448   4.873 -0.3380 -0.5267  0.5025
 2001SOL    HW1 6292   0.278   5.446   4.826  0.3127  0.3370  1.6462
 2001SOL    HW2 6293   0.151   5.540   4.867 -0.9195 -0.7698  0.4569
 2002SOL     OW 6294   0.082   5.476   5.644  0.5883 -0.3184 -0.0582
 2002SOL    HW1 6295   0.075   5.524   5.557  0.5394 -0.2691 -0.0273
 2002SOL    HW2 6296   0.172   5.494   5.685  0.1911  0.5662  0.4374
 2003SOL     OW 6297   1.493   4.607   0.024  0.0449  0.1931 -0.5337
 2003SOL    HW1 6298   1.412   4.553  -0.002 -0.2014  0.3487 -0.0974
 2003SOL    HW2 6299   1.513   4.592   0.120  0.8420 -0.2319 -0.7542
 2004SOL     OW 6300   1.917   4.519   5.287 -0.3196  0.0941 -0.2292
 2004SOL    HW1 6301   2.015   4.501   5.297 -0.0618  1.5698  0.1356
 2004SOL    HW2 6302   1.871   4.436   5.256  1.2581 -0.2496 -1.8501
 2005SOL     OW 6303   5.630   3.124   4.210  0.5529  0.4644  0.0454
 2005SOL    HW1 6304   5.721   3.124   4.252  0.8075  1.2304 -0.4846
 2005SOL    HW2 6305   5.596   3.218   4.204  0.1664  0.2856 -0.6956
 2006SOL     OW 6306   1.629   3.722   5.294  0.1812 -0.1158 -0.1129
 2006SOL    HW1 6307   1.607   3.683   5.204  1.3013 -1.0537 -0.0016
 2006SOL    HW2 6308   1.714   3.774   5.287  0.3638 -0.3399  0.4353
 2007SOL     OW 6309   0.088   5.173   4.815  0.2141 -0.3255 -0.2101
 2007SOL    HW1 6310   0.093   5.273   4.813 -1.5455 -0.2030  0.2908
 2007SOL    HW2 6311   0.070   5.142   4.908  2.0365 -1.2186 -0.1171
 2008SOL     OW 6312   0.775   4.923   4.466  0.8040 -0.1103  0.1734
 2008SOL    HW1 6313   0.735   4.979   4.539 -0.4939  0.5387 -0.9895
 2008SOL    HW2 6314   0.737   4.830   4.471  1.6790 -0.4374  1.0677
 2009SOL     OW 6315   1.713   2.972   5.708  0.1993 -0.3969 -0.2314
 2009SOL    HW1 6316   1.809   2.998   5.713 -0.1194  0.9884 -1.0515
 2009SOL    HW2 6317   1.680   2.982   5.615 -1.0596  0.3065  0.2698
 2010SOL     OW 6318   1.035   3.328   3.508  0.6414 -0.3257 -0.3706
 2010SOL    HW1 6319   1.135   3.326   3.517  0.8790 -3.3223 -2.1234
 2010SOL    HW2 6320   0.994   3.356   3.595  2.9646 -3.3547  1.9434
 2011SOL     OW 6321   1.875   4.315   4.048  0.0882  0.2661 -0.2278
 2011SOL    HW1 6322   1.847   4.411   4.057 -0.4498  0.0794  0.1285
 2011SOL    HW2 6323   1.812   4.268   3.986  0.0057  0.0034  0.0555
 2012SOL     OW 6324   1.149   5.336   0.358  0.1568 -0.0385  0.5598
 2012SOL    HW1 6325   1.165   5.376   0.268 -0.3985  1.5303  1.1134
 2012SOL    HW2 6326   1.056   5.300   0.363 -0.4217  1.4171  0.9965
 2013SOL     OW 6327   0.920   3.431   3.740  0.5503  0.1436 -0.1519
 2013SOL    HW1 6328   0.901   3.400   3.833  1.6166  0.4199  0.1698
 2013SOL    HW2 6329   1.001   3.490   3.740  1.7604 -1.4268 -1.5171
 2014SOL     OW 6330   2.278   2.942   5.004 -0.2755 -0.4352 -0.0391
 2014SOL    HW1 6331   2.330   2.873   4.953  0.7101  0.4105 -0.2024
 2014SOL    HW2 6332   2.338   2.984   5.072  0.0104  2.2412 -1.8055
 2015SOL     OW 6333   1.865   3.755   4.794 -0.6098 -0.3242 -0.2599
 2015SOL    HW1 6334   1.902   3.749   4.887 -1.7245  1.4041  0.3534
 2015SOL    HW2 6335   1.768   3.731   4.795 -1.3040  2.1446 -0.4101
 2016SOL     OW 6336   1.239   5.564   2.972 -0.3235  0.4795  0.2199
 2016SOL    HW1 6337   1.220   5.624   3.050 -0.3092 -0.7056  1.1619
 2016SOL    HW2 6338   1.154   5.542   2.924 -0.6674 -0.5816  1.2705
 2017SOL     OW 6339   0.312   5.551   3.922 -0.1777  0.0562 -1.0671
 2017SOL    HW1 6340   0.270   5.614   3.988  0.8431 -0.7328  0.4027
 2017SOL    HW2 6341   0.241   5.496   3.878 -0.7740 -2.5436  2.6637
 2018SOL     OW 6342   5.334   4.115   5.670 -0.2970  0.1100  0.4990
 2018SOL    HW1 6343   5.265   4.182   5.696 -1.6292 -1.5026  1.4005
 2018SOL    HW2 6344   5.293   4.048   5.607  0.1717 -1.2648  1.5852
 2019SOL     OW 6345   1.971   3.923   0.723 -0.0963  0.2230  0.2885
 2019SOL    HW1 6346   1.973   3.980   0.805 -0.5795  0.7206 -0.0384
 2019SOL    HW2 6347   1.906   3.961   0.657 -0.7995 -0.9713  0.2606
 2020SOL     OW 6348   5.370   4.429   5.291 -0.1583 -0.1153 -0.8962
 2020SOL    HW1 6349   5.324   4.365   5.230 -1.2819 -1.8504  1.5638
 2020SOL    HW2 6350   5.327   4.425   5.382  3.4450 -0.1891  0.9837
 2021SOL     OW 6351   0.106   3.770   0.258  0.0338  0.0276  0.1895
 2021SOL    HW1 6352   0.107   3.848   0.196  0.1404 -0.0896  0.0434
 2021SOL    HW2 6353   0.078   3.688   0.207 -2.8727  0.4541  0.9007
 2022SOL     OW 6354   1.312   5.243   5.519 -0.0023  0.8158 -0.5405
 2022SOL    HW1 6355   1.301   5.263   5.616  2.7941 -1.9550  0.5089
 2022SOL    HW2 6356   1.399   5.197   5.504 -0.8721  0.0586 -4.2309
 2023SOL     OW 6357   5.516   0.547   5.833  0.0671  0.1539 -0.1434
 2023SOL    HW1 6358   5.460   0.500   5.901  0.1877 -0.4360 -0.4467
 2023SOL    HW2 6359   5.516   0.495   5.748  2.1189 -0.5422  0.2290
 2024SOL     OW 6360   1.581   5.375   5.767  0.4756  0.2520  0.0536
 2024SOL    HW1 6361   1.630   5.447   5.817  1.1903 -0.4558  0.3983
 2024SOL    HW2 6362   1.636   5.291   5.768  0.8078  0.3602 -2.4420
 2025SOL     OW 6363   1.478   3.695   5.022 -0.7211  0.2847 -0.0086
 2025SOL    HW1 6364   1.461   3.784   5.064  0.9837  0.5712  0.1086
 2025SOL    HW2 6365   1.522   3.708   4.934 -2.4110 -0.3966 -1.0021
 2026SOL     OW 6366   2.021   3.689   5.935 -0.0067 -0.4179 -0.5568
 2026SOL    HW1 6367   1.948   3.621   5.928 -2.3733  1.9278 -0.0597
 2026SOL    HW2 6368   2.109   3.642   5.942 -1.5103 -3.4056 -0.0455
 2027SOL     OW 6369   0.283   3.956   0.078 -0.2026 -0.0739  0.3596
 2027SOL    HW1 6370   0.381   3.966   0.061 -0.1358 -2.2696 -0.8381
 2027SOL    HW2 6371   0.260   4.002   0.164  1.1373  3.6593 -1.0641
 2028SOL     OW 6372   5.792   2.973   4.906  0.4462 -0.0868  0.1464
 2028SOL    HW1 6373   5.891   2.963   4.893  0.5118  0.8675 -0.1432
 2028SOL    HW2 6374   5.775   3.013   4.996  0.2408 -1.6853  0.8391
 2029SOL     OW 6375   1.246   3.138   5.690  0.1741  0.0363  0.2198
 2029SOL    HW1 6376   1.327   3.175   5.734  1.4944 -1.0804 -1.1724
 2029SOL    HW2 6377   1.181   3.211   5.671  0.8936  0.9631  1.2437
 2030SOL     OW 6378   0.571   5.506   5.091 -0.3061  0.1017 -0.3419
 2030SOL    HW1 6379   0.521   5.556   5.020  0.0506 -2.2257 -2.3671
 2030SOL    HW2 6380   0.516   5.503   5.175 -0.8506  2.7122 -0.5150
 2031SOL     OW 6381   2.287   3.896   4.812  0.2825 -0.3231 -0.0091
 2031SOL    HW1 6382   2.381   3.930   4.822  0.6065 -1.0034 -0.6603
 2031SOL    HW2 6383   2.253   3.867   4.902  1.4244 -1.9141 -0.0526
 2032SOL     OW 6384   5.723   5.021   0.277 -0.0426  0.1106 -0.1280
 2032SOL    HW1 6385   5.765   4.991   0.191 -1.5205 -2.4108 -0.0813
 2032SOL    HW2 6386   5.624   5.028   0.265 -0.2297  0.0875  1.2580
 2033SOL     OW 6387   1.415   3.046   5.450  0.0952 -0.0318 -0.6915
 2033SOL    HW1 6388   1.488   3.114   5.452  0.0535 -0.0028 -0.1451
 2033SOL    HW2 6389   1.375   3.044   5.358  2.8880 -2.3178 -1.9957
 2034SOL     OW 6390   0.922   4.520   0.646 -0.4021  0.1775 -0.4532
 2034SOL    HW1 6391   0.945   4.576   0.566  0.8129 -1.1211 -1.0503
 2034SOL    HW2 6392   0.907   4.425   0.617 -4.3565  0.4004  0.2290
 2035SOL     OW 6393   5.792   3.430   5.658  0.2617  0.2987 -0.8673
 2035SOL    HW1 6394   5.878   3.449   5.706  0.3122  0.4016 -0.9985
 2035SOL    HW2 6395   5.756   3.342   5.690 -0.4277  1.0102  0.3984
 2036SOL     OW 6396   1.246   2.873   5.710 -0.2506 -0.0834 -0.1355
 2036SOL    HW1 6397   1.147   2.873   5.722 -0.1345  1.7318  1.2740
 2036SOL    HW2 6398   1.280   2.967   5.711  1.4243 -0.6124 -1.3819
 2037SOL     OW 6399   1.621   4.047   1.695 -0.1522  0.6506 -0.0215
 2037SOL    HW1 6400   1.661   4.130   1.655 -2.0493  1.9620  0.6602
 2037SOL    HW2 6401   1.653   3.967   1.645  0.4557  1.9295 -1.7633
 2038SOL     OW 6402   5.070   4.419   5.529  0.7413  0.4731  0.2648
 2038SOL    HW1 6403   4.973   4.440   5.514  0.9608  0.5317 -1.1934
 2038SOL    HW2 6404   5.123   4.503   5.529  0.7337  0.4907  1.6449
 2039SOL     OW 6405   1.086   4.662   5.194 -0.1737 -0.1714  0.3540
 2039SOL    HW1 6406   1.061   4.609   5.275  0.8303  1.1888  1.5996
 2039SOL    HW2 6407   1.098   4.758   5.218 -0.4648  0.3941 -1.5508
 2040SOL     OW 6408   1.026   3.423   4.622  0.0865  0.4741 -0.4331
 2040SOL    HW1 6409   1.071   3.401   4.709 -0.6770  0.4079 -0.0468
 2040SOL    HW2 6410   0.927   3.417   4.633 -0.0060 -0.0610 -1.4552
 2041SOL     OW 6411   0.951   4.297   5.567  0.2400 -0.2097  0.1630
 2041SOL    HW1 6412   0.966   4.222   5.502  0.3378 -0.5968  0.6201
 2041SOL    HW2 6413   0.864   4.284   5.614  0.6697 -0.5406  0.8925
 2042SOL     OW 6414   0.502   5.231   5.522 -0.4192  0.2406  0.3888
 2042SOL    HW1 6415   0.445   5.210   5.602 -0.5271 -1.6583 -0.1239
 2042SOL    HW2 6416   0.489   5.160   5.453  1.3591  0.6415 -0.4101
 2043SOL     OW 6417   1.575   3.759   4.770 -0.7308  0.2873  0.2543
 2043SOL    HW1 6418   1.583   3.859   4.766 -0.2048  0.2691  0.7359
 2043SOL    HW2 6419   1.520   3.727   4.693 -1.3696  0.9938  0.4020
 2044SOL     OW 6420   0.156   4.434   0.877  0.1440 -0.9195  0.0271
 2044SOL    HW1 6421   0.197   4.343   0.890  1.4424 -0.0436  3.0723
 2044SOL    HW2 6422   0.229   4.502   0.869 -0.8028  0.0096 -0.9352
 2045SOL     OW 6423   2.671   3.135   5.836 -0.1499 -0.2492  0.4850
 2045SOL    HW1 6424   2.624   3.101   5.755  0.3159  0.9435 -0.3017
 2045SOL    HW2 6425   2.642   3.229   5.855  0.0643 -0.3627  1.4626
 2046SOL     OW 6426   1.397   3.910   0.009 -0.1164 -0.2248 -0.1524
 2046SOL    HW1 6427   1.413   3.856   0.091 -1.8080 -2.6687 -1.3059
 2046SOL    HW2 6428   1.349   3.994   0.033 -0.3411 -0.7723  1.3875
 2047SOL     OW 6429   0.329   4.652   4.904 -0.0102 -0.2984 -0.5264
 2047SOL    HW1 6430   0.307   4.642   5.001 -0.4481 -0.4143 -0.6347
 2047SOL    HW2 6431   0.421   4.617   4.887 -0.2841 -1.1408 -0.3153
 2048SOL     OW 6432   1.330   2.512   5.562 -0.1567 -0.5538 -0.3735
 2048SOL    HW1 6433   1.346   2.488   5.658 -3.9794 -1.5172  0.2093
 2048SOL    HW2 6434   1.338   2.611   5.551 -0.1385 -0.3651  1.0865
 2049SOL     OW 6435   5.427   4.017   5.951 -0.1264  0.0199  0.5111
 2049SOL    HW1 6436   5.520   4.023   5.987 -0.3117 -1.1036  1.2342
 2049SOL    HW2 6437   5.423   4.060   5.861  0.8678  0.9062  0.8702
 2050SOL     OW 6438   2.065   4.249   0.554  0.0061 -0.3812 -0.0831
 2050SOL    HW1 6439   2.110   4.328   0.511 -0.2221 -0.2189 -0.0260
 2050SOL    HW2 6440   1.966   4.257   0.542  0.0525 -1.4787 -1.5016
 2051SOL     OW 6441   5.112   5.104   0.725  0.1947 -0.5425 -0.4695
 2051SOL    HW1 6442   5.032   5.043   0.717 -0.6447  0.3586  0.6791
 2051SOL    HW2 6443   5.084   5.188   0.771  1.8363 -0.2308 -0.0038
 2052SOL     OW 6444   2.305   5.645   4.983  0.3266 -0.4705  0.3385
 2052SOL    HW1 6445   2.336   5.687   5.068 -1.3190 -1.0017  1.2625
 2052SOL    HW2 6446   2.216   5.683   4.957 -0.3697 -2.0631  0.2347
 2053SOL     OW 6447   0.899   3.855   5.439  0.7595 -0.2167 -0.0109
 2053SOL    HW1 6448   0.997   3.839   5.425  0.8504  1.6462 -2.1254
 2053SOL    HW2 6449   0.852   3.854   5.350 -1.1469 -0.9895  0.9585
 2054SOL     OW 6450   1.645   4.653   5.206 -0.1346 -0.5542  0.2574
 2054SOL    HW1 6451   1.740   4.636   5.232 -0.3892 -1.9356  0.3726
 2054SOL    HW2 6452   1.632   4.751   5.188  0.7681 -0.0001  2.3358
 2055SOL     OW 6453   1.454   4.888   0.242  0.0058  0.0804 -0.0619
 2055SOL    HW1 6454   1.357   4.894   0.264 -0.0342  0.3748 -0.3030
 2055SOL    HW2 6455   1.492   4.981   0.235  1.2733  0.0954  4.1379
 2056SOL     OW 6456   0.615   4.855   5.052  0.2247  0.3910  0.0320
 2056SOL    HW1 6457   0.671   4.819   4.977  0.3959 -0.0401  0.3596
 2056SOL    HW2 6458   0.519   4.857   5.024  0.0499 -1.3739  0.3718
 2057SOL     OW 6459   4.707   3.262   5.494  0.4302  0.5496  0.1075
 2057SOL    HW1 6460   4.682   3.358   5.484  1.6724  0.9942  0.9858
 2057SOL    HW2 6461   4.806   3.254   5.504  0.3353 -0.8155  0.1582
 2058SOL     OW 6462   0.050   3.496   5.739 -0.3297 -0.2914 -0.3211
 2058SOL    HW1 6463   0.137   3.492   5.689 -0.3299  1.3807 -0.4947
 2058SOL    HW2 6464   0.061   3.452   5.828  1.1888  1.2659  0.3240
 2059SOL     OW 6465   5.861   4.051   5.725  0.0771  0.0537 -0.3507
 2059SOL    HW1 6466   5.819   4.075   5.638 -2.2802 -0.2724  0.6163
 2059SOL    HW2 6467   5.816   3.970   5.763 -1.2785  2.0101  2.6149
 2060SOL     OW 6468   2.033   5.011   4.832  0.6383  0.0094  0.1853
 2060SOL    HW1 6469   1.982   5.089   4.868  0.9963 -0.0765  0.8971
 2060SOL    HW2 6470   2.032   4.937   4.899  1.7701  0.0399  0.2577
 2061SOL     OW 6471   0.826   5.170   0.123 -0.0634 -0.0600  0.4815
 2061SOL    HW1 6472   0.767   5.249   0.105 -0.2624 -0.0402  1.1938
 2061SOL    HW2 6473   0.770   5.087   0.122  0.3627 -0.4028 -1.7310
 2062SOL     OW 6474   1.212   4.186   5.434  0.5071  0.4717 -0.4647
 2062SOL    HW1 6475   1.133   4.144   5.388 -0.7619  0.8847  1.2740
 2062SOL    HW2 6476   1.266   4.114   5.479  1.1771  0.1902 -1.6546
 2063SOL     OW 6477   0.884   2.451   5.400  0.3092  0.4333 -0.7712
 2063SOL    HW1 6478   0.912   2.368   5.449 -1.9823  1.1013  1.8642
 2063SOL    HW2 6479   0.803   2.432   5.346 -0.2632  0.9340 -0.1077
 2064SOL     OW 6480   0.103   3.745   5.809 -0.3996 -0.4842  0.4500
 2064SOL    HW1 6481   0.020   3.793   5.837 -0.5679 -1.4320  1.6635
 2064SOL    HW2 6482   0.079   3.663   5.757 -0.0939  1.1718 -2.5617
 2065SOL     OW 6483   0.517   4.024   5.294 -0.6199 -0.8134  0.0975
 2065SOL    HW1 6484   0.556   4.103   5.248 -2.4304 -0.8258 -1.5818
 2065SOL    HW2 6485   0.526   4.035   5.393  0.8430  0.5552 -0.1509
 2066SOL     OW 6486   0.177   0.188   5.566 -0.4056  0.7262  0.4311
 2066SOL    HW1 6487   0.257   0.131   5.550 -0.2086  0.7309  1.3522
 2066SOL    HW2 6488   0.151   0.233   5.481  1.1635  1.5039  0.3377
 2067SOL     OW 6489   5.530   0.253   1.717  0.6407  0.9923 -0.1221
 2067SOL    HW1 6490   5.472   0.334   1.705 -0.9512 -0.2915 -1.8257
 2067SOL    HW2 6491   5.576   0.257   1.805 -2.6821  1.7479  1.7468
 2068SOL     OW 6492   4.678   5.142   0.470 -0.3116 -0.0616 -0.2109
 2068SOL    HW1 6493   4.712   5.085   0.396 -0.2818 -0.8196  0.3708
 2068SOL    HW2 6494   4.611   5.090   0.524 -1.7220  1.0812 -0.7807
 2069SOL     OW 6495   0.486   0.001   2.456  0.4952 -0.0583 -0.1413
 2069SOL    HW1 6496   0.441   0.076   2.407 -0.7893 -1.5179 -1.3085
 2069SOL    HW2 6497   0.501   0.027   2.551  0.6928  1.9002 -0.6520
 2070SOL     OW 6498   1.965   0.975   5.680  0.1768  0.0666 -0.1553
 2070SOL    HW1 6499   1.981   1.021   5.592  0.1245 -1.2886 -0.8954
 2070SOL    HW2 6500   1.936   0.881   5.663 -1.4900  0.2788  1.2989
 2071SOL     OW 6501   1.998   5.753   0.669  0.1160 -0.1664  0.0201
 2071SOL    HW1 6502   1.910   5.743   0.714  0.7685 -0.5739  1.2498
 2071SOL    HW2 6503   1.989   5.815   0.591 -1.2388 -0.1883  0.1412
 2072SOL     OW 6504   5.557   1.171   1.282  0.8200  0.3491  0.4593
 2072SOL    HW1 6505   5.494   1.121   1.341  0.8966 -0.8692 -0.4411
 2072SOL    HW2 6506   5.625   1.218   1.338  1.3037 -1.3130  1.3444
 2073SOL     OW 6507   0.955   0.395   2.675  0.0477  0.2314  0.7155
 2073SOL    HW1 6508   0.873   0.440   2.638  0.9969  1.3003 -0.1711
 2073SOL    HW2 6509   1.036   0.449   2.652  1.2972 -2.0096 -0.5935
 2074SOL     OW 6510   1.179   5.823   1.154  0.3707  0.1297 -0.4279
 2074SOL    HW1 6511   1.224   5.863   1.074 -1.4695 -0.4231 -1.8209
 2074SOL    HW2 6512   1.103   5.765   1.124 -0.7120  0.3146  1.7538
 2075SOL     OW 6513   1.108   5.375   0.905 -0.2403 -0.0729  0.3034
 2075SOL    HW1 6514   1.105   5.388   1.004 -3.0538 -0.6401  0.3655
 2075SOL    HW2 6515   1.144   5.284   0.885  2.1030  0.7030  0.6456
 2076SOL     OW 6516   5.834   0.566   1.844 -0.1913  0.3937  0.6555
 2076SOL    HW1 6517   5.840   0.467   1.855  0.6509  0.5059  1.2256
 2076SOL    HW2 6518   5.866   0.592   1.753 -1.0519  0.0872  0.2555
 2077SOL     OW 6519   1.582   0.746   0.717 -0.1975 -0.3947  0.2783
 2077SOL    HW1 6520   1.661   0.699   0.756  0.5987 -1.5257 -2.4788
 2077SOL    HW2 6521   1.508   0.749   0.785  2.0257  0.4242  2.8325
 2078SOL     OW 6522   1.992   5.482   1.738  0.4295  0.6823  0.5096
 2078SOL    HW1 6523   2.014   5.579   1.725 -0.0728  0.7046 -0.2880
 2078SOL    HW2 6524   1.899   5.474   1.773  0.5212  0.4910  0.7073
 2079SOL     OW 6525   0.011   4.850   5.081 -0.4204 -0.3416 -0.2636
 2079SOL    HW1 6526  -0.022   4.791   5.007 -1.9295  0.6937 -0.4515
 2079SOL    HW2 6527   0.095   4.811   5.119  0.0968 -1.1895 -2.1455
 2080SOL     OW 6528   1.431   5.068   0.986 -0.1807 -0.1023  0.2259
 2080SOL    HW1 6529   1.374   5.123   1.047 -1.9166 -0.5759 -0.9010
 2080SOL    HW2 6530   1.444   5.117   0.900  0.9684 -0.0901  0.3993
 2081SOL     OW 6531   0.748   0.072   1.998 -0.0108 -0.2936  0.0241
 2081SOL    HW1 6532   0.815   0.007   2.033  0.4235 -0.0575 -0.3624
 2081SOL    HW2 6533   0.657   0.048   2.032  0.1731 -0.9962  0.0254
 2082SOL     OW 6534   5.559   0.292   1.229  0.1380 -0.2720 -0.5538
 2082SOL    HW1 6535   5.487   0.323   1.292  1.3233 -0.9728  1.2077
 2082SOL    HW2 6536   5.570   0.360   1.156 -1.2959  0.5650 -0.0381
 2083SOL     OW 6537   0.959   5.447   0.141  0.4900  0.2738 -0.4985
 2083SOL    HW1 6538   0.970   5.492   0.053  2.7459 -1.5621 -1.2521
 2083SOL    HW2 6539   0.877   5.389   0.139 -0.3364  1.4107 -0.7864
 2084SOL     OW 6540   0.984   0.205   0.388 -0.1648  0.0497 -0.0768
 2084SOL    HW1 6541   0.909   0.145   0.363  0.4477 -0.9444  0.4358
 2084SOL    HW2 6542   0.958   0.258   0.469 -0.4840  0.0554 -0.1804
 2085SOL     OW 6543   0.759   0.065   0.819  0.1917  0.3938  0.2438
 2085SOL    HW1 6544   0.729  -0.014   0.873  0.1974 -0.9981 -1.6913
 2085SOL    HW2 6545   0.760   0.146   0.877 -0.9844 -0.7737  1.9992
 2086SOL     OW 6546   5.431   0.424   0.072  0.2175  0.5731  0.0853
 2086SOL    HW1 6547   5.411   0.503   0.130  0.4656  0.1319  0.7740
 2086SOL    HW2 6548   5.357   0.358   0.080 -0.3502  1.0365 -1.0528
 2087SOL     OW 6549   0.456   5.764   2.942  0.3356 -0.2505  0.2034
 2087SOL    HW1 6550   0.426   5.855   2.913  1.0336 -0.2057 -0.4094
 2087SOL    HW2 6551   0.391   5.727   3.009 -0.0857  0.5907  0.2698
 2088SOL     OW 6552   0.098   0.463   1.281 -0.3305 -0.0142 -0.5614
 2088SOL    HW1 6553   0.010   0.509   1.272  0.0956  0.8289 -0.5371
 2088SOL    HW2 6554   0.108   0.397   1.207 -0.2537  1.1324 -1.6142
 2089SOL     OW 6555   0.380   4.609   0.778  0.4840  0.1669  0.0577
 2089SOL    HW1 6556   0.362   4.704   0.752  1.7069  0.3374 -0.2736
 2089SOL    HW2 6557   0.384   4.552   0.695 -0.2185 -0.1688  0.2536
 2090SOL     OW 6558   5.668   0.035   1.273  0.2268  0.8236  0.0785
 2090SOL    HW1 6559   5.634   0.039   1.367 -2.0409 -0.8736 -0.5619
 2090SOL    HW2 6560   5.664   0.126   1.232  0.7799  1.4933  1.4551
 2091SOL     OW 6561   5.737   4.619   0.930  0.6388 -0.3901 -0.1619
 2091SOL    HW1 6562   5.688   4.537   0.960 -0.3913  0.2247 -0.1005
 2091SOL    HW2 6563   5.733   4.688   1.002  0.3029  0.2023 -0.7367
 2092SOL     OW 6564   0.425   4.478   0.549  0.3547 -0.4564 -0.6049
 2092SOL    HW1 6565   0.437   4.379   0.556  1.0024 -0.3583 -0.2336
 2092SOL    HW2 6566   0.510   4.520   0.518 -0.2746 -0.1231 -1.9631
 2093SOL     OW 6567   2.648   5.823   4.773 -0.0808  0.2436 -0.1221
 2093SOL    HW1 6568   2.558   5.801   4.736 -0.2342 -1.2591  1.0178
 2093SOL    HW2 6569   2.662   5.773   4.859  1.8210  0.4883 -0.2358
 2094SOL     OW 6570   0.850   5.722   1.723 -0.2193  0.1469  0.1321
 2094SOL    HW1 6571   0.757   5.702   1.756 -0.2383 -0.2349 -0.1408
 2094SOL    HW2 6572   0.915   5.661   1.769 -0.1456  0.1821  0.0743
 2095SOL     OW 6573   0.703   5.379   3.048 -0.1685  0.0691 -0.2701
 2095SOL    HW1 6574   0.779   5.388   3.113 -0.4062 -0.2536  0.0602
 2095SOL    HW2 6575   0.676   5.283   3.042 -0.6841  0.2064 -0.2239
 2096SOL     OW 6576   0.709   5.408   1.397 -0.3559 -0.5084 -0.3408
 2096SOL    HW1 6577   0.647   5.450   1.463  0.7952  1.4973 -0.4513
 2096SOL    HW2 6578   0.660   5.388   1.312 -1.1108 -0.0726 -0.0102
 2097SOL     OW 6579   0.784   5.571   5.392 -0.8360  0.5309 -0.2547
 2097SOL    HW1 6580   0.686   5.556   5.378 -0.8031 -0.1921  0.2600
 2097SOL    HW2 6581   0.835   5.538   5.312 -0.7247 -2.7167  1.0023
 2098SOL     OW 6582   2.662   5.940   5.708 -0.6585 -0.3997 -0.2321
 2098SOL    HW1 6583   2.666   6.030   5.663 -2.0903 -0.5659 -0.7397
 2098SOL    HW2 6584   2.593   5.884   5.663  0.6408 -1.9936 -0.2983
 2099SOL     OW 6585   3.103   5.206   5.512  0.3780 -0.0406  0.0913
 2099SOL    HW1 6586   3.093   5.165   5.603  0.4009  1.1309  0.6394
 2099SOL    HW2 6587   3.149   5.142   5.451  4.5678  0.7068  2.1100
 2100SOL     OW 6588   1.657   0.679   0.996 -0.3580  0.2839 -0.2703
 2100SOL    HW1 6589   1.717   0.603   1.022 -0.6107 -0.3650 -1.5083
 2100SOL    HW2 6590   1.564   0.645   0.984 -0.1835  0.4315 -2.3875
 2101SOL     OW 6591   0.650   5.362   0.085 -0.3532  0.1285  0.2056
 2101SOL    HW1 6592   0.649   5.453   0.126  1.6923  0.1153  0.3967
 2101SOL    HW2 6593   0.649   5.370  -0.014  2.7398  0.5793  0.1097
 2102SOL     OW 6594   0.288   0.320   0.379  0.0841  0.2133  0.0834
 2102SOL    HW1 6595   0.242   0.402   0.346  0.3630  0.0041 -0.8566
 2102SOL    HW2 6596   0.230   0.240   0.362  0.5188  0.0226 -0.5372
 2103SOL     OW 6597   0.680   4.914   0.095  0.0641 -0.0093  0.0128
 2103SOL    HW1 6598   0.606   4.924   0.161  0.7174 -1.1837  0.9456
 2103SOL    HW2 6599   0.642   4.910   0.003 -0.7919  3.0159  0.0994
 2104SOL     OW 6600   1.663   5.953   0.051  0.5406 -0.1086  0.0248
 2104SOL    HW1 6601   1.627   5.869   0.092 -0.7996  0.8235  0.8347
 2104SOL    HW2 6602   1.727   5.996   0.114 -0.4105  0.5671  0.5561
 2105SOL     OW 6603   1.067   4.676   1.615 -0.2857  0.2362 -0.5744
 2105SOL    HW1 6604   1.136   4.747   1.629 -0.2041  0.1130 -0.3334
 2105SOL    HW2 6605   0.983   4.703   1.662  0.0546 -0.2750  0.3499
 2106SOL     OW 6606   2.619   5.389   0.655  0.1160 -0.2196  0.0847
 2106SOL    HW1 6607   2.524   5.399   0.687  0.3704 -1.2921  1.2931
 2106SOL    HW2 6608   2.636   5.452   0.580 -1.3390  0.5158  0.3342
 2107SOL     OW 6609   1.708   4.798   0.582 -0.6249 -0.2417  0.5139
 2107SOL    HW1 6610   1.643   4.726   0.604 -0.5728 -0.1412  1.0136
 2107SOL    HW2 6611   1.778   4.763   0.520 -1.9385  0.0322 -1.1810
 2108SOL     OW 6612   1.130   5.461   0.605  0.0094  0.2127  0.1644
 2108SOL    HW1 6613   1.037   5.450   0.642 -0.5857  1.4119 -0.9052
 2108SOL    HW2 6614   1.147   5.390   0.537  0.9688 -1.7705  2.3498
 2109SOL     OW 6615   0.531   4.956   0.991 -0.6982 -0.1536  0.2441
 2109SOL    HW1 6616   0.615   4.935   0.940 -0.6848 -0.5141  0.4127
 2109SOL    HW2 6617   0.458   4.979   0.927 -0.3841  0.4797  0.1102
 2110SOL     OW 6618   0.486   0.639   0.880  0.1441  0.5346 -0.2086
 2110SOL    HW1 6619   0.431   0.556   0.887  0.9249 -0.1447 -1.6944
 2110SOL    HW2 6620   0.500   0.678   0.971  0.3561 -1.3471  0.6021
 2111SOL     OW 6621   1.058   1.528   1.474 -0.1841 -0.1475 -0.3052
 2111SOL    HW1 6622   1.011   1.497   1.557 -1.9656  1.1519 -0.7721
 2111SOL    HW2 6623   0.993   1.532   1.399  0.5704  2.0424 -0.9053
 2112SOL     OW 6624   0.513   5.256   2.224 -0.3196  0.1193 -0.2389
 2112SOL    HW1 6625   0.587   5.298   2.276 -0.7696  0.2540  0.2909
 2112SOL    HW2 6626   0.435   5.318   2.220  0.0490  0.5452 -1.9275
 2113SOL     OW 6627   5.647   5.151   2.499 -0.2100  0.0016  0.1215
 2113SOL    HW1 6628   5.677   5.160   2.594 -2.1751 -1.7940  0.9972
 2113SOL    HW2 6629   5.641   5.241   2.457 -1.0555  1.0370  2.2969
 2114SOL     OW 6630   1.402   0.338   1.884 -0.0547  0.1626 -0.0380
 2114SOL    HW1 6631   1.363   0.333   1.976 -0.7342  1.3845 -0.2342
 2114SOL    HW2 6632   1.442   0.250   1.860  1.0553  0.1015  1.8308
 2115SOL     OW 6633   1.400   0.009   4.949 -0.4460  0.1801  0.3208
 2115SOL    HW1 6634   1.369  -0.048   4.873  1.3648 -0.9832  0.3730
 2115SOL    HW2 6635   1.456   0.084   4.915 -0.7718  0.4737  0.4245
 2116SOL     OW 6636   2.778   5.266   1.525 -0.0904 -0.8141  0.1995
 2116SOL    HW1 6637   2.833   5.233   1.602 -1.3182 -0.4902  1.2585
 2116SOL    HW2 6638   2.764   5.364   1.534  1.3272 -0.4051 -1.5027
 2117SOL     OW 6639   1.750   5.113   3.730  0.0260 -0.4268 -0.7140
 2117SOL    HW1 6640   1.795   5.076   3.812  0.3778 -1.7120 -1.4594
 2117SOL    HW2 6641   1.742   5.212   3.739  1.6202 -0.3338  0.1329
 2118SOL     OW 6642   0.904   4.758   3.395 -0.1384 -0.3495 -0.3325
 2118SOL    HW1 6643   0.946   4.681   3.347 -0.2122 -0.6752  0.1247
 2118SOL    HW2 6644   0.827   4.726   3.449  0.7417 -0.2029  1.0569
 2119SOL     OW 6645   0.755   5.787   3.870  0.1017 -0.3443  0.1387
 2119SOL    HW1 6646   0.669   5.772   3.821  0.7999  0.6194 -1.4557
 2119SOL    HW2 6647   0.736   5.825   3.960 -1.1576 -0.3017 -0.1256
 2120SOL     OW 6648   1.023   5.537   1.836 -0.4213  0.1021  0.1345
 2120SOL    HW1 6649   0.943   5.479   1.850  0.2399 -1.0225 -0.5521
 2120SOL    HW2 6650   1.106   5.484   1.851  0.2473  1.7078  2.6093
 2121SOL     OW 6651   0.572   0.410   1.672 -0.3822  0.0424  0.6650
 2121SOL    HW1 6652   0.600   0.506   1.681  1.0234 -0.3312  0.4285
 2121SOL    HW2 6653   0.639   0.351   1.715 -0.8477 -0.8939  0.1387
 2122SOL     OW 6654   1.110   5.175   3.402  0.3497  0.3327  0.0446
 2122SOL    HW1 6655   1.067   5.243   3.461 -0.5377 -0.1251 -0.0562
 2122SOL    HW2 6656   1.125   5.214   3.311 -3.4325 -0.5710 -1.1493
 2123SOL     OW 6657   2.047   4.956   3.046  0.0060 -0.0107  0.0078
 2123SOL    HW1 6658   2.079   5.012   2.969  0.1916 -0.3898 -0.1925
 2123SOL    HW2 6659   2.104   4.972   3.126  0.1338 -0.0050 -0.0848
 2124SOL     OW 6660   1.389   4.708   1.086 -0.5436 -0.9795  0.8577
 2124SOL    HW1 6661   1.320   4.665   1.027 -1.6110  2.0949 -0.3355
 2124SOL    HW2 6662   1.455   4.758   1.030 -0.0872 -0.0483  2.1724
 2125SOL     OW 6663   1.404   0.426   2.911  0.2325  0.2763  0.1856
 2125SOL    HW1 6664   1.443   0.383   2.829  0.7897 -0.8366  1.0042
 2125SOL    HW2 6665   1.459   0.401   2.991 -1.2665 -0.0869  1.1461
 2126SOL     OW 6666   0.705   0.461   2.139 -0.3167  0.2687  0.3235
 2126SOL    HW1 6667   0.789   0.514   2.131 -0.1063 -0.3217 -2.6994
 2126SOL    HW2 6668   0.699   0.421   2.230  2.9988 -0.1717  0.4601
 2127SOL     OW 6669   1.681   4.855   3.727  0.3378  0.6263  0.1924
 2127SOL    HW1 6670   1.754   4.830   3.791  0.6201  1.8474  0.3689
 2127SOL    HW2 6671   1.696   4.948   3.693  0.3622 -0.0826 -1.8957
 2128SOL     OW 6672   1.620   5.950   2.681 -0.3275  0.0747  0.2277
 2128SOL    HW1 6673   1.530   5.919   2.649 -0.0992  0.4074 -0.7463
 2128SOL    HW2 6674   1.608   6.005   2.764 -1.1072  0.7374 -0.3016
 2129SOL     OW 6675   0.920   5.500   2.219 -0.3649  0.4648  0.0667
 2129SOL    HW1 6676   0.881   5.503   2.127 -1.2686  1.0694  0.4573
 2129SOL    HW2 6677   0.923   5.593   2.257  0.8087  0.3441  0.3314
 2130SOL     OW 6678   1.888   5.301   3.131 -0.5706 -0.5398 -0.4915
 2130SOL    HW1 6679   1.981   5.337   3.139 -1.3299  1.3454  0.5032
 2130SOL    HW2 6680   1.866   5.247   3.211 -0.9366  0.5686  0.1753
 2131SOL     OW 6681   2.061   5.483   0.693  0.3036 -0.0709 -0.2507
 2131SOL    HW1 6682   2.064   5.500   0.792  0.5190 -0.1435 -0.2452
 2131SOL    HW2 6683   2.039   5.569   0.646  0.5226  0.0371 -0.1612
 2132SOL     OW 6684   0.790   4.897   3.101 -0.0593 -0.1176  0.3255
 2132SOL    HW1 6685   0.878   4.903   3.147 -0.7084 -1.2671  1.8058
 2132SOL    HW2 6686   0.716   4.896   3.169 -1.4285  3.0305 -0.9044
 2133SOL     OW 6687   1.257   5.116   2.190 -0.3126 -0.0175  0.6850
 2133SOL    HW1 6688   1.316   5.164   2.124 -0.0219 -0.0222  0.9374
 2133SOL    HW2 6689   1.204   5.183   2.241  0.9179  0.1444  1.8272
 2134SOL     OW 6690   5.752   5.270   1.945  0.2628  0.1204 -0.3084
 2134SOL    HW1 6691   5.790   5.247   1.856  1.0322  0.9457 -0.2039
 2134SOL    HW2 6692   5.820   5.253   2.016  0.7325  2.2017 -0.1815
 2135SOL     OW 6693   1.213   0.159   3.710  0.0638 -0.0014 -0.3491
 2135SOL    HW1 6694   1.161   0.186   3.791 -1.7817  1.9144 -2.0576
 2135SOL    HW2 6695   1.276   0.232   3.686  2.9514 -1.8524  1.0552
 2136SOL     OW 6696   1.343   0.252   2.633  0.4595 -0.0372  0.4450
 2136SOL    HW1 6697   1.326   0.171   2.689 -1.8294 -0.0603 -0.1693
 2136SOL    HW2 6698   1.382   0.225   2.545 -1.7880 -0.7215 -0.4032
 2137SOL     OW 6699   0.952   0.427   4.174  0.4515 -0.1805  0.7613
 2137SOL    HW1 6700   0.931   0.517   4.135 -0.7943 -1.1819 -1.0179
 2137SOL    HW2 6701   1.038   0.432   4.224  0.7346  1.8426  0.1734
 2138SOL     OW 6702   5.632   0.657   2.186 -0.1238  0.2514 -0.2639
 2138SOL    HW1 6703   5.652   0.696   2.277  0.6283 -0.1829 -0.2370
 2138SOL    HW2 6704   5.533   0.641   2.178 -0.1388 -0.2185  0.6888
 2139SOL     OW 6705   0.658   5.083   2.731 -0.1722  0.3060  0.3545
 2139SOL    HW1 6706   0.717   5.007   2.704 -0.0395  0.1906  0.9574
 2139SOL    HW2 6707   0.586   5.096   2.662  0.2844  0.1565 -0.1522
 2140SOL     OW 6708   0.456   4.797   3.539  0.1218  0.5803 -0.2406
 2140SOL    HW1 6709   0.368   4.752   3.530  0.6494 -0.4373 -0.5425
 2140SOL    HW2 6710   0.466   4.834   3.631 -0.1489 -0.3302  0.1663
 2141SOL     OW 6711   1.613   0.543   1.318 -0.8491  0.2346  0.2307
 2141SOL    HW1 6712   1.579   0.636   1.309 -2.0723 -0.3473 -1.9326
 2141SOL    HW2 6713   1.597   0.493   1.233  0.2670 -1.8086  1.1372
 2142SOL     OW 6714   5.786   0.243   2.891 -0.2660 -0.4536 -0.0634
 2142SOL    HW1 6715   5.724   0.299   2.836  0.3430 -1.6754 -2.1230
 2142SOL    HW2 6716   5.860   0.301   2.926 -0.2285  0.2537 -1.2356
 2143SOL     OW 6717   0.924   5.969   2.321 -0.4793  0.4677 -0.5392
 2143SOL    HW1 6718   0.910   6.068   2.325  2.2165  0.8910  2.0854
 2143SOL    HW2 6719   0.868   5.925   2.391  0.1613  0.4749 -0.0066
 2144SOL     OW 6720   5.341   5.915   3.053  0.1476 -0.9631 -0.0849
 2144SOL    HW1 6721   5.429   5.868   3.050  0.5302 -0.2179 -1.3645
 2144SOL    HW2 6722   5.337   5.973   3.134  0.7643 -1.1415  0.0783
 2145SOL     OW 6723   2.369   0.233   2.146  0.5330  0.0229 -0.2735
 2145SOL    HW1 6724   2.461   0.206   2.173  1.4983  2.9079 -0.3071
 2145SOL    HW2 6725   2.328   0.290   2.217 -1.3663 -1.3273 -0.1890
 2146SOL     OW 6726   0.780   5.844   3.014 -0.0126  0.3382 -0.2622
 2146SOL    HW1 6727   0.853   5.804   3.069  0.0012  0.3344 -0.2832
 2146SOL    HW2 6728   0.733   5.915   3.066  1.1004  1.5386 -0.8318
 2147SOL     OW 6729   2.254   4.920   1.817  0.2623 -0.0565  0.4874
 2147SOL    HW1 6730   2.300   4.900   1.904 -2.2422 -0.3030  1.8520
 2147SOL    HW2 6731   2.245   4.835   1.764 -1.0413 -0.5948  1.5056
 2148SOL     OW 6732   1.013   5.342   3.576  0.1735 -0.2426 -0.0163
 2148SOL    HW1 6733   0.923   5.365   3.540  0.1422 -0.1531  0.1197
 2148SOL    HW2 6734   1.023   5.379   3.668 -0.3258 -1.7834  0.6962
 2149SOL     OW 6735   5.841   0.260   2.454 -0.5503  0.1292  0.4572
 2149SOL    HW1 6736   5.814   0.351   2.483 -0.2786  0.3124  0.1490
 2149SOL    HW2 6737   5.940   0.256   2.444 -0.4425 -0.5365  1.5898
 2150SOL     OW 6738   0.152   5.935   2.505 -0.1115 -0.0481 -0.5189
 2150SOL    HW1 6739   0.059   5.898   2.497 -0.8513  0.3466  3.9224
 2150SOL    HW2 6740   0.218   5.861   2.498 -1.0372 -0.9489  0.0239
 2151SOL     OW 6741   0.047   5.918   0.874  0.0429 -0.0820 -0.3305
 2151SOL    HW1 6742   0.110   5.990   0.846 -1.1436  1.7966  1.5133
 2151SOL    HW2 6743  -0.017   5.899   0.800 -0.9739  2.4022 -0.1943
 2152SOL     OW 6744   3.430   0.864   3.468  0.5425  0.1152  0.5618
 2152SOL    HW1 6745   3.364   0.923   3.421  1.1048  1.7668  1.7541
 2152SOL    HW2 6746   3.401   0.769   3.461 -0.3829  0.4913 -1.4680
 2153SOL     OW 6747   0.667   1.321   3.035 -0.1204 -0.1068 -0.2141
 2153SOL    HW1 6748   0.757   1.360   3.056  0.2313  0.0328 -1.8540
 2153SOL    HW2 6749   0.647   1.333   2.938 -2.2757  0.5682  0.2594
 2154SOL     OW 6750   0.968   5.443   3.905 -0.2325 -0.4227  0.3146
 2154SOL    HW1 6751   1.056   5.470   3.945  0.1270 -1.5925  0.3752
 2154SOL    HW2 6752   0.941   5.509   3.835  0.3511  0.3256  0.7737
 2155SOL     OW 6753   2.279   4.013   2.741 -0.1256  0.6519  0.0974
 2155SOL    HW1 6754   2.343   3.937   2.734 -1.3900 -0.3426 -2.7610
 2155SOL    HW2 6755   2.198   3.984   2.793 -1.3458 -0.7164 -2.3456
 2156SOL     OW 6756   0.664   5.152   1.154 -0.1923  0.2873 -0.4945
 2156SOL    HW1 6757   0.630   5.096   1.079 -0.6242  0.5552 -0.4962
 2156SOL    HW2 6758   0.613   5.130   1.238  0.7364 -0.5076 -0.1079
 2157SOL     OW 6759   1.491   5.743   1.550 -0.4798  0.2222  0.3156
 2157SOL    HW1 6760   1.466   5.694   1.466 -4.0256  0.1776  1.2030
 2157SOL    HW2 6761   1.465   5.839   1.542  1.8010  0.9020  0.4142
 2158SOL     OW 6762   1.587   4.842   0.925 -0.3964  0.0401 -0.4761
 2158SOL    HW1 6763   1.530   4.921   0.948 -2.1963 -0.8932 -1.4516
 2158SOL    HW2 6764   1.541   4.789   0.853  0.3481 -2.3486  0.7271
 2159SOL     OW 6765   5.545   4.338   5.494  0.0305 -0.7415  0.3077
 2159SOL    HW1 6766   5.492   4.376   5.569  0.9605  0.4143  0.4112
 2159SOL    HW2 6767   5.501   4.360   5.407  1.3710  2.1368  0.2417
 2160SOL     OW 6768   5.377   1.381   4.428 -0.3617  0.4513  0.0641
 2160SOL    HW1 6769   5.422   1.377   4.517  1.7109 -0.1650 -0.9564
 2160SOL    HW2 6770   5.394   1.296   4.378 -0.2310  1.3546 -1.5007
 2161SOL     OW 6771   3.159   1.659   3.359  0.6534 -0.4037 -0.0506
 2161SOL    HW1 6772   3.128   1.637   3.267  1.5506  1.5662 -0.8634
 2161SOL    HW2 6773   3.105   1.735   3.396 -1.0272 -2.3914  1.8996
 2162SOL     OW 6774   5.883   0.187   0.445 -0.5574 -0.0254 -0.1602
 2162SOL    HW1 6775   5.885   0.286   0.453 -0.9030  0.0456 -0.8867
 2162SOL    HW2 6776   5.970   0.154   0.408 -0.8049  0.0974 -0.8547
 2163SOL     OW 6777   0.773   4.732   4.123 -0.2176  0.1129  0.6194
 2163SOL    HW1 6778   0.744   4.636   4.125 -1.5716  0.4646 -0.7396
 2163SOL    HW2 6779   0.863   4.740   4.167 -0.1286 -1.7439  0.8695
 2164SOL     OW 6780   1.491   5.510   4.170  0.1745  0.1471  0.1393
 2164SOL    HW1 6781   1.561   5.446   4.140 -0.4202 -0.1245 -0.7121
 2164SOL    HW2 6782   1.406   5.493   4.120 -1.7085 -1.9775  3.7298
 2165SOL     OW 6783   0.157   5.367   5.145 -0.1743 -0.0537  0.9954
 2165SOL    HW1 6784   0.200   5.421   5.072  0.8953  0.9534  2.3288
 2165SOL    HW2 6785   0.153   5.271   5.117 -0.5682  0.4219 -0.7251
 2166SOL     OW 6786   0.154   0.395   4.897 -0.2803  0.2136 -0.4236
 2166SOL    HW1 6787   0.132   0.322   4.963  1.3072  0.0437 -0.0440
 2166SOL    HW2 6788   0.242   0.436   4.921 -1.1391  2.2878 -0.6404
 2167SOL     OW 6789   1.135   4.904   5.306  0.1835  0.3198 -0.0932
 2167SOL    HW1 6790   1.074   4.969   5.351 -0.4640  0.9015 -1.7323
 2167SOL    HW2 6791   1.210   4.880   5.368 -0.9774  0.6066  1.4788
 2168SOL     OW 6792   1.772   5.384   3.780  0.1022 -0.3710 -0.2259
 2168SOL    HW1 6793   1.702   5.434   3.730 -0.6156  1.4719  2.4167
 2168SOL    HW2 6794   1.854   5.441   3.790  1.6687 -2.0927 -2.3300
 2169SOL     OW 6795   0.571   4.724   5.289 -0.0393  0.0650 -0.6293
 2169SOL    HW1 6796   0.631   4.699   5.365 -1.3799  0.5196  0.6213
 2169SOL    HW2 6797   0.623   4.778   5.222  1.1018 -0.1177  0.0796
 2170SOL     OW 6798   5.760   1.095   5.019  0.2894  0.7099 -0.3938
 2170SOL    HW1 6799   5.677   1.098   5.075 -1.0129 -0.2501 -2.1494
 2170SOL    HW2 6800   5.758   1.013   4.961  2.6515  0.4883 -0.2711
 2171SOL     OW 6801   1.408   5.474   5.314 -0.4259 -0.4142 -0.5942
 2171SOL    HW1 6802   1.419   5.390   5.367 -1.9827  0.2811  0.9497
 2171SOL    HW2 6803   1.366   5.453   5.226 -0.7674 -1.2561 -0.2375
 2172SOL     OW 6804   0.500   5.922   5.814  0.1636 -0.2745  1.0482
 2172SOL    HW1 6805   0.515   5.828   5.783 -1.0784 -0.0122 -0.5160
 2172SOL    HW2 6806   0.453   5.921   5.902  0.0755 -1.1273  1.0008
 2173SOL     OW 6807   1.042   5.916   3.896  0.4344 -0.3767 -0.2616
 2173SOL    HW1 6808   1.029   6.006   3.937  0.8389  0.3625 -1.6908
 2173SOL    HW2 6809   0.954   5.882   3.862  0.7678  0.9603 -2.6115
 2174SOL     OW 6810   0.714   5.313   0.833  0.7163  0.0664 -0.7048
 2174SOL    HW1 6811   0.625   5.360   0.832  0.7907  0.2020 -1.1770
 2174SOL    HW2 6812   0.767   5.342   0.753  1.6907  0.9682  0.2304
 2175SOL     OW 6813   3.086   0.567   5.357  0.2599  0.1358 -0.0028
 2175SOL    HW1 6814   3.013   0.588   5.292  1.7255 -0.1330 -1.8129
 2175SOL    HW2 6815   3.173   0.558   5.308  1.0387 -2.4201  1.6734
 2176SOL     OW 6816   1.307   4.997   3.486  0.4204 -0.1644  0.0829
 2176SOL    HW1 6817   1.228   5.047   3.451  1.8763  1.0957 -1.6342
 2176SOL    HW2 6818   1.342   5.041   3.568  0.2180  0.1469  0.0022
 2177SOL     OW 6819   5.783   5.907   4.083  0.3053  0.1215 -0.3843
 2177SOL    HW1 6820   5.829   5.869   4.163 -0.0451 -0.4950 -0.4670
 2177SOL    HW2 6821   5.823   5.870   4.000 -0.9945 -1.2748 -0.4479
 2178SOL     OW 6822   5.880   4.710   4.144  0.2437 -0.2101  0.6806
 2178SOL    HW1 6823   5.977   4.688   4.147  0.2194 -0.7656 -1.4289
 2178SOL    HW2 6824   5.840   4.694   4.234  2.5632  2.5126  2.3845
 2179SOL     OW 6825   0.374   0.228   5.219 -0.0147 -0.1730  0.2976
 2179SOL    HW1 6826   0.460   0.239   5.168 -0.3062 -0.9197 -0.3852
 2179SOL    HW2 6827   0.381   0.275   5.306  1.3263 -0.7299  0.5232
 2180SOL     OW 6828   5.744   4.680   4.383 -0.1586 -0.0510 -0.1945
 2180SOL    HW1 6829   5.745   4.587   4.420 -0.1312 -0.3087 -0.8283
 2180SOL    HW2 6830   5.670   4.689   4.316  0.4913  0.0559 -0.9257
 2181SOL     OW 6831   0.838   5.162   3.969  0.8536  0.3471 -0.4574
 2181SOL    HW1 6832   0.808   5.112   3.888  2.1560 -0.2100 -0.6205
 2181SOL    HW2 6833   0.864   5.255   3.943  1.8843 -0.0283 -0.8121
 2182SOL     OW 6834   0.841   3.957   4.328  0.1586  0.0772 -0.2115
 2182SOL    HW1 6835   0.872   3.874   4.374 -1.4820 -2.9951 -4.0344
 2182SOL    HW2 6836   0.758   3.991   4.372 -0.0351 -1.2727  0.5051
 2183SOL     OW 6837   0.384   5.271   3.954 -0.6366 -0.2033  0.1425
 2183SOL    HW1 6838   0.378   5.371   3.947  0.5181 -0.0603  1.0349
 2183SOL    HW2 6839   0.372   5.231   3.863 -0.3960  0.7858 -0.3393
 2184SOL     OW 6840   5.119   5.070   1.008  0.0466 -0.3451  0.2343
 2184SOL    HW1 6841   5.174   5.092   0.927  0.9095  0.1107  0.9265
 2184SOL    HW2 6842   5.122   5.148   1.071 -2.2814  0.1361 -0.1731
 2185SOL     OW 6843   1.573   3.769   4.204  0.2263  0.1541 -0.6601
 2185SOL    HW1 6844   1.520   3.684   4.202 -0.8502  0.7298  1.1443
 2185SOL    HW2 6845   1.655   3.759   4.147  1.3683 -2.9341  1.3083
 2186SOL     OW 6846   5.808   5.887   4.932  0.1561  0.3998  0.1843
 2186SOL    HW1 6847   5.789   5.919   4.840  0.3355  0.7889  0.2796
 2186SOL    HW2 6848   5.765   5.798   4.946  0.3257  0.2288 -0.3504
 2187SOL     OW 6849   0.476   5.731   3.788  0.1214  0.0624  0.0122
 2187SOL    HW1 6850   0.419   5.654   3.816  0.2119  0.4765  1.4082
 2187SOL    HW2 6851   0.417   5.802   3.748  0.1283 -1.0116 -2.0435
 2188SOL     OW 6852   1.343   5.969   3.380  0.0442  0.1350  0.0937
 2188SOL    HW1 6853   1.440   5.963   3.360 -0.3361 -0.2924 -1.8285
 2188SOL    HW2 6854   1.295   6.011   3.303 -1.3909 -0.3988  0.6498
 2189SOL     OW 6855   0.637   5.619   0.184 -0.8124  0.4950 -0.2242
 2189SOL    HW1 6856   0.699   5.671   0.126  0.4074 -0.3391  0.2942
 2189SOL    HW2 6857   0.560   5.678   0.210  0.4215  2.0124  0.2025
 2190SOL     OW 6858   0.653   0.324   5.142 -0.3561 -0.7955 -0.3971
 2190SOL    HW1 6859   0.696   0.402   5.188 -0.2509 -1.3839  0.5164
 2190SOL    HW2 6860   0.666   0.333   5.043 -2.3784  1.5759 -0.5504
 2191SOL     OW 6861   0.177   0.570   5.466  0.2032 -0.3571 -0.4810
 2191SOL    HW1 6862   0.171   0.654   5.413 -0.4440  0.8538  1.4341
 2191SOL    HW2 6863   0.123   0.498   5.420 -2.8450  1.4626 -0.0165
 2192SOL     OW 6864   2.128   5.155   3.916  0.2877 -0.2147  0.2126
 2192SOL    HW1 6865   2.218   5.114   3.930  0.3665 -1.2843 -2.7500
 2192SOL    HW2 6866   2.119   5.185   3.821 -2.1720  0.6964  0.6504
 2193SOL     OW 6867   2.205   0.398   5.137  0.0542 -0.1201 -0.5610
 2193SOL    HW1 6868   2.262   0.383   5.217 -1.6255  0.6525  0.8449
 2193SOL    HW2 6869   2.261   0.436   5.063  1.5640 -0.4867  0.3510
 2194SOL     OW 6870   2.060   3.896   5.721  0.6971 -0.4248 -0.1449
 2194SOL    HW1 6871   2.157   3.887   5.745  0.7187 -1.1086 -0.4628
 2194SOL    HW2 6872   2.006   3.832   5.776  0.4840 -0.4002 -0.3226
 2195SOL     OW 6873   1.656   5.851   5.791 -0.2637  0.6909  0.6958
 2195SOL    HW1 6874   1.739   5.811   5.753 -0.7655  0.0303  0.2447
 2195SOL    HW2 6875   1.677   5.904   5.873  0.4058 -0.7074  1.4514
 2196SOL     OW 6876   0.021   0.091   3.364  0.1338 -0.1356 -0.2681
 2196SOL    HW1 6877   0.074   0.096   3.279  1.2834 -0.0204  0.4281
 2196SOL    HW2 6878  -0.063   0.144   3.354  1.1120  1.3914 -0.7443
 2197SOL     OW 6879   5.249   0.056   4.440 -0.3720 -0.0372  0.8358
 2197SOL    HW1 6880   5.183   0.131   4.448 -0.1611  0.2613 -0.0626
 2197SOL    HW2 6881   5.278   0.047   4.345  2.3319  1.1231  1.4358
 2198SOL     OW 6882   1.300   5.587   5.042 -0.5237 -0.3944  0.2629
 2198SOL    HW1 6883   1.259   5.576   4.951  1.1395 -0.2214 -0.5431
 2198SOL    HW2 6884   1.247   5.654   5.094 -0.4222  0.9637 -1.2965
 2199SOL     OW 6885   1.223   0.314   5.049  0.2253  0.2348  0.1453
 2199SOL    HW1 6886   1.199   0.221   5.079  1.2417 -0.3975 -0.9071
 2199SOL    HW2 6887   1.321   0.328   5.061 -0.0538  1.5380  1.1669
 2200SOL     OW 6888   0.874   5.926   5.591  0.2569 -0.5116  0.0034
 2200SOL    HW1 6889   0.934   5.863   5.542 -0.9144 -2.5722  1.0778
 2200SOL    HW2 6890   0.927   5.974   5.661  1.8742  2.2310 -2.8722
 2201SOL     OW 6891   1.161   5.612   4.810  0.0365  0.0615  0.4484
 2201SOL    HW1 6892   1.191   5.703   4.779 -0.0367 -0.0284  0.1048
 2201SOL    HW2 6893   1.193   5.543   4.746 -1.7708  0.0621 -0.5207
 2202SOL     OW 6894   1.918   5.085   0.925  0.2007  0.0484  0.3330
 2202SOL    HW1 6895   1.998   5.138   0.953  1.3506 -2.2141  1.6311
 2202SOL    HW2 6896   1.918   5.073   0.826  0.6991  1.1831  0.1777
 2203SOL     OW 6897   2.708   5.590   4.226 -0.4858 -0.7836 -0.6413
 2203SOL    HW1 6898   2.790   5.543   4.194 -0.2680 -0.2107 -0.9515
 2203SOL    HW2 6899   2.709   5.684   4.191  1.1384  0.8143  3.1466
 2204SOL     OW 6900   1.166   0.325   4.800  0.0329  0.1328 -0.5382
 2204SOL    HW1 6901   1.188   0.319   4.897 -0.6455  1.4428 -0.2780
 2204SOL    HW2 6902   1.232   0.271   4.747  0.9207  0.0936  0.5801
 2205SOL     OW 6903   0.124   4.912   4.484 -0.4354 -0.2855 -0.2347
 2205SOL    HW1 6904   0.221   4.888   4.488 -0.2081  0.4372 -1.0072
 2205SOL    HW2 6905   0.090   4.926   4.577  0.0420 -1.1300  0.0774
 2206SOL     OW 6906   1.928   0.068   4.298  0.3862  0.3793  0.0831
 2206SOL    HW1 6907   2.026   0.088   4.309  0.4369 -0.9805  3.5328
 2206SOL    HW2 6908   1.917  -0.024   4.261  0.4373  0.3677  0.0965
 2207SOL     OW 6909   1.194   1.701   5.537 -0.4414  0.1920  0.4238
 2207SOL    HW1 6910   1.160   1.608   5.554  1.1710 -0.4117  0.5328
 2207SOL    HW2 6911   1.126   1.752   5.485 -0.4536 -1.7896 -1.6751
 2208SOL     OW 6912   1.909   5.902   4.669  0.8320  0.4155  0.1124
 2208SOL    HW1 6913   1.999   5.890   4.710  1.4610 -2.8355 -1.8007
 2208SOL    HW2 6914   1.841   5.850   4.721  0.6146  0.6033  0.0165
 2209SOL     OW 6915   1.070   5.066   0.080 -0.2462 -0.4642 -0.5147
 2209SOL    HW1 6916   1.042   5.004   0.006 -0.2288 -1.2781  0.1514
 2209SOL    HW2 6917   0.989   5.116   0.112 -0.3250 -0.3829 -0.8377
 2210SOL     OW 6918   0.808   5.429   0.572 -0.1006  0.3718  0.1078
 2210SOL    HW1 6919   0.827   5.369   0.494  0.7211 -0.4890  0.9324
 2210SOL    HW2 6920   0.790   5.521   0.539  1.9421  0.4293 -1.0341
 2211SOL     OW 6921   1.063   4.368   5.827  0.0190 -0.2388  0.3087
 2211SOL    HW1 6922   1.031   4.381   5.733  2.0904 -0.5003 -0.4771
 2211SOL    HW2 6923   1.074   4.271   5.845  1.5400 -0.1233  0.1092
 2212SOL     OW 6924   1.285   4.743   5.777 -0.4554 -0.6934  0.1416
 2212SOL    HW1 6925   1.352   4.813   5.802 -1.5032  0.4440 -0.0917
 2212SOL    HW2 6926   1.269   4.682   5.855  0.6900 -0.8661  0.2556
 2213SOL     OW 6927   1.767   5.241   4.373  0.0579  0.4524 -0.4387
 2213SOL    HW1 6928   1.788   5.308   4.444 -0.0145  1.7639 -1.6034
 2213SOL    HW2 6929   1.668   5.222   4.373  0.3605 -1.4851  1.4071
 2214SOL     OW 6930   5.721   0.591   6.004  0.2102 -0.1372  0.4531
 2214SOL    HW1 6931   5.648   0.549   5.950 -0.4101  0.4051  0.8512
 2214SOL    HW2 6932   5.783   0.641   5.944  0.5287 -0.9951  0.0618
 2215SOL     OW 6933   1.706   4.306   5.693 -0.2652 -0.0155  0.0007
 2215SOL    HW1 6934   1.709   4.403   5.716  1.4467 -0.0838  0.1789
 2215SOL    HW2 6935   1.614   4.282   5.661 -1.0903  1.3392  1.2677
 2216SOL     OW 6936   5.911   5.481   5.215  0.0333 -0.0655  0.4436
 2216SOL    HW1 6937   5.986   5.427   5.177 -1.5234 -0.9936 -1.5064
 2216SOL    HW2 6938   5.946   5.544   5.285  2.5089 -0.7702 -0.0937
 2217SOL     OW 6939   1.297   5.107   0.418 -0.2664 -0.1213 -0.1688
 2217SOL    HW1 6940   1.247   5.192   0.406  1.2441  0.9249  0.6877
 2217SOL    HW2 6941   1.241   5.031   0.385 -1.7817  1.1411 -0.6312
 2218SOL     OW 6942   1.085   4.852   4.000 -0.3071  0.0393 -0.4310
 2218SOL    HW1 6943   1.016   4.904   4.051 -2.4181 -0.5338 -2.5268
 2218SOL    HW2 6944   1.049   4.828   3.910  1.2326 -3.5119 -0.2691
 2219SOL     OW 6945   2.033   0.561   0.351 -0.1932 -0.7508  0.1035
 2219SOL    HW1 6946   2.014   0.472   0.393 -0.1498 -0.5659  0.5141
 2219SOL    HW2 6947   1.978   0.632   0.396 -0.8153 -0.6863 -0.7397
 2220SOL     OW 6948   1.463   1.918   1.265  0.0761 -0.3536  0.6759
 2220SOL    HW1 6949   1.401   1.898   1.190 -1.3840  2.6220  0.9528
 2220SOL    HW2 6950   1.552   1.946   1.228 -0.6173  1.0443 -0.0116
 2221SOL     OW 6951   1.414   0.771   0.269  0.2486  0.0478 -0.3368
 2221SOL    HW1 6952   1.341   0.768   0.201 -0.3879 -0.2485  0.3465
 2221SOL    HW2 6953   1.375   0.783   0.360  1.0109 -0.6817  0.1021
 2222SOL     OW 6954   2.886   1.125   0.470 -0.6063 -0.6760  0.3396
 2222SOL    HW1 6955   2.887   1.225   0.461 -1.3436 -0.6462  0.5266
 2222SOL    HW2 6956   2.947   1.085   0.402 -1.6398 -0.1778 -0.9110
 2223SOL     OW 6957   4.307   1.385   1.092 -0.0645  0.1512 -0.5095
 2223SOL    HW1 6958   4.238   1.425   1.032  0.2020  0.5464 -0.5538
 2223SOL    HW2 6959   4.358   1.458   1.138 -2.5938 -0.0303  2.9696
 2224SOL     OW 6960   3.764   1.418   1.058 -0.3370  0.1554 -0.3165
 2224SOL    HW1 6961   3.695   1.476   1.102 -1.1338 -0.0786 -1.2177
 2224SOL    HW2 6962   3.763   1.328   1.101 -1.9606 -0.4564 -1.5590
 2225SOL     OW 6963   2.755   0.378   0.075  0.5159 -0.1843 -0.4918
 2225SOL    HW1 6964   2.737   0.380   0.174 -1.8951  0.5872 -0.8776
 2225SOL    HW2 6965   2.735   0.467   0.036  0.2953 -0.8156 -1.8617
 2226SOL     OW 6966   3.454   0.499   2.416 -0.9385 -0.2887 -0.4128
 2226SOL    HW1 6967   3.482   0.408   2.385 -0.3178 -0.2213 -0.0646
 2226SOL    HW2 6968   3.478   0.567   2.347  2.5972  0.1833  1.0853
 2227SOL     OW 6969   2.019   5.051   1.820 -0.1467 -0.4535  0.3292
 2227SOL    HW1 6970   2.112   5.015   1.814 -0.7740 -1.8590 -2.7179
 2227SOL    HW2 6971   1.999   5.105   1.739 -1.5797  1.0193  1.5945
 2228SOL     OW 6972   3.467   1.399   1.997  0.4957  0.3257  0.4250
 2228SOL    HW1 6973   3.483   1.358   1.907  0.5366  1.9911 -0.3533
 2228SOL    HW2 6974   3.377   1.442   1.998 -0.3667 -1.3944  1.8757
 2229SOL     OW 6975   3.268   2.215   0.335  0.0761  0.3948  0.0414
 2229SOL    HW1 6976   3.249   2.262   0.422  0.7463  1.4571 -0.3646
 2229SOL    HW2 6977   3.366   2.220   0.316 -0.2643  1.6427 -1.5802
 2230SOL     OW 6978   2.520   1.088   1.871 -0.3016  0.9826  0.0574
 2230SOL    HW1 6979   2.619   1.084   1.884 -0.4603  0.9381  1.4356
 2230SOL    HW2 6980   2.488   1.001   1.833 -0.0394  0.1774  1.5711
 2231SOL     OW 6981   1.954   1.958   1.786 -0.5234 -0.9570 -0.1682
 2231SOL    HW1 6982   1.877   1.908   1.746 -0.6517 -1.3055  0.4993
 2231SOL    HW2 6983   2.038   1.906   1.774 -0.7001 -1.4921  0.7725
 2232SOL     OW 6984   4.349   1.256   0.642 -0.3342 -0.2629  0.3077
 2232SOL    HW1 6985   4.378   1.348   0.670  2.6891 -0.8123 -0.6996
 2232SOL    HW2 6986   4.359   1.193   0.719 -0.2066 -0.1878  0.3532
 2233SOL     OW 6987   3.755   5.348   0.332  0.3291 -0.3157 -0.6607
 2233SOL    HW1 6988   3.836   5.365   0.388  0.3827  0.1239 -0.8667
 2233SOL    HW2 6989   3.774   5.273   0.269  0.5040 -0.3553 -0.5611
 2234SOL     OW 6990   2.532   3.331  -0.000  0.0590 -0.0404 -0.1280
 2234SOL    HW1 6991   2.550   3.422  -0.037  1.9169 -0.6410 -0.7918
 2234SOL    HW2 6992   2.498   3.339   0.093  0.0037  1.3335 -0.2456
 2235SOL     OW 6993   1.694   5.610   2.343 -0.2930  0.3280 -0.3492
 2235SOL    HW1 6994   1.781   5.597   2.296  0.3574  0.7587  0.6965
 2235SOL    HW2 6995   1.642   5.683   2.299  0.6074  1.1912  0.0109
 2236SOL     OW 6996   0.974   0.652   0.455  0.4236 -0.0335 -0.1686
 2236SOL    HW1 6997   1.054   0.599   0.428 -1.6115 -3.0163 -0.8989
 2236SOL    HW2 6998   0.936   0.698   0.374 -0.8714 -2.0495 -0.7824
 2237SOL     OW 6999   3.058   1.693   1.444 -0.2170  0.0256  0.2588
 2237SOL    HW1 7000   2.981   1.635   1.419 -1.1487  0.7984  1.2401
 2237SOL    HW2 7001   3.097   1.663   1.531 -0.3329  0.4965  0.4792
 2238SOL     OW 7002   1.726   0.949   1.674  0.1990 -0.2521 -0.2794
 2238SOL    HW1 7003   1.792   0.917   1.605 -0.2009 -1.9511  0.0872
 2238SOL    HW2 7004   1.696   0.872   1.729 -0.5996  0.8498  0.8680
 2239SOL     OW 7005   2.309   2.272   0.493 -0.0487  0.1270 -0.1920
 2239SOL    HW1 7006   2.333   2.261   0.396  2.8190 -0.6621  0.5159
 2239SOL    HW2 7007   2.282   2.184   0.531 -0.6134  0.3293 -0.1097
 2240SOL     OW 7008   4.198   0.332   1.018  0.2644 -0.4358 -0.4754
 2240SOL    HW1 7009   4.139   0.410   1.041 -0.6399 -0.8263 -1.3575
 2240SOL    HW2 7010   4.170   0.252   1.072 -1.3898 -1.1590 -2.2681
 2241SOL     OW 7011   0.252   0.974   1.054  0.3924 -0.7545  0.2112
 2241SOL    HW1 7012   0.351   0.959   1.053  0.7341  0.8961  2.0662
 2241SOL    HW2 7013   0.208   0.900   1.106  1.1720  0.4520  2.7834
 2242SOL     OW 7014   2.943   0.700   2.035 -0.7971 -0.4244 -0.2620
 2242SOL    HW1 7015   3.028   0.662   1.999 -1.4877 -0.4304 -2.0019
 2242SOL    HW2 7016   2.941   0.799   2.018 -2.4109 -0.8556 -3.1189
 2243SOL     OW 7017   2.258   0.764   5.664  0.4891 -0.2309 -0.2616
 2243SOL    HW1 7018   2.159   0.767   5.678  0.7687 -1.3418  2.6057
 2243SOL    HW2 7019   2.288   0.669   5.658  1.5655  0.0063  0.9095
 2244SOL     OW 7020   2.134   5.921   1.133 -0.3493 -0.1660  1.0472
 2244SOL    HW1 7021   2.222   5.885   1.164  0.4120 -0.4013 -1.1886
 2244SOL    HW2 7022   2.139   6.021   1.128 -0.8168 -0.0365  2.5080
 2245SOL     OW 7023   4.188   0.754   0.761 -0.5596  0.1708  0.0673
 2245SOL    HW1 7024   4.235   0.787   0.843  0.4497  0.5850 -0.6692
 2245SOL    HW2 7025   4.239   0.678   0.721  0.0261  1.2325 -1.2686
 2246SOL     OW 7026   0.698   1.032   1.106 -0.2629 -0.0830 -0.4824
 2246SOL    HW1 7027   0.710   0.946   1.155 -0.8003 -0.5861 -1.2097
 2246SOL    HW2 7028   0.626   1.022   1.037 -0.0063  0.8072 -0.9065
 2247SOL     OW 7029   2.059   1.900   0.841  0.1310  0.4301 -0.3436
 2247SOL    HW1 7030   2.016   1.978   0.886  1.0963  1.5257 -1.2340
 2247SOL    HW2 7031   2.118   1.852   0.906 -1.1882 -0.1347  0.4557
 2248SOL     OW 7032   2.805   1.081   1.848 -0.3075  0.6499 -0.5135
 2248SOL    HW1 7033   2.790   1.004   1.786 -1.1019 -0.5111  1.0410
 2248SOL    HW2 7034   2.861   1.150   1.803  0.6460 -0.9431 -1.8668
 2249SOL     OW 7035   3.202   0.902   1.071 -0.4754  0.5436 -0.0305
 2249SOL    HW1 7036   3.144   0.913   0.990  0.6737  1.0009 -0.8218
 2249SOL    HW2 7037   3.162   0.950   1.148 -2.5567 -1.4197  0.2261
 2250SOL     OW 7038   1.507   1.145   1.733 -0.0446  0.4833  0.0466
 2250SOL    HW1 7039   1.535   1.235   1.766 -0.8366  0.1195  1.8040
 2250SOL    HW2 7040   1.589   1.093   1.707  0.5491  1.1347  0.5606
 2251SOL     OW 7041   3.987   1.273   2.390 -0.1198  0.2465  0.1377
 2251SOL    HW1 7042   4.003   1.300   2.295 -1.8753 -0.0742 -0.2829
 2251SOL    HW2 7043   4.026   1.343   2.451 -0.7599  1.5194 -0.8495
 2252SOL     OW 7044   2.969   2.386   2.483 -0.3461 -0.2111 -0.3763
 2252SOL    HW1 7045   2.975   2.415   2.388  1.4499  1.4523  0.1758
 2252SOL    HW2 7046   3.061   2.380   2.522 -0.9185 -2.5080  0.8323
 2253SOL     OW 7047   1.048   0.689   2.395  0.1444  0.0125  0.2098
 2253SOL    HW1 7048   1.082   0.613   2.452 -0.3951 -0.7485 -0.4639
 2253SOL    HW2 7049   0.985   0.745   2.449 -2.0554 -1.9376 -0.1796
 2254SOL     OW 7050   2.721   2.039   1.599  0.8174 -0.1334  0.0420
 2254SOL    HW1 7051   2.667   2.033   1.515  0.1879  1.2936  0.3126
 2254SOL    HW2 7052   2.817   2.056   1.575  0.3171  2.4746 -0.4257
 2255SOL     OW 7053   4.879   1.960   1.434 -0.7167 -0.4093 -0.4755
 2255SOL    HW1 7054   4.886   1.917   1.524  0.6888  1.1143  0.1867
 2255SOL    HW2 7055   4.918   2.051   1.438 -1.2896 -0.0368 -2.4827
 2256SOL     OW 7056   2.680   1.630   1.010  0.5664  0.1506  0.6883
 2256SOL    HW1 7057   2.780   1.633   1.015  0.5388 -0.0832  1.4632
 2256SOL    HW2 7058   2.642   1.699   1.072  0.2441  0.5870  0.0211
 2257SOL     OW 7059   3.844   0.256   0.238 -0.5561  0.4558 -0.1663
 2257SOL    HW1 7060   3.849   0.340   0.292 -0.4836  0.0084  0.5396
 2257SOL    HW2 7061   3.885   0.271   0.148  1.0358  0.6825  0.5728
 2258SOL     OW 7062   3.423   1.694   1.802  0.1964  0.6980 -0.1643
 2258SOL    HW1 7063   3.495   1.630   1.774 -0.3668 -0.3005  0.5783
 2258SOL    HW2 7064   3.464   1.771   1.851  0.7179 -0.5327  1.4621
 2259SOL     OW 7065   1.912   1.011   0.290  0.0808  0.3971  0.1832
 2259SOL    HW1 7066   1.854   1.052   0.220  2.3163  1.4249 -1.2050
 2259SOL    HW2 7067   1.933   1.080   0.361  0.4528  0.3769  0.0968
 2260SOL     OW 7068   2.282   1.104   0.711  0.1402  0.1244 -0.0923
 2260SOL    HW1 7069   2.311   1.136   0.801 -0.6975  0.4128  0.0837
 2260SOL    HW2 7070   2.182   1.108   0.705  0.2514  1.3886 -1.5090
 2261SOL     OW 7071   2.515   0.112   1.356  0.1290 -0.2543 -0.0702
 2261SOL    HW1 7072   2.571   0.147   1.431  1.9908 -0.4382 -1.3231
 2261SOL    HW2 7073   2.537   0.162   1.272  1.9057 -3.3935 -1.6255
 2262SOL     OW 7074   2.510   0.841   1.751  0.0848 -0.1549 -0.3787
 2262SOL    HW1 7075   2.518   0.743   1.772 -0.0506  0.2006  1.5023
 2262SOL    HW2 7076   2.430   0.855   1.693 -0.9320 -1.0002  0.7542
 2263SOL     OW 7077   3.185   1.435   0.171  0.1764 -0.1833  0.0919
 2263SOL    HW1 7078   3.224   1.395   0.254 -0.5904 -1.1121  0.0213
 2263SOL    HW2 7079   3.085   1.422   0.172  0.2326 -0.8069 -1.2946
 2264SOL     OW 7080   2.407   3.023   1.053 -0.3536  0.9595 -0.3890
 2264SOL    HW1 7081   2.412   3.118   1.086  1.0919  0.5686  0.6330
 2264SOL    HW2 7082   2.489   3.002   1.000  0.7990 -0.4937  1.7766
 2265SOL     OW 7083   1.915   2.252   2.299  0.2366  0.3079 -0.2315
 2265SOL    HW1 7084   1.886   2.318   2.230 -0.5905 -0.4454 -0.6312
 2265SOL    HW2 7085   1.919   2.161   2.258  1.0016  0.0446  0.3979
 2266SOL     OW 7086   3.805   5.704   5.443  0.2727  0.0226 -0.0796
 2266SOL    HW1 7087   3.808   5.654   5.530 -0.1732 -1.9412 -1.1305
 2266SOL    HW2 7088   3.718   5.687   5.397  0.2949  1.4373 -0.7117
 2267SOL     OW 7089   2.421   0.852   0.593 -0.3508  0.4520  0.2250
 2267SOL    HW1 7090   2.374   0.783   0.649  1.2957 -0.7726  0.1719
 2267SOL    HW2 7091   2.395   0.943   0.624  0.1132 -0.1887  2.6623
 2268SOL     OW 7092   3.101   2.105   1.104 -0.2558 -0.0956  0.0838
 2268SOL    HW1 7093   3.054   2.170   1.045 -1.3172  0.5836  1.6166
 2268SOL    HW2 7094   3.129   2.150   1.189 -0.9384 -1.5960  1.1431
 2269SOL     OW 7095   2.929   1.398   0.459 -0.0639 -0.3188  0.7714
 2269SOL    HW1 7096   3.011   1.420   0.511  0.5311 -0.7810  0.0566
 2269SOL    HW2 7097   2.950   1.402   0.361 -0.8004 -0.8116  0.5874
 2270SOL     OW 7098   2.237   1.751   0.997 -0.4244 -0.3093  0.6549
 2270SOL    HW1 7099   2.207   1.655   0.996 -0.8756 -0.1729  0.8140
 2270SOL    HW2 7100   2.257   1.779   1.091 -2.3163  0.3592  0.8928
 2271SOL     OW 7101   1.565   2.117   0.939 -0.0962  0.5614 -0.0978
 2271SOL    HW1 7102   1.603   2.072   0.858  0.2521  2.5019 -1.0739
 2271SOL    HW2 7103   1.473   2.151   0.917 -1.1303 -1.2128  1.2105
 2272SOL     OW 7104   4.380   0.841   0.096 -0.7654 -0.1317  0.5558
 2272SOL    HW1 7105   4.425   0.770   0.042 -2.0168 -0.5794  0.0752
 2272SOL    HW2 7106   4.393   0.930   0.053 -1.4909 -0.4440 -0.3269
 2273SOL     OW 7107   2.762   0.148   1.464 -0.2180  0.2781 -0.6661
 2273SOL    HW1 7108   2.800   0.079   1.525 -0.4210  0.4181 -0.3809
 2273SOL    HW2 7109   2.836   0.201   1.423 -0.1319  1.3657  0.8319
 2274SOL     OW 7110   4.067   0.950   0.441 -0.5885  0.0572 -0.7024
 2274SOL    HW1 7111   4.153   0.911   0.409 -0.4521 -0.2810  0.0660
 2274SOL    HW2 7112   4.072   1.050   0.436 -0.5778  0.0209 -1.7319
 2275SOL     OW 7113   4.781   5.701  -0.018 -0.3310  0.0237 -0.2677
 2275SOL    HW1 7114   4.836   5.653   0.050 -0.3705  1.3373  0.7367
 2275SOL    HW2 7115   4.684   5.689   0.004 -0.3218  1.7613  0.9063
 2276SOL     OW 7116   2.086   5.431   2.018  0.1225 -0.2495  0.3289
 2276SOL    HW1 7117   2.051   5.484   1.942  1.3203 -0.8652 -0.6984
 2276SOL    HW2 7118   2.012   5.410   2.082 -1.4290 -1.5307 -1.7406
 2277SOL     OW 7119   3.341   2.665   1.934 -0.2125  0.0820  0.4756
 2277SOL    HW1 7120   3.303   2.577   1.904 -0.6631  0.4537 -0.0644
 2277SOL    HW2 7121   3.296   2.694   2.018 -0.5386  0.1192  0.2888
 2278SOL     OW 7122   1.589   0.119   1.774  0.1949  0.7293  0.1916
 2278SOL    HW1 7123   1.636   0.032   1.788 -1.0362  0.1044  0.5539
 2278SOL    HW2 7124   1.610   0.153   1.682  0.8691  0.1766  0.1259
 2279SOL     OW 7125   4.623   1.404   1.718 -0.3497 -0.6895 -0.0982
 2279SOL    HW1 7126   4.573   1.415   1.632  0.7034  1.8952 -0.4770
 2279SOL    HW2 7127   4.706   1.352   1.701 -0.1359 -0.1791 -0.6929
 2280SOL     OW 7128   3.199   2.347   0.620 -0.0066  0.1537  0.4969
 2280SOL    HW1 7129   3.282   2.320   0.668 -0.9438 -0.2743  1.9224
 2280SOL    HW2 7130   3.119   2.326   0.676 -1.0207  1.8846 -0.2121
 2281SOL     OW 7131   3.601   5.975   0.442 -0.1340  0.4968  0.2277
 2281SOL    HW1 7132   3.542   6.053   0.462 -1.5041 -0.4394 -0.0391
 2281SOL    HW2 7133   3.557   5.916   0.374  1.1129 -0.2378  0.0189
 2282SOL     OW 7134   1.058   2.892   0.860  0.8837 -0.7879 -0.3593
 2282SOL    HW1 7135   0.978   2.838   0.832  0.2304 -1.3434  2.2991
 2282SOL    HW2 7136   1.134   2.830   0.881  0.1075 -0.8481  2.7805
 2283SOL     OW 7137   1.219   1.262   0.835 -0.1636 -0.2216  0.3641
 2283SOL    HW1 7138   1.127   1.267   0.799  0.0306 -0.2202 -0.1338
 2283SOL    HW2 7139   1.269   1.346   0.813  0.5607 -0.9808 -1.0543
 2284SOL     OW 7140   2.183   1.451   1.011 -0.4160  0.2239 -0.1481
 2284SOL    HW1 7141   2.269   1.449   0.959 -0.5442  0.5370 -0.3779
 2284SOL    HW2 7142   2.139   1.362   1.006  0.0850 -0.0554  0.2935
 2285SOL     OW 7143   2.703   0.340   0.660 -0.5346  0.0768  0.1361
 2285SOL    HW1 7144   2.639   0.417   0.648 -1.0345 -0.1376  1.2719
 2285SOL    HW2 7145   2.713   0.320   0.758  1.5129  0.2908  0.0219
 2286SOL     OW 7146   3.317   5.816   5.440 -0.4278 -0.1198 -0.3117
 2286SOL    HW1 7147   3.332   5.907   5.402 -0.3863 -0.5636 -1.3822
 2286SOL    HW2 7148   3.223   5.788   5.423 -0.4866 -0.2163  0.1580
 2287SOL     OW 7149   2.092   0.367   2.229  0.2109 -0.5364 -0.5318
 2287SOL    HW1 7150   2.114   0.278   2.269 -2.3047 -0.6900  0.7535
 2287SOL    HW2 7151   2.145   0.438   2.274  0.1231 -1.1137  0.5230
 2288SOL     OW 7152   2.467   1.517   0.885 -0.4578  0.4349 -0.8490
 2288SOL    HW1 7153   2.507   1.428   0.862 -0.8693 -0.0177  0.1323
 2288SOL    HW2 7154   2.526   1.564   0.951 -0.7264  0.4562 -0.6215
 2289SOL     OW 7155   2.024   3.066   1.139  0.2753  0.2693 -0.4041
 2289SOL    HW1 7156   2.072   3.138   1.190  0.3024 -0.0740  0.0584
 2289SOL    HW2 7157   2.055   2.977   1.171 -0.0969  0.0478 -0.6581
 2290SOL     OW 7158   2.967   0.479   1.600  0.1449  0.2574  0.1286
 2290SOL    HW1 7159   2.970   0.391   1.553 -0.0459  0.7396 -0.8211
 2290SOL    HW2 7160   2.906   0.472   1.679 -2.3127  0.2877 -1.6362
 2291SOL     OW 7161   2.098   1.756   1.422  0.0892  0.1595 -0.3235
 2291SOL    HW1 7162   2.016   1.812   1.433  0.4685  0.5600  0.5751
 2291SOL    HW2 7163   2.157   1.767   1.502  0.8879 -0.3464 -0.8245
 2292SOL     OW 7164   3.295   0.783   0.273  0.2218 -0.0736 -0.2747
 2292SOL    HW1 7165   3.352   0.863   0.255 -0.9984  0.3906 -2.4204
 2292SOL    HW2 7166   3.239   0.799   0.354  1.1031  0.5786  0.2239
 2293SOL     OW 7167   4.147   1.418   0.329  0.2543  0.3572  0.4928
 2293SOL    HW1 7168   4.062   1.467   0.309  0.0828 -0.7179 -1.7888
 2293SOL    HW2 7169   4.224   1.467   0.288  0.0822 -1.1103 -1.7991
 2294SOL     OW 7170   2.803   5.916   0.222  0.0509 -0.5124  0.2828
 2294SOL    HW1 7171   2.840   5.958   0.140 -0.2900  0.4330  0.5960
 2294SOL    HW2 7172   2.858   5.836   0.247  0.5008 -0.4630 -0.5262
 2295SOL     OW 7173   2.577   5.838   1.448 -0.1964  0.0963  0.3048
 2295SOL    HW1 7174   2.559   5.933   1.423 -2.2195 -0.2951  0.1104
 2295SOL    HW2 7175   2.676   5.821   1.445  0.2405  2.2693  0.7200
 2296SOL     OW 7176   2.079   1.198   1.016  0.7260 -0.0026 -0.4120
 2296SOL    HW1 7177   2.070   1.136   0.938  2.1455 -1.4705  0.5037
 2296SOL    HW2 7178   1.994   1.198   1.069  0.1327  0.1672 -1.3499
 2297SOL     OW 7179   3.599   1.242   2.243 -0.1218 -0.4655  0.5227
 2297SOL    HW1 7180   3.658   1.290   2.309 -2.6691  1.1087  1.7938
 2297SOL    HW2 7181   3.550   1.308   2.187 -0.6450 -1.7323 -0.5708
 2298SOL     OW 7182   3.346   1.000   0.856  0.7104  0.0186 -0.5067
 2298SOL    HW1 7183   3.349   0.920   0.795 -0.0945 -0.8102  0.5059
 2298SOL    HW2 7184   3.299   0.976   0.940 -2.2500  2.3526 -1.3294
 2299SOL     OW 7185   3.964   2.194   0.521 -0.1245  0.2866 -0.2425
 2299SOL    HW1 7186   3.967   2.287   0.484 -0.6135  0.5661  0.3908
 2299SOL    HW2 7187   4.053   2.172   0.562 -0.4625  1.0503  0.9418
 2300SOL     OW 7188   2.659   1.150   0.821 -0.1496  0.2823  0.2178
 2300SOL    HW1 7189   2.647   1.149   0.722 -0.0674 -0.4821  0.2087
 2300SOL    HW2 7190   2.721   1.224   0.847  0.3424  0.0756 -0.3583
 2301SOL     OW 7191   1.050   0.377   1.319 -0.3495  0.1997  0.1848
 2301SOL    HW1 7192   1.006   0.305   1.372 -0.1597 -0.6268 -0.7544
 2301SOL    HW2 7193   1.006   0.465   1.339 -1.5752 -0.4039  0.2218
 2302SOL     OW 7194   4.129   1.222   0.495 -0.2683 -0.0790  0.3835
 2302SOL    HW1 7195   4.110   1.303   0.439 -0.0874 -0.0848  0.3139
 2302SOL    HW2 7196   4.190   1.247   0.570 -1.3507  0.1685  1.2138
 2303SOL     OW 7197   2.005   1.153   0.728 -0.5831  0.3893  0.4693
 2303SOL    HW1 7198   1.997   1.252   0.722 -4.0046  0.2464  0.6709
 2303SOL    HW2 7199   1.943   1.110   0.662  1.4616 -1.6735 -0.2417
 2304SOL     OW 7200   4.122   5.924   0.367  0.1232 -0.2729  0.1137
 2304SOL    HW1 7201   4.047   5.979   0.405  1.7705  1.3095  1.2972
 2304SOL    HW2 7202   4.198   5.985   0.343  1.3274 -1.8901 -0.3154
 2305SOL     OW 7203   3.652   0.737   1.221  0.2391 -0.3967  0.2674
 2305SOL    HW1 7204   3.642   0.768   1.127 -0.1561  0.9194  0.7283
 2305SOL    HW2 7205   3.562   0.733   1.264  0.3577 -1.5084  0.4508
 2306SOL     OW 7206   4.077   0.796   0.153  0.1667  0.6067 -0.2322
 2306SOL    HW1 7207   4.156   0.823   0.099  0.3420  1.9950  0.6650
 2306SOL    HW2 7208   4.033   0.877   0.192  0.1305 -0.3099  1.8150
 2307SOL     OW 7209   3.440   0.602   1.328 -0.0367  0.0718 -0.7408
 2307SOL    HW1 7210   3.390   0.595   1.415 -1.2756  0.7095 -1.3773
 2307SOL    HW2 7211   3.478   0.513   1.304  0.6392 -0.0343  0.6259
 2308SOL     OW 7212   2.143   0.942   0.169  0.3796 -0.3257  1.0775
 2308SOL    HW1 7213   2.225   0.984   0.210  0.3824  1.1397 -0.3675
 2308SOL    HW2 7214   2.064   0.960   0.227  1.0910 -2.2595  2.8100
 2309SOL     OW 7215   4.486   1.164   1.850  0.0829  0.0433 -0.4121
 2309SOL    HW1 7216   4.442   1.099   1.789 -1.7461  1.4265 -0.6531
 2309SOL    HW2 7217   4.512   1.246   1.799 -1.4074  1.1913  0.5827
 2310SOL     OW 7218   4.424   1.333   4.030 -0.4638  0.5448 -0.1923
 2310SOL    HW1 7219   4.442   1.344   4.128  0.9982  2.0493 -0.5838
 2310SOL    HW2 7220   4.327   1.312   4.016 -1.2789  2.8045  1.4481
 2311SOL     OW 7221   2.906   5.829   5.668 -0.1283 -0.3965  0.3205
 2311SOL    HW1 7222   2.813   5.865   5.658 -0.5705 -1.3870  0.6492
 2311SOL    HW2 7223   2.904   5.751   5.730  0.9531 -0.3504  0.4217
 2312SOL     OW 7224   3.177   0.210   2.173 -0.3397 -0.1088  0.3618
 2312SOL    HW1 7225   3.120   0.154   2.113 -1.4111  2.0142 -0.7065
 2312SOL    HW2 7226   3.119   0.255   2.241  0.4622 -0.0564  1.0272
 2313SOL     OW 7227   2.866   0.938   1.322  0.2191 -0.4157 -0.1883
 2313SOL    HW1 7228   2.870   0.844   1.358  0.7292 -0.4238 -0.2634
 2313SOL    HW2 7229   2.771   0.961   1.302  0.2089 -1.3551 -1.3194
 2314SOL     OW 7230   4.070   2.158   1.575 -0.2225  0.5478 -0.2025
 2314SOL    HW1 7231   4.134   2.196   1.642  0.7804  1.2337 -1.5016
 2314SOL    HW2 7232   4.078   2.058   1.575 -1.9347  0.3078  2.3088
 2315SOL     OW 7233   2.459   1.325   2.217 -0.1596  0.2960  0.4670
 2315SOL    HW1 7234   2.440   1.415   2.254 -1.5526  1.0061 -1.7751
 2315SOL    HW2 7235   2.467   1.331   2.117 -2.3054 -2.3303  0.0284
 2316SOL     OW 7236   3.591   1.669   0.216 -0.1309 -0.1525 -0.4567
 2316SOL    HW1 7237   3.597   1.706   0.124  1.0798  0.4815 -0.1475
 2316SOL    HW2 7238   3.549   1.578   0.214 -0.7253  0.1393 -1.5410
 2317SOL     OW 7239   1.700   0.260   2.474  0.5571 -0.9658  0.2801
 2317SOL    HW1 7240   1.699   0.161   2.458 -3.5992 -0.8228 -1.7274
 2317SOL    HW2 7241   1.729   0.307   2.390 -1.2699 -0.4936 -0.1227
 2318SOL     OW 7242   1.996   1.328   1.860 -0.1500  0.4068  0.0767
 2318SOL    HW1 7243   1.982   1.230   1.868 -0.3744  0.4506  0.2277
 2318SOL    HW2 7244   1.937   1.376   1.925 -2.6725  0.8217 -2.3251
 2319SOL     OW 7245   1.932   2.347   1.236 -0.3308  0.0944  0.0077
 2319SOL    HW1 7246   1.912   2.320   1.330  0.7452 -1.4683 -0.1701
 2319SOL    HW2 7247   1.871   2.299   1.174 -1.1547  1.2539 -0.1186
 2320SOL     OW 7248   1.740   0.937   0.984  0.6063 -0.2198 -0.0144
 2320SOL    HW1 7249   1.712   0.841   0.976  1.5150 -0.4239 -0.9612
 2320SOL    HW2 7250   1.663   0.992   1.016 -0.4283 -0.9966 -1.0918
 2321SOL     OW 7251   2.758   0.927   0.925 -0.0475 -0.0321  0.0301
 2321SOL    HW1 7252   2.689   0.888   0.986 -0.0580  1.0564  0.7422
 2321SOL    HW2 7253   2.715   0.993   0.863  0.1949 -0.0824 -0.1944
 2322SOL     OW 7254   2.785   2.092   0.742 -0.1927  0.1492  0.2393
 2322SOL    HW1 7255   2.743   2.023   0.684 -0.1285 -0.0461  0.4239
 2322SOL    HW2 7256   2.868   2.055   0.784  0.1849  0.5402 -0.1474
 2323SOL     OW 7257   1.341   0.705   0.523  0.2365 -0.3667  0.7362
 2323SOL    HW1 7258   1.286   0.655   0.590 -0.4126  0.1127  0.5649
 2323SOL    HW2 7259   1.433   0.721   0.560  0.0601 -0.6025  1.2775
 2324SOL     OW 7260   2.395   0.661   1.375 -0.5249  0.8290  0.1474
 2324SOL    HW1 7261   2.373   0.681   1.279 -1.2258  0.3961  0.2156
 2324SOL    HW2 7262   2.350   0.577   1.403  1.1943 -0.0895  0.3082
 2325SOL     OW 7263   3.591   1.870   5.588  0.0614 -0.1264  0.3122
 2325SOL    HW1 7264   3.579   1.920   5.674 -0.9499 -1.0926  0.7450
 2325SOL    HW2 7265   3.669   1.807   5.597 -0.3656 -0.6065  0.7085
 2326SOL     OW 7266   2.660   0.441   1.530 -0.1168 -0.0576 -0.3830
 2326SOL    HW1 7267   2.686   0.346   1.545 -2.0021 -0.9644 -2.3079
 2326SOL    HW2 7268   2.660   0.460   1.432 -2.1932  1.1423 -0.2066
 2327SOL     OW 7269   4.575   1.145   0.876 -0.1229  0.1215  0.3103
 2327SOL    HW1 7270   4.481   1.146   0.910 -0.4197 -0.0523 -0.4743
 2327SOL    HW2 7271   4.603   1.051   0.858  0.3444  0.1417  0.9155
 2328SOL     OW 7272   2.494   2.802   1.615 -0.3218 -0.3218 -0.5246
 2328SOL    HW1 7273   2.559   2.739   1.572  1.5740  0.9024  0.4190
 2328SOL    HW2 7274   2.401   2.777   1.588  0.3069 -3.5370 -0.1523
 2329SOL     OW 7275   1.226   1.766   1.474  0.0743 -0.3546  0.0523
 2329SOL    HW1 7276   1.168   1.686   1.461  0.2954 -0.1678 -2.6075
 2329SOL    HW2 7277   1.312   1.754   1.423 -0.0815  1.7006 -0.8061
 2330SOL     OW 7278   3.218   6.002   1.235  0.9780 -0.0393 -0.3619
 2330SOL    HW1 7279   3.190   5.945   1.158  0.4684  1.6531 -1.4785
 2330SOL    HW2 7280   3.180   5.964   1.320 -0.8073 -0.4174 -1.2725
 2331SOL     OW 7281   3.115   5.108   0.256 -0.4191  0.1142  0.6022
 2331SOL    HW1 7282   3.074   5.161   0.330 -2.5832  1.0650 -1.1688
 2331SOL    HW2 7283   3.203   5.148   0.231 -0.1768  0.4354  1.9017
 2332SOL     OW 7284   1.186   0.726   2.143  0.1513 -0.5135  0.2169
 2332SOL    HW1 7285   1.128   0.721   2.225 -2.5200 -3.4194 -1.5982
 2332SOL    HW2 7286   1.263   0.662   2.153 -0.4118 -1.1873  0.3277
 2333SOL     OW 7287   2.378   1.345   2.578 -0.4634  0.0284  0.2853
 2333SOL    HW1 7288   2.466   1.384   2.549 -1.1486  0.4218 -1.3940
 2333SOL    HW2 7289   2.389   1.301   2.667  1.2195  0.8304  0.5184
 2334SOL     OW 7290   2.599   0.978   1.261  0.0637  0.3918 -0.6739
 2334SOL    HW1 7291   2.540   0.937   1.191 -1.2365 -1.5013  1.3819
 2334SOL    HW2 7292   2.545   1.042   1.317  0.0934 -0.7135  0.6935
 2335SOL     OW 7293   2.728   0.423   5.567 -0.1095  0.0736 -0.1349
 2335SOL    HW1 7294   2.730   0.481   5.648  0.9037  0.3778 -0.3614
 2335SOL    HW2 7295   2.820   0.389   5.548 -0.6962 -1.6719  0.0178
 2336SOL     OW 7296   2.849   5.971   5.921  0.2786 -0.5140 -0.2405
 2336SOL    HW1 7297   2.816   5.958   5.827  0.0135 -0.5906 -0.1392
 2336SOL    HW2 7298   2.923   6.039   5.922 -1.2638  1.2593 -0.2204
 2337SOL     OW 7299   2.312   1.832   1.249 -0.3061 -0.1386 -0.0277
 2337SOL    HW1 7300   2.216   1.826   1.276 -0.2017 -2.6225  0.0642
 2337SOL    HW2 7301   2.368   1.787   1.317  0.6673 -0.7127 -1.1739
 2338SOL     OW 7302   1.873   0.582   0.761  0.2600  0.3481 -0.1756
 2338SOL    HW1 7303   1.888   0.558   0.857 -1.3733  0.5230  0.1424
 2338SOL    HW2 7304   1.904   0.676   0.745  1.6209 -0.0653 -0.1305
 2339SOL     OW 7305   2.575   1.410   2.964  0.1066  0.3071  0.1712
 2339SOL    HW1 7306   2.613   1.414   3.057  0.6328 -0.3504 -0.0041
 2339SOL    HW2 7307   2.649   1.392   2.899 -0.0930  1.8483 -0.5116
 2340SOL     OW 7308   2.235   0.056   5.038 -0.3782  0.0900 -0.1761
 2340SOL    HW1 7309   2.144   0.074   5.075 -0.4656 -0.9485  0.1443
 2340SOL    HW2 7310   2.304   0.088   5.103 -0.5213 -0.2384  0.1392
 2341SOL     OW 7311   3.536   0.932   0.175 -0.2887 -0.6975  0.9380
 2341SOL    HW1 7312   3.613   0.869   0.189 -0.7855 -1.5750 -0.1569
 2341SOL    HW2 7313   3.515   0.938   0.077 -0.2271  1.2325  1.0044
 2342SOL     OW 7314   2.728   1.153   1.518 -0.6436  0.3667  0.2972
 2342SOL    HW1 7315   2.778   1.078   1.562 -2.7284 -1.6006 -0.4924
 2342SOL    HW2 7316   2.717   1.228   1.582  0.4433 -0.4783  1.5310
 2343SOL     OW 7317   3.930   0.735   2.089  0.1693 -0.4280  0.9104
 2343SOL    HW1 7318   4.029   0.735   2.095  0.5410 -2.1176 -2.6956
 2343SOL    HW2 7319   3.891   0.731   2.181  3.3697  0.1975  2.4296
 2344SOL     OW 7320   4.010   0.967   0.713 -0.2256 -0.0506  0.0147
 2344SOL    HW1 7321   3.999   0.977   0.614  0.4808  0.8716  0.0122
 2344SOL    HW2 7322   4.071   0.890   0.732 -0.7145 -0.5077 -0.2441
 2345SOL     OW 7323   2.281   2.271   1.542  1.0107 -0.7591 -0.3158
 2345SOL    HW1 7324   2.320   2.346   1.488  1.2982  0.1392  1.0843
 2345SOL    HW2 7325   2.192   2.246   1.505 -0.3162  2.0901  0.6601
 2346SOL     OW 7326   2.759   0.401   0.353  0.3951 -0.2251 -0.5173
 2346SOL    HW1 7327   2.789   0.497   0.354  1.7890 -0.6405  0.0795
 2346SOL    HW2 7328   2.754   0.366   0.446 -2.9927  0.0580 -0.4692
 2347SOL     OW 7329   3.587   2.046   1.603  0.2293 -0.1432 -0.1308
 2347SOL    HW1 7330   3.670   2.094   1.632 -0.0934  0.2016  0.2346
 2347SOL    HW2 7331   3.552   1.992   1.680  1.2676 -1.9532 -0.8807
 2348SOL     OW 7332   2.999   2.919   1.044 -0.1860 -0.2261 -0.0822
 2348SOL    HW1 7333   2.901   2.900   1.050 -0.3930  0.4056 -1.1666
 2348SOL    HW2 7334   3.049   2.861   1.109 -1.4317  0.8441  1.9220
 2349SOL     OW 7335   1.849   1.245   0.426 -0.2183  0.0662 -0.4869
 2349SOL    HW1 7336   1.771   1.302   0.451  0.4098  0.1979  1.3041
 2349SOL    HW2 7337   1.933   1.299   0.431  0.2198 -0.6226 -0.2239
 2350SOL     OW 7338   2.238   0.694   0.220  0.2962  0.1884 -0.4255
 2350SOL    HW1 7339   2.199   0.782   0.195  0.5434  0.9922  1.8144
 2350SOL    HW2 7340   2.172   0.643   0.276  1.3201  0.3243  0.9425
 2351SOL     OW 7341   3.200   0.516   0.674  0.5158 -0.6948  0.4018
 2351SOL    HW1 7342   3.224   0.521   0.771 -1.0389  0.9690  0.7566
 2351SOL    HW2 7343   3.100   0.512   0.664  0.5638  0.6389 -1.1274
 2352SOL     OW 7344   3.830   0.811   0.412  0.2308  0.1402  0.1187
 2352SOL    HW1 7345   3.759   0.882   0.403  0.2353 -0.0294 -1.6085
 2352SOL    HW2 7346   3.919   0.854   0.421  0.0936  0.3528  0.4790
 2353SOL     OW 7347   0.371   1.762   0.987  0.1020 -0.5236 -0.0452
 2353SOL    HW1 7348   0.458   1.805   1.012  0.1591 -0.3555 -0.5241
 2353SOL    HW2 7349   0.386   1.694   0.915 -0.2414 -0.0720 -0.5503
 2354SOL     OW 7350   2.289   2.655   0.998  0.0622 -0.2141 -0.1324
 2354SOL    HW1 7351   2.328   2.701   1.078 -1.3706  0.1703  0.3801
 2354SOL    HW2 7352   2.252   2.567   1.026  1.8178 -1.2482 -0.9035
 2355SOL     OW 7353   2.821   1.260   1.283 -0.4788 -0.0967 -0.5128
 2355SOL    HW1 7354   2.816   1.211   1.371 -1.2212  1.1340  0.1631
 2355SOL    HW2 7355   2.777   1.205   1.212  1.1994 -1.6621 -0.4054
 2356SOL     OW 7356   1.497   1.852   0.329 -0.1604  0.7870 -0.1273
 2356SOL    HW1 7357   1.495   1.832   0.231 -0.1830  1.3699 -0.2475
 2356SOL    HW2 7358   1.520   1.948   0.343 -0.4784  0.7850  0.4338
 2357SOL     OW 7359   0.897   0.719   0.998  0.1464  0.3952  0.1127
 2357SOL    HW1 7360   0.892   0.716   0.898  1.6204  2.2153 -0.0782
 2357SOL    HW2 7361   0.931   0.632   1.032 -0.5982 -0.3319 -0.9476
 2358SOL     OW 7362   2.758   0.898   1.647  0.3918 -0.6297  0.3825
 2358SOL    HW1 7363   2.668   0.885   1.689  0.8175  0.5301  1.7675
 2358SOL    HW2 7364   2.771   0.831   1.575 -1.9009 -0.3107 -0.4217
 2359SOL     OW 7365   1.358   0.743   0.888  0.3508 -0.3693  0.2184
 2359SOL    HW1 7366   1.345   0.841   0.903 -0.7149 -0.3980 -0.3750
 2359SOL    HW2 7367   1.275   0.705   0.848  1.1010 -1.3339 -0.4628
 2360SOL     OW 7368   2.236   1.282   2.354 -0.1886 -1.0842  0.5179
 2360SOL    HW1 7369   2.264   1.304   2.447  0.1979  4.7258 -0.5769
 2360SOL    HW2 7370   2.317   1.274   2.296 -0.5079 -1.9701  0.1717
 2361SOL     OW 7371   1.470   1.537   2.573 -0.3121 -0.7021 -0.7332
 2361SOL    HW1 7372   1.534   1.599   2.527  0.2038 -0.6378  0.0519
 2361SOL    HW2 7373   1.503   1.443   2.564  0.8978 -0.5271  1.1676
 2362SOL     OW 7374   2.159   0.818   0.947 -0.0637  0.1478  0.2812
 2362SOL    HW1 7375   2.123   0.787   1.035  0.0835 -0.7394  0.0344
 2362SOL    HW2 7376   2.084   0.844   0.887 -0.3930 -2.1115 -0.3893
 2363SOL     OW 7377   1.314   1.222   1.584 -0.1406  0.0144  0.7150
 2363SOL    HW1 7378   1.389   1.193   1.642  0.3198 -0.4826 -0.1059
 2363SOL    HW2 7379   1.241   1.154   1.586 -0.0403 -0.0977  0.5586
 2364SOL     OW 7380   2.852   0.652   0.286 -0.3800 -0.3509  0.0188
 2364SOL    HW1 7381   2.949   0.636   0.269 -0.3087 -0.6184  0.6410
 2364SOL    HW2 7382   2.821   0.730   0.232  0.0271 -0.6453 -0.6564
 2365SOL     OW 7383   1.446   1.388   1.134 -0.1801 -0.4077  0.7090
 2365SOL    HW1 7384   1.380   1.408   1.206  0.8830 -1.2013  1.9625
 2365SOL    HW2 7385   1.504   1.312   1.162  0.4606 -0.5556 -0.8859
 2366SOL     OW 7386   2.197   0.487   1.766 -0.1343  0.3383  0.1168
 2366SOL    HW1 7387   2.186   0.580   1.730 -0.3606  0.1243 -0.3727
 2366SOL    HW2 7388   2.128   0.471   1.837 -0.9463  0.0955 -0.7195
 2367SOL     OW 7389   2.297   5.816   5.484  0.1074  0.5696 -0.1945
 2367SOL    HW1 7390   2.365   5.865   5.430 -0.9075  0.5934 -1.4967
 2367SOL    HW2 7391   2.338   5.787   5.570  2.6679 -1.9242 -2.0618
 2368SOL     OW 7392   3.493   0.447   1.876 -0.3104  0.0020 -0.0911
 2368SOL    HW1 7393   3.574   0.448   1.818 -0.6258  1.0392 -0.5443
 2368SOL    HW2 7394   3.478   0.539   1.914 -0.0366 -0.6689  1.7579
 2369SOL     OW 7395   2.969   1.623   1.986  0.5901  0.2087 -0.2011
 2369SOL    HW1 7396   2.938   1.713   2.015 -0.8645 -0.1571 -0.5636
 2369SOL    HW2 7397   2.896   1.556   2.000  1.9284 -1.1069  0.8867
 2370SOL     OW 7398   2.439   1.900   0.838 -0.2841 -0.3301  0.1155
 2370SOL    HW1 7399   2.515   1.865   0.783 -2.3064 -1.0306 -2.4384
 2370SOL    HW2 7400   2.396   1.824   0.887 -0.8853 -0.3932 -0.4962
 2371SOL     OW 7401   3.465   1.228   1.766  0.8452 -0.1448  0.6648
 2371SOL    HW1 7402   3.496   1.319   1.740  0.9301 -0.5364 -0.6602
 2371SOL    HW2 7403   3.493   1.161   1.697 -0.6266 -0.9236  0.7741
 2372SOL     OW 7404   3.671   5.923   0.097  0.0879  0.2792 -0.0186
 2372SOL    HW1 7405   3.766   5.938   0.071  0.1540  0.1371  0.1428
 2372SOL    HW2 7406   3.623   6.011   0.101  0.1724  0.3358 -0.2551
 2373SOL     OW 7407   3.526   5.176   1.450  0.0512 -0.0078  0.0180
 2373SOL    HW1 7408   3.502   5.272   1.437  1.7007  0.3180 -0.8563
 2373SOL    HW2 7409   3.604   5.153   1.393  0.7914 -1.4264  1.5092
 2374SOL     OW 7410   4.936   2.251   1.144 -0.0285  0.2870  0.3486
 2374SOL    HW1 7411   4.861   2.187   1.131  0.6980 -0.5857  0.3158
 2374SOL    HW2 7412   4.900   2.342   1.160 -1.1148 -0.2751  1.2666
 2375SOL     OW 7413   1.617   1.854   1.468  0.4897  0.2184  0.7186
 2375SOL    HW1 7414   1.569   1.784   1.521  1.0657 -0.2654  0.6116
 2375SOL    HW2 7415   1.562   1.879   1.389  0.2037  0.0013  0.8481
 2376SOL     OW 7416   2.632   2.563   0.737  0.3804 -1.1239 -0.2446
 2376SOL    HW1 7417   2.705   2.628   0.718 -0.0287 -0.2800  0.9791
 2376SOL    HW2 7418   2.563   2.568   0.664  2.8622 -4.1070 -3.1677
 2377SOL     OW 7419   2.427   1.113   3.329  0.0511 -0.0004 -0.5689
 2377SOL    HW1 7420   2.422   1.025   3.377  0.6629  0.1029 -0.3139
 2377SOL    HW2 7421   2.488   1.104   3.250  0.3037  0.2612 -0.4039
 2378SOL     OW 7422   1.827   2.028   5.555  0.3858  0.6478 -0.1487
 2378SOL    HW1 7423   1.762   2.003   5.482 -0.0409  1.2865 -0.0041
 2378SOL    HW2 7424   1.794   1.992   5.642 -0.0584  1.4175  0.0079
 2379SOL     OW 7425   3.350   0.946   2.146 -0.4490 -0.6114 -0.1208
 2379SOL    HW1 7426   3.279   0.889   2.188 -0.4490  0.9964  2.2890
 2379SOL    HW2 7427   3.329   0.961   2.050 -1.8408 -2.4533 -0.1521
 2380SOL     OW 7428   3.600   5.976   0.714  0.4752 -0.2796  0.3840
 2380SOL    HW1 7429   3.586   5.993   0.617 -2.1634  0.2182  0.7678
 2380SOL    HW2 7430   3.693   5.943   0.729  1.3033  0.6334 -2.1449
 2381SOL     OW 7431   2.737   0.884   0.079 -0.5583 -0.2123 -0.1394
 2381SOL    HW1 7432   2.719   0.831  -0.004 -0.6798  0.8978 -0.8425
 2381SOL    HW2 7433   2.664   0.952   0.091  0.0050  0.3210  0.3041
 2382SOL     OW 7434   3.036   1.982   1.399  0.3162 -0.3791 -0.3410
 2382SOL    HW1 7435   3.021   1.888   1.429  2.0601 -0.7686 -0.5971
 2382SOL    HW2 7436   3.131   2.007   1.414 -0.4527  1.9706  1.3603
 2383SOL     OW 7437   1.381   1.272   2.088  0.0230 -0.5996 -0.0629
 2383SOL    HW1 7438   1.408   1.368   2.079  3.0736 -1.3510  0.0107
 2383SOL    HW2 7439   1.437   1.228   2.158 -1.6293 -2.3683  0.2229
 2384SOL     OW 7440   2.166   1.781   4.057  0.0586 -1.0557  0.5814
 2384SOL    HW1 7441   2.083   1.728   4.076 -0.5077 -0.0378  1.0300
 2384SOL    HW2 7442   2.169   1.861   4.117  0.5489 -0.2092 -0.5303
 2385SOL     OW 7443   3.026   2.198   0.003 -0.5124  0.6615 -0.3153
 2385SOL    HW1 7444   3.024   2.211   0.102 -0.0001  1.6455 -0.4168
 2385SOL    HW2 7445   3.052   2.104  -0.019 -0.8465  0.3770  0.4808
 2386SOL     OW 7446   1.029   2.967   1.287  0.1523 -0.3540 -0.3422
 2386SOL    HW1 7447   0.995   2.876   1.262 -1.3723 -0.0229  0.4107
 2386SOL    HW2 7448   1.000   3.034   1.219  0.2100 -0.2420 -0.2570
 2387SOL     OW 7449   3.142   0.858   1.739 -0.0170 -0.1770  0.0050
 2387SOL    HW1 7450   3.125   0.837   1.643 -2.8312  1.7976 -0.0769
 2387SOL    HW2 7451   3.075   0.810   1.796 -0.0938  0.7208  0.6960
 2388SOL     OW 7452   2.342   1.169   1.219  0.0683  0.5317 -0.1915
 2388SOL    HW1 7453   2.327   1.152   1.316 -0.4100 -0.3591 -0.4137
 2388SOL    HW2 7454   2.254   1.185   1.173 -0.2239 -3.1468 -1.2117
 2389SOL     OW 7455   3.935   5.976   0.025 -0.5532 -0.1216 -0.4235
 2389SOL    HW1 7456   3.960   5.954  -0.069 -0.6230 -1.0547 -0.2307
 2389SOL    HW2 7457   4.012   5.957   0.086 -0.9318 -0.7406 -0.1321
 2390SOL     OW 7458   2.768   2.895   1.375  0.2688 -0.3455 -0.2681
 2390SOL    HW1 7459   2.759   2.919   1.278 -0.1977  0.0781 -0.1207
 2390SOL    HW2 7460   2.761   2.977   1.431  2.8235 -0.2414  0.0232
 2391SOL     OW 7461   3.885   1.046   2.028  0.5238 -0.5945 -0.3285
 2391SOL    HW1 7462   3.792   1.020   2.054 -0.1625  1.2738 -0.7722
 2391SOL    HW2 7463   3.950   0.984   2.072 -0.8874 -1.5617  0.4858
 2392SOL     OW 7464   1.937   2.131   0.913 -0.3227  0.0154 -0.3384
 2392SOL    HW1 7465   1.864   2.188   0.952 -1.3674 -0.7167 -1.1797
 2392SOL    HW2 7466   2.015   2.189   0.889 -0.6125  0.8109  0.5652
 2393SOL     OW 7467   1.682   1.872   1.952 -0.3545 -0.3022  0.5202
 2393SOL    HW1 7468   1.724   1.815   1.882  0.9085  0.2206  0.8262
 2393SOL    HW2 7469   1.630   1.814   2.015 -0.2747 -0.9449  0.0056
 2394SOL     OW 7470   1.775   1.564   0.662 -0.3485  0.2630 -0.6771
 2394SOL    HW1 7471   1.809   1.653   0.630  1.0092 -0.1268 -0.3732
 2394SOL    HW2 7472   1.852   1.501   0.673 -1.0028 -0.2443  1.4019
 2395SOL     OW 7473   3.069   0.233   5.683 -0.6748 -0.8102  0.3573
 2395SOL    HW1 7474   3.025   0.271   5.764  0.2574 -1.2918  1.1042
 2395SOL    HW2 7475   3.111   0.145   5.705  0.9037 -0.2526 -0.2309
 2396SOL     OW 7476   3.599   1.431   1.651  0.5027 -0.3101 -0.0717
 2396SOL    HW1 7477   3.651   1.387   1.577 -0.6773  0.3767 -1.3689
 2396SOL    HW2 7478   3.661   1.484   1.708  1.6445 -1.9796  0.2947
 2397SOL     OW 7479   1.616   0.542   0.383 -0.4278 -0.1853  0.0876
 2397SOL    HW1 7480   1.544   0.575   0.322  2.3152  0.6310 -3.0264
 2397SOL    HW2 7481   1.698   0.598   0.372  1.3519 -2.2091  1.9481
 2398SOL     OW 7482   3.039   1.372   1.177  0.1208 -0.2864  0.3205
 2398SOL    HW1 7483   3.047   1.461   1.222 -1.3158  0.3119 -0.5666
 2398SOL    HW2 7484   2.958   1.325   1.211  0.0680 -0.6351 -0.2758
 2399SOL     OW 7485   2.072   5.760   1.713  0.8421 -0.5772 -0.0396
 2399SOL    HW1 7486   2.018   5.773   1.796  0.8266  1.1107 -0.2849
 2399SOL    HW2 7487   2.169   5.754   1.738  0.8417 -0.0369  0.0970
 2400SOL     OW 7488   3.458   2.422   1.720 -0.4895 -0.5427 -0.4747
 2400SOL    HW1 7489   3.428   2.407   1.626  0.1510  1.0694 -0.9735
 2400SOL    HW2 7490   3.529   2.492   1.721  0.6577 -1.6614  1.0567
 2401SOL     OW 7491   2.689   4.964   1.213  0.0603  0.2113 -0.0206
 2401SOL    HW1 7492   2.729   4.880   1.178  2.6776  1.3725  0.0055
 2401SOL    HW2 7493   2.615   4.942   1.277 -0.2449 -1.9923 -1.0447
 2402SOL     OW 7494   1.374   0.790   1.701  0.0850  0.1387  0.7150
 2402SOL    HW1 7495   1.333   0.878   1.678 -0.2146 -0.5610 -1.7469
 2402SOL    HW2 7496   1.311   0.738   1.758  0.0820  1.3112  1.8408
 2403SOL     OW 7497   1.611   1.933   2.515 -0.1038  0.2234  0.2863
 2403SOL    HW1 7498   1.553   1.965   2.440  0.5920  0.9550  0.0511
 2403SOL    HW2 7499   1.641   2.011   2.569  2.6618  0.1907 -1.0301
 2404SOL     OW 7500   4.038   0.758   1.642  0.2246 -0.1104  0.8091
 2404SOL    HW1 7501   4.073   0.668   1.618  1.7066  0.8500 -1.0091
 2404SOL    HW2 7502   3.959   0.780   1.584  1.5538  0.7665 -0.7779
 2405SOL     OW 7503   3.205   1.336   1.655 -0.2858 -0.2716 -0.0219
 2405SOL    HW1 7504   3.227   1.333   1.558  0.8831 -0.1293  0.2242
 2405SOL    HW2 7505   3.287   1.316   1.709 -0.7073  0.5051  0.9496
 2406SOL     OW 7506   1.253   1.006   0.912  0.6600  0.4135  0.1795
 2406SOL    HW1 7507   1.171   0.994   0.968  1.0038 -0.2321  0.5552
 2406SOL    HW2 7508   1.256   1.100   0.878  0.1921  0.6856  0.8508
 2407SOL     OW 7509   4.016   0.517   1.106  0.0635 -0.4714  0.0415
 2407SOL    HW1 7510   4.000   0.527   1.008  0.9866 -1.1172 -0.1871
 2407SOL    HW2 7511   3.931   0.535   1.156 -0.9237 -2.0401 -0.9892
 2408SOL     OW 7512   3.525   1.950   1.845  0.1064  0.3719  0.0954
 2408SOL    HW1 7513   3.588   1.944   1.922 -0.3408  1.0651  0.5239
 2408SOL    HW2 7514   3.432   1.966   1.878 -0.3069 -0.6307 -0.5320
 2409SOL     OW 7515   2.792   0.940   5.041  0.2520 -0.9411 -0.2285
 2409SOL    HW1 7516   2.692   0.933   5.047  0.0664  1.4018  0.2473
 2409SOL    HW2 7517   2.820   0.934   4.945 -0.7780  2.0093 -0.8315
 2410SOL     OW 7518   2.830   2.040   1.225 -0.1962 -0.3435 -0.3390
 2410SOL    HW1 7519   2.903   2.001   1.281  0.6665  0.5938 -0.7936
 2410SOL    HW2 7520   2.864   2.120   1.176 -1.2346 -0.5046 -1.3747
 2411SOL     OW 7521   2.916   1.399   0.174  0.1480  0.3900  0.3785
 2411SOL    HW1 7522   2.827   1.445   0.173 -0.0355  0.0774  1.4700
 2411SOL    HW2 7523   2.916   1.324   0.108  0.1142  1.2833 -0.6897
 2412SOL     OW 7524   3.642   1.246   0.056 -0.0037 -0.0875  0.2870
 2412SOL    HW1 7525   3.700   1.168   0.035  0.6621  0.4123  0.2060
 2412SOL    HW2 7526   3.615   1.243   0.152  1.6758  0.6013  0.8347
 2413SOL     OW 7527   4.083   1.774   1.695  0.0893  0.3383 -0.5756
 2413SOL    HW1 7528   4.173   1.765   1.739 -0.0716 -2.6328 -0.6502
 2413SOL    HW2 7529   4.021   1.823   1.756  1.2671  0.9014  0.2244
 2414SOL     OW 7530   2.504   0.868   1.021  0.7606  0.2428 -0.2723
 2414SOL    HW1 7531   2.443   0.944   1.000 -0.3189 -0.3532  0.6081
 2414SOL    HW2 7532   2.450   0.786   1.039  1.8207 -0.2903  0.5921
 2415SOL     OW 7533   2.541   0.210   5.921  0.3087 -0.6322 -0.3084
 2415SOL    HW1 7534   2.481   0.220   6.000  1.7623 -1.6326  0.9866
 2415SOL    HW2 7535   2.634   0.240   5.945  0.2701  1.4473 -2.4381
 2416SOL     OW 7536   1.327   2.676   1.199  0.2723 -0.3021 -0.3495
 2416SOL    HW1 7537   1.391   2.688   1.275 -1.1781 -0.8571  1.0062
 2416SOL    HW2 7538   1.273   2.760   1.188  1.8850  0.5679 -2.1861
 2417SOL     OW 7539   2.142   1.138   1.496 -0.3863  0.2836  0.1750
 2417SOL    HW1 7540   2.192   1.122   1.581  1.8559 -0.8011 -1.2456
 2417SOL    HW2 7541   2.094   1.054   1.469  1.4581 -0.4156 -1.1360
 2418SOL     OW 7542   2.037   0.694   1.175 -0.2313 -0.0002 -0.3535
 2418SOL    HW1 7543   2.031   0.649   1.264  0.8445  0.9339  0.2222
 2418SOL    HW2 7544   1.993   0.783   1.179 -3.3265 -1.3290 -1.7939
 2419SOL     OW 7545   3.391   0.371   1.579  0.1297 -0.2406  0.8060
 2419SOL    HW1 7546   3.339   0.290   1.550  0.6250 -0.6898  1.1695
 2419SOL    HW2 7547   3.374   0.389   1.676 -0.5290  0.5172  0.5686
 2420SOL     OW 7548   1.290   0.541   1.249  0.1944 -0.6058 -0.2142
 2420SOL    HW1 7549   1.234   0.458   1.246 -1.3402  0.3618  0.4110
 2420SOL    HW2 7550   1.385   0.518   1.226  0.6977 -3.2778  3.5023
 2421SOL     OW 7551   2.168   2.250   0.887  0.1291  0.3323 -0.4906
 2421SOL    HW1 7552   2.160   2.320   0.958 -0.7852  0.3722 -0.6145
 2421SOL    HW2 7553   2.264   2.230   0.870  0.3979  1.3648 -0.2663
 2422SOL     OW 7554   2.519   0.301   1.148  0.0337  0.3598  0.3260
 2422SOL    HW1 7555   2.582   0.370   1.186  0.7596  0.6584 -1.3381
 2422SOL    HW2 7556   2.443   0.347   1.103 -1.6074  0.0023  2.5202
 2423SOL     OW 7557   2.134   5.541   0.995 -0.5502  0.1806  0.2965
 2423SOL    HW1 7558   2.160   5.470   1.061 -1.3347 -0.7416 -0.3576
 2423SOL    HW2 7559   2.039   5.567   1.011 -0.4636  0.6099  0.1071
 2424SOL     OW 7560   3.990   1.563   2.095  0.0871 -0.5084 -0.3762
 2424SOL    HW1 7561   3.906   1.613   2.115  1.1293  0.7191  1.2885
 2424SOL    HW2 7562   3.985   1.471   2.134  0.1992  0.2132  1.4290
 2425SOL     OW 7563   1.667   2.783   0.905  0.5506 -0.0634  0.1735
 2425SOL    HW1 7564   1.649   2.821   0.996 -4.0176 -2.3573  0.5061
 2425SOL    HW2 7565   1.673   2.857   0.839  0.7173  1.5324  1.8910
 2426SOL     OW 7566   4.328   0.891   0.358 -0.0817  0.1103 -0.1349
 2426SOL    HW1 7567   4.397   0.836   0.404 -0.0352 -0.2327 -0.6075
 2426SOL    HW2 7568   4.337   0.880   0.259 -0.9995 -0.1753 -0.1965
 2427SOL     OW 7569   3.112   5.838   1.005 -0.2225 -0.1204  0.4199
 2427SOL    HW1 7570   3.039   5.770   1.013  0.0072 -0.2206  1.8740
 2427SOL    HW2 7571   3.189   5.799   0.954 -1.0759 -0.0832 -0.9378
 2428SOL     OW 7572   2.709   0.292   0.936 -0.4261  0.0054 -0.4273
 2428SOL    HW1 7573   2.800   0.313   0.972 -0.3378 -0.7850 -0.1733
 2428SOL    HW2 7574   2.641   0.309   1.007 -0.3032 -1.0385 -0.0420
 2429SOL     OW 7575   2.469   1.875   0.413 -0.2314 -0.0504  0.5501
 2429SOL    HW1 7576   2.498   1.780   0.401  1.5883  0.4842  0.4241
 2429SOL    HW2 7577   2.371   1.877   0.436 -0.6119 -1.8515 -0.7032
 2430SOL     OW 7578   2.702   1.936   0.543 -0.1641  0.1796  0.2874
 2430SOL    HW1 7579   2.767   1.861   0.536  1.5389  1.5970  0.1644
 2430SOL    HW2 7580   2.614   1.908   0.505  0.5896 -1.5314 -0.3016
 2431SOL     OW 7581   0.820   2.328   0.843 -0.0825 -0.0446 -0.1564
 2431SOL    HW1 7582   0.822   2.391   0.921  1.7502 -1.1947  0.8089
 2431SOL    HW2 7583   0.831   2.379   0.758  0.5009  1.0258  0.5430
 2432SOL     OW 7584   2.470   5.360   2.781 -0.6880 -0.5831 -0.1069
 2432SOL    HW1 7585   2.486   5.281   2.840 -1.9695 -2.2167 -1.7855
 2432SOL    HW2 7586   2.534   5.433   2.804  2.0142 -2.8533  0.2054
 2433SOL     OW 7587   2.329   5.806   1.836 -0.8247 -0.4717  0.3647
 2433SOL    HW1 7588   2.371   5.759   1.913  0.1444 -0.5046 -0.1602
 2433SOL    HW2 7589   2.319   5.903   1.857  0.0843 -0.3512  0.2820
 2434SOL     OW 7590   3.894   0.588   4.014  0.4786 -0.2271  0.3999
 2434SOL    HW1 7591   3.936   0.666   3.967 -0.3013  1.0726  1.7753
 2434SOL    HW2 7592   3.848   0.530   3.947  1.3550  0.3031 -0.6955
 2435SOL     OW 7593   3.730   1.680   2.102 -0.0034  0.0680 -0.2691
 2435SOL    HW1 7594   3.683   1.768   2.104  1.7398  1.0759  2.7932
 2435SOL    HW2 7595   3.675   1.613   2.153 -0.3575 -0.0978 -0.8541
 2436SOL     OW 7596   2.724   0.312   2.993 -0.2861 -0.6774  1.0279
 2436SOL    HW1 7597   2.696   0.408   2.991  0.6970 -0.3868  0.3122
 2436SOL    HW2 7598   2.682   0.264   2.916  2.9542  0.3402 -1.6426
 2437SOL     OW 7599   3.567   0.524   2.941  0.1783 -0.5760 -0.5928
 2437SOL    HW1 7600   3.624   0.480   3.011 -0.4033  0.1333  0.3359
 2437SOL    HW2 7601   3.528   0.608   2.977  0.5163  0.2369 -2.0419
 2438SOL     OW 7602   4.743   2.201   3.301  0.7018 -0.1745  0.3516
 2438SOL    HW1 7603   4.645   2.195   3.321  1.2658  0.7024  4.2670
 2438SOL    HW2 7604   4.756   2.235   3.208 -2.7698  2.2791  0.5680
 2439SOL     OW 7605   2.979  -0.005   3.017  0.0717 -1.1851  0.7674
 2439SOL    HW1 7606   2.893  -0.010   2.967 -0.0167  2.3423  0.2529
 2439SOL    HW2 7607   2.966   0.048   3.102  1.9353  1.1025 -0.2279
 2440SOL     OW 7608   2.057   1.493   2.312  0.0801  0.4010  0.3404
 2440SOL    HW1 7609   2.100   1.406   2.340 -2.8408 -0.6166  2.1499
 2440SOL    HW2 7610   2.120   1.568   2.332  2.8108 -1.2136 -1.4856
 2441SOL     OW 7611   3.432   1.882   4.197 -0.4762 -0.3559  0.3658
 2441SOL    HW1 7612   3.341   1.841   4.194 -0.7767  0.3379 -0.7206
 2441SOL    HW2 7613   3.500   1.811   4.178 -0.6622 -1.1199  2.3047
 2442SOL     OW 7614   5.999   0.554   2.425  0.3570 -0.3550  0.0028
 2442SOL    HW1 7615   5.905   0.538   2.455  0.7307 -1.2945  0.7577
 2442SOL    HW2 7616   6.059   0.556   2.505  0.9418  0.5482 -0.4442
 2443SOL     OW 7617   3.904   1.827   2.664  0.4189  0.0004  0.1199
 2443SOL    HW1 7618   4.002   1.842   2.650  0.1225  1.4208 -0.5351
 2443SOL    HW2 7619   3.872   1.756   2.601  1.5885 -2.7937  2.4222
 2444SOL     OW 7620   1.849   1.341   3.936 -0.1277  0.7181  0.1307
 2444SOL    HW1 7621   1.875   1.305   4.025  0.1109  1.0664  0.2036
 2444SOL    HW2 7622   1.862   1.271   3.866  4.5718  1.8609 -0.4642
 2445SOL     OW 7623   4.365   0.281   2.267  0.2002 -0.3797  0.3028
 2445SOL    HW1 7624   4.400   0.191   2.241 -3.4272 -2.3647  1.5506
 2445SOL    HW2 7625   4.318   0.322   2.189  1.6672  0.3947 -0.2035
 2446SOL     OW 7626   2.250   1.920   3.016  0.2278  0.1020  0.3988
 2446SOL    HW1 7627   2.334   1.955   2.974  0.8648 -0.3559  1.2633
 2446SOL    HW2 7628   2.197   1.868   2.949  1.1112 -0.4120  0.0951
 2447SOL     OW 7629   3.569   1.603   2.788  0.0604  0.5280  0.3432
 2447SOL    HW1 7630   3.498   1.577   2.853  1.3301 -0.0590  1.5594
 2447SOL    HW2 7631   3.595   1.524   2.733  1.5862 -0.0002  1.7406
 2448SOL     OW 7632   2.311   1.167   1.718  0.0032  0.0239  0.6538
 2448SOL    HW1 7633   2.357   1.147   1.805  0.7725  0.9292  0.4739
 2448SOL    HW2 7634   2.252   1.248   1.731 -0.8492 -0.5848  0.6461
 2449SOL     OW 7635   3.324   0.340   4.400 -0.1056 -0.0149  0.1952
 2449SOL    HW1 7636   3.398   0.390   4.354 -0.8042  0.5504 -0.3406
 2449SOL    HW2 7637   3.348   0.244   4.408  0.4490  0.0632 -0.4762
 2450SOL     OW 7638   2.492   1.311   3.524  0.4730 -0.2085  0.6164
 2450SOL    HW1 7639   2.561   1.353   3.465 -0.2466  1.0024  0.6020
 2450SOL    HW2 7640   2.430   1.255   3.469 -1.8695  3.0485 -0.3819
 2451SOL     OW 7641   1.299   1.558   0.818 -0.4358 -0.3240  0.6577
 2451SOL    HW1 7642   1.375   1.521   0.763  0.2660  0.6634  0.9509
 2451SOL    HW2 7643   1.331   1.578   0.910 -0.5692  1.7357  0.3044
 2452SOL     OW 7644   2.771   5.146   3.745 -0.5868 -0.0896  0.0024
 2452SOL    HW1 7645   2.851   5.085   3.742 -0.1261  0.5133 -0.2252
 2452SOL    HW2 7646   2.703   5.108   3.808 -1.5536 -2.3384 -2.2190
 2453SOL     OW 7647   1.444   5.500   1.654  0.2964 -0.2890  0.0300
 2453SOL    HW1 7648   1.502   5.429   1.615 -0.5890 -0.9345 -0.1468
 2453SOL    HW2 7649   1.469   5.589   1.616  0.8387 -0.6238 -0.4084
 2454SOL     OW 7650   4.902   1.434   2.760 -0.4316  0.3326 -0.5638
 2454SOL    HW1 7651   4.998   1.461   2.766 -1.0154  2.3195  0.5036
 2454SOL    HW2 7652   4.890   1.345   2.803  0.9291  0.0431 -0.7437
 2455SOL     OW 7653   1.798   0.720   2.213 -0.3885 -0.4997  0.3064
 2455SOL    HW1 7654   1.810   0.817   2.231  0.5247 -0.5993  0.2952
 2455SOL    HW2 7655   1.722   0.707   2.150  0.5055  0.3449 -1.0021
 2456SOL     OW 7656   3.615   1.006   2.119  0.3029 -0.3113  0.0236
 2456SOL    HW1 7657   3.627   1.094   2.165 -0.6020 -0.6111  0.8603
 2456SOL    HW2 7658   3.520   0.975   2.129  0.7889 -1.7680  0.4656
 2457SOL     OW 7659   1.748   1.736   1.712 -0.0198  0.6123 -0.0279
 2457SOL    HW1 7660   1.686   1.752   1.635 -0.9404  0.9381  0.7566
 2457SOL    HW2 7661   1.773   1.639   1.715 -0.5314  0.4676 -0.3349
 2458SOL     OW 7662   3.635   5.396   3.587 -0.4224  0.4690 -0.0053
 2458SOL    HW1 7663   3.598   5.305   3.609  0.2519 -0.1692 -1.3692
 2458SOL    HW2 7664   3.699   5.388   3.511  0.4224  1.9578  0.5077
 2459SOL     OW 7665   2.811   0.659   3.474 -0.7140  0.1819  0.6901
 2459SOL    HW1 7666   2.726   0.607   3.465 -1.4879  1.7109 -1.7373
 2459SOL    HW2 7667   2.850   0.676   3.383  0.1794  2.6721  1.4444
 2460SOL     OW 7668   3.452   0.761   3.049 -0.1695 -0.7522 -0.0721
 2460SOL    HW1 7669   3.448   0.860   3.030  1.6822 -1.0207 -2.2471
 2460SOL    HW2 7670   3.524   0.743   3.116 -1.5342 -0.5430  1.5195
 2461SOL     OW 7671   3.166   0.628   3.813 -0.0961 -0.2889  0.1560
 2461SOL    HW1 7672   3.069   0.631   3.835  0.1011 -2.3361  1.6354
 2461SOL    HW2 7673   3.193   0.713   3.769 -2.0616  1.2764  1.7878
 2462SOL     OW 7674   1.897   1.181   3.688 -0.3624 -0.4873  0.2387
 2462SOL    HW1 7675   1.970   1.132   3.736 -2.2645 -3.1123  0.6356
 2462SOL    HW2 7676   1.931   1.212   3.599  1.3615 -1.1919  0.6164
 2463SOL     OW 7677   2.434   1.680   1.422 -0.2223  0.8369  0.3231
 2463SOL    HW1 7678   2.449   1.701   1.519  2.8525 -0.8088  0.3442
 2463SOL    HW2 7679   2.400   1.586   1.414 -0.5491  0.9992 -0.2052
 2464SOL     OW 7680   3.499   1.776   2.600 -0.0402 -0.1941  0.8416
 2464SOL    HW1 7681   3.567   1.848   2.587 -0.6211  0.2003 -0.0958
 2464SOL    HW2 7682   3.530   1.713   2.671  1.9267 -0.7429 -0.4134
 2465SOL     OW 7683   1.613   0.504   4.588  0.6424  0.4648 -0.1356
 2465SOL    HW1 7684   1.623   0.505   4.688 -3.3215 -2.2972  0.5415
 2465SOL    HW2 7685   1.611   0.598   4.554  0.2406  1.5832  2.6813
 2466SOL     OW 7686   2.809   1.180   2.350  0.5232  0.0732  0.1958
 2466SOL    HW1 7687   2.779   1.097   2.303 -0.6093 -0.0412  1.0585
 2466SOL    HW2 7688   2.905   1.197   2.331  0.3176 -0.4351 -1.4459
 2467SOL     OW 7689   3.417   1.625   3.276  0.1143  0.2624 -0.2627
 2467SOL    HW1 7690   3.321   1.618   3.303 -0.3972  0.5549 -1.9323
 2467SOL    HW2 7691   3.471   1.655   3.355 -1.1999  0.4401  0.6081
 2468SOL     OW 7692   1.671   1.133   1.972 -0.0157  0.1728 -0.4385
 2468SOL    HW1 7693   1.751   1.095   1.926  0.1793 -0.9198  0.7357
 2468SOL    HW2 7694   1.643   1.217   1.926  1.7630  0.5592 -0.9071
 2469SOL     OW 7695   2.087   5.148   2.082 -0.2320 -0.0041  0.0828
 2469SOL    HW1 7696   2.112   5.245   2.070 -0.0255 -0.2125 -1.3445
 2469SOL    HW2 7697   2.061   5.110   1.994  0.8872 -1.5930  0.4007
 2470SOL     OW 7698   3.391   1.506   3.017 -0.1498  0.3102 -0.7974
 2470SOL    HW1 7699   3.439   1.420   2.995 -1.0035  0.3408 -3.0979
 2470SOL    HW2 7700   3.409   1.531   3.112 -0.6327 -2.8996  0.2592
 2471SOL     OW 7701   3.717   0.176   2.807  0.0082 -0.1988 -0.2876
 2471SOL    HW1 7702   3.719   0.130   2.896  0.7581 -1.3592 -0.8781
 2471SOL    HW2 7703   3.738   0.274   2.820  3.7487 -0.9231  0.5353
 2472SOL     OW 7704   4.736   0.511   4.122 -0.0790  0.2362  0.8332
 2472SOL    HW1 7705   4.686   0.425   4.118 -1.7681  1.2002 -0.2162
 2472SOL    HW2 7706   4.767   0.527   4.216 -1.4677 -0.5790  1.4714
 2473SOL     OW 7707   2.406   4.907   3.504 -0.0950  0.2253 -0.0571
 2473SOL    HW1 7708   2.458   4.900   3.589 -2.1637  0.1459  1.2721
 2473SOL    HW2 7709   2.398   5.003   3.478 -1.5956  0.5137  1.3026
 2474SOL     OW 7710   2.814   0.654   3.155 -0.1131  0.4742 -0.1641
 2474SOL    HW1 7711   2.811   0.560   3.188  0.0289  0.9899  1.4419
 2474SOL    HW2 7712   2.908   0.677   3.130 -0.0222  0.3699  0.0699
 2475SOL     OW 7713   1.948   1.642   4.201 -0.3578 -0.4069 -0.5596
 2475SOL    HW1 7714   1.987   1.566   4.150 -0.1872 -2.3232  2.2022
 2475SOL    HW2 7715   1.859   1.615   4.238 -0.1916  0.6327  0.6810
 2476SOL     OW 7716   2.269   5.933   3.454 -0.6574  0.2331  0.3597
 2476SOL    HW1 7717   2.300   5.838   3.462  0.8408  0.4494 -1.9611
 2476SOL    HW2 7718   2.180   5.935   3.409 -1.1620 -0.0964  1.3190
 2477SOL     OW 7719   2.488   2.010   4.131  0.2157  0.3280  0.0041
 2477SOL    HW1 7720   2.473   2.031   4.034  0.2126  0.6710  0.0762
 2477SOL    HW2 7721   2.477   1.912   4.146 -0.9653  0.4177 -0.1290
 2478SOL     OW 7722   1.759   0.125   1.494  0.1266  0.7277 -0.0122
 2478SOL    HW1 7723   1.731   0.119   1.398  0.1048  0.9869 -0.0238
 2478SOL    HW2 7724   1.771   0.033   1.532  0.1349  0.6256 -0.2638
 2479SOL     OW 7725   2.015   1.462   4.532 -0.0328 -0.2285  0.0043
 2479SOL    HW1 7726   2.109   1.432   4.550  0.4935 -0.2754 -2.4350
 2479SOL    HW2 7727   2.015   1.558   4.504 -0.8342  0.0196  0.8233
 2480SOL     OW 7728   3.390   1.108   3.021 -0.0036 -0.0899  0.5633
 2480SOL    HW1 7729   3.297   1.079   3.002  0.1070 -0.1784  0.1540
 2480SOL    HW2 7730   3.416   1.182   2.959  0.5696 -0.7982 -0.0698
 2481SOL     OW 7731   3.188   5.350   2.846  0.3095 -0.3530 -0.3243
 2481SOL    HW1 7732   3.131   5.417   2.798  0.6472 -1.2046 -1.9698
 2481SOL    HW2 7733   3.268   5.328   2.791  0.0828 -2.2960  0.0392
 2482SOL     OW 7734   1.830   0.436   2.259  0.1340  0.3361 -0.2305
 2482SOL    HW1 7735   1.923   0.403   2.250  0.6849  1.4173  1.0377
 2482SOL    HW2 7736   1.824   0.530   2.224  0.1292  1.1209  1.7024
 2483SOL     OW 7737   1.838   2.094   3.517  0.2438 -0.5270  0.2419
 2483SOL    HW1 7738   1.769   2.150   3.471  1.4477 -0.4107 -1.5004
 2483SOL    HW2 7739   1.912   2.072   3.453  0.3057 -3.2980  1.1348
 2484SOL     OW 7740   4.137   1.810   3.937 -0.2386 -0.2348  0.6114
 2484SOL    HW1 7741   4.189   1.826   4.021 -1.1169 -0.7246  1.2581
 2484SOL    HW2 7742   4.086   1.892   3.912  0.0314 -0.0863  0.5425
 2485SOL     OW 7743   3.373   5.925   3.492  0.7301 -0.0728 -0.3060
 2485SOL    HW1 7744   3.305   5.979   3.541  0.5348  0.1692 -0.8330
 2485SOL    HW2 7745   3.465   5.959   3.515  0.5749  1.2948 -1.5392
 2486SOL     OW 7746   1.158   0.016   1.766  0.0327 -0.2244  0.0103
 2486SOL    HW1 7747   1.143   0.107   1.730 -0.4847  0.4365  1.7726
 2486SOL    HW2 7748   1.076  -0.040   1.751  0.4153 -0.4680 -1.2252
 2487SOL     OW 7749   2.033   0.722   2.051  0.4986 -0.2944  0.6530
 2487SOL    HW1 7750   2.012   0.644   1.991 -0.7145  1.1968 -0.9884
 2487SOL    HW2 7751   1.957   0.736   2.114  0.4788 -0.1418  0.5955
 2488SOL     OW 7752   2.176   0.134   4.366  0.4394  0.7215 -0.4633
 2488SOL    HW1 7753   2.218   0.225   4.366  1.8505  0.1144  0.7174
 2488SOL    HW2 7754   2.247   0.065   4.350 -0.8214 -0.1258 -2.7927
 2489SOL     OW 7755   1.889   1.070   1.849 -0.4645  0.5177  0.3095
 2489SOL    HW1 7756   1.827   1.040   1.777 -2.7201  1.0843  1.8893
 2489SOL    HW2 7757   1.975   1.018   1.844 -1.9236 -1.9574 -0.5895
 2490SOL     OW 7758   1.746   0.225   4.167 -0.1420 -0.3761 -0.5800
 2490SOL    HW1 7759   1.823   0.177   4.211 -0.3964 -0.1354  0.1503
 2490SOL    HW2 7760   1.660   0.196   4.211 -0.5772 -1.3166 -1.9792
 2491SOL     OW 7761   3.246   0.952   2.487  0.7391 -0.0167  0.0222
 2491SOL    HW1 7762   3.258   1.036   2.435 -0.6474  0.7697  0.9074
 2491SOL    HW2 7763   3.181   0.892   2.440  1.5571 -0.5124 -0.4962
 2492SOL     OW 7764   2.289   0.067   1.940  0.0167 -0.1248 -0.2805
 2492SOL    HW1 7765   2.244   0.119   1.868 -0.4013 -0.4154 -0.2270
 2492SOL    HW2 7766   2.336   0.130   2.002  0.8756  0.0945 -1.1326
 2493SOL     OW 7767   3.433   0.248   2.061  0.1276  0.2530 -0.6398
 2493SOL    HW1 7768   3.341   0.261   2.099  0.0828 -0.7777 -0.3541
 2493SOL    HW2 7769   3.444   0.306   1.981 -0.7950  0.3508 -0.7133
 2494SOL     OW 7770   1.861   2.405   2.513 -0.0173 -0.3893 -0.1964
 2494SOL    HW1 7771   1.882   2.338   2.441  0.5525  0.7799 -1.1571
 2494SOL    HW2 7772   1.773   2.448   2.494 -0.1750 -0.5471  0.1755
 2495SOL     OW 7773   3.179   2.469   1.743  0.3837  0.6403  0.1012
 2495SOL    HW1 7774   3.146   2.402   1.676 -1.3004  0.2151  1.2700
 2495SOL    HW2 7775   3.278   2.462   1.751  0.2857 -1.6140  0.0437
 2496SOL     OW 7776   1.517   1.117   0.998 -0.3876  0.5814  0.3079
 2496SOL    HW1 7777   1.421   1.095   1.013  0.0693 -2.1580 -0.2433
 2496SOL    HW2 7778   1.531   1.136   0.900 -0.2716  0.2417  0.2552
 2497SOL     OW 7779   2.951   0.119   3.611 -0.5550 -0.2629 -0.1926
 2497SOL    HW1 7780   2.874   0.061   3.584 -2.6362  2.0945  0.3105
 2497SOL    HW2 7781   2.977   0.097   3.705 -0.9433 -0.7717 -0.1983
 2498SOL     OW 7782   3.254   5.590   0.886 -0.4257 -0.5164  0.0959
 2498SOL    HW1 7783   3.310   5.634   0.957  0.4337  1.0204 -1.4600
 2498SOL    HW2 7784   3.197   5.520   0.928 -0.8918  1.1702  2.5221
 2499SOL     OW 7785   1.821   5.605   3.329 -0.3026  0.5070 -0.0822
 2499SOL    HW1 7786   1.763   5.524   3.338 -0.2737  0.6693  2.0029
 2499SOL    HW2 7787   1.914   5.576   3.309  0.0447 -0.1433  2.1623
 2500SOL     OW 7788   2.328   0.810   3.016 -0.7407  0.3221 -0.5383
 2500SOL    HW1 7789   2.426   0.826   3.016 -0.4522 -1.2567 -1.2048
 2500SOL    HW2 7790   2.286   0.862   2.941 -0.6016  1.8745  0.4308
 2501SOL     OW 7791   3.606   0.685   3.850  0.0132 -0.7438  0.6948
 2501SOL    HW1 7792   3.677   0.685   3.780  0.8514 -2.2683  1.5018
 2501SOL    HW2 7793   3.556   0.771   3.845 -1.1432 -1.4430 -2.9094
 2502SOL     OW 7794   2.634   0.511   2.723  0.0570 -0.0214  0.1456
 2502SOL    HW1 7795   2.594   0.467   2.643 -1.4277  1.2990  0.1051
 2502SOL    HW2 7796   2.681   0.595   2.696  0.9848 -0.4197  0.4756
 2503SOL     OW 7797   3.213   0.587   3.120  0.3276  0.0128  0.0539
 2503SOL    HW1 7798   3.289   0.626   3.069 -0.0120  1.3149  0.5056
 2503SOL    HW2 7799   3.181   0.652   3.189 -2.1407  0.1246 -1.0653
 2504SOL     OW 7800   1.800   5.457   1.417  0.5513 -0.0973  0.5064
 2504SOL    HW1 7801   1.859   5.518   1.470  0.2385  1.1985 -0.6098
 2504SOL    HW2 7802   1.846   5.433   1.332  0.7515 -1.6159  1.0100
 2505SOL     OW 7803   4.133   1.256   3.017  0.6651 -0.0385 -0.3077
 2505SOL    HW1 7804   4.146   1.292   3.109 -1.0219  0.0884 -0.0861
 2505SOL    HW2 7805   4.051   1.199   3.014  0.9730 -0.4593 -1.6168
 2506SOL     OW 7806   1.362   5.535   0.770  0.1287  0.6512  0.1445
 2506SOL    HW1 7807   1.369   5.507   0.866 -0.2469  0.2937  0.0703
 2506SOL    HW2 7808   1.269   5.518   0.737 -0.4271  2.8794  0.3753
 2507SOL     OW 7809   2.168   5.465   1.270 -0.2098 -0.1330  0.5002
 2507SOL    HW1 7810   2.171   5.546   1.328 -0.6832  0.8106 -0.7443
 2507SOL    HW2 7811   2.073   5.440   1.252 -0.1039  0.1354 -0.5509
 2508SOL     OW 7812   2.818   0.887   3.630 -0.0762 -0.2864 -0.0861
 2508SOL    HW1 7813   2.847   0.883   3.725 -0.5627 -1.0317  0.0391
 2508SOL    HW2 7814   2.847   0.804   3.582  0.2157  0.1083 -0.6034
 2509SOL     OW 7815   2.133   0.995   2.341 -0.1640  0.1769 -0.4739
 2509SOL    HW1 7816   2.165   1.090   2.342  0.0831  0.2285 -3.5733
 2509SOL    HW2 7817   2.194   0.941   2.283 -0.9810 -1.6482  0.3068
 2510SOL     OW 7818   2.822   1.373   0.898  0.1197 -0.5343 -0.0540
 2510SOL    HW1 7819   2.893   1.373   0.969 -1.5488 -1.3837  1.7367
 2510SOL    HW2 7820   2.780   1.464   0.894 -0.8035 -0.8609  1.2333
 2511SOL     OW 7821   3.327   1.904   3.028  0.2331  0.1484 -0.2246
 2511SOL    HW1 7822   3.421   1.871   3.033  0.1562 -0.1381 -0.5900
 2511SOL    HW2 7823   3.312   1.974   3.097  0.2019 -1.0976  1.0856
 2512SOL     OW 7824   2.366   0.327   2.418  0.7595 -0.1041 -0.1852
 2512SOL    HW1 7825   2.457   0.364   2.434  1.3312 -0.8937 -1.4863
 2512SOL    HW2 7826   2.304   0.402   2.394  1.4882  0.2312 -1.0608
 2513SOL     OW 7827   1.869   0.999   2.322  0.1217  0.0519 -0.3786
 2513SOL    HW1 7828   1.968   0.986   2.317  0.3231  0.6159  1.2828
 2513SOL    HW2 7829   1.845   1.088   2.285  0.1057 -0.4307 -1.5764
 2514SOL     OW 7830   3.687   0.183   3.339 -0.5333  0.1770 -0.4976
 2514SOL    HW1 7831   3.685   0.127   3.256  0.1097  0.3970 -0.6664
 2514SOL    HW2 7832   3.637   0.269   3.323  1.7864  1.4107 -1.5489
 2515SOL     OW 7833   2.444   0.421   3.183  0.0419 -0.4068  0.1722
 2515SOL    HW1 7834   2.436   0.463   3.093  1.2245 -1.2677 -0.3655
 2515SOL    HW2 7835   2.428   0.322   3.175 -0.2816 -0.4319  0.9957
 2516SOL     OW 7836   1.191   0.053   2.041 -0.0791 -0.1518  0.5053
 2516SOL    HW1 7837   1.172   0.021   1.948 -2.4063  0.8525  0.5713
 2516SOL    HW2 7838   1.107   0.090   2.081  1.1317  0.4388  2.6253
 2517SOL     OW 7839   2.261   0.760   2.207 -0.2133  0.3318 -0.3691
 2517SOL    HW1 7840   2.342   0.740   2.152 -0.6056 -0.1393 -0.7794
 2517SOL    HW2 7841   2.179   0.755   2.150 -0.6059  0.0359  0.2071
 2518SOL     OW 7842   2.221   1.224   3.169 -0.3373 -0.3196  0.4224
 2518SOL    HW1 7843   2.299   1.190   3.222 -0.5365 -1.3642  0.0745
 2518SOL    HW2 7844   2.188   1.151   3.109 -0.8052  0.5021 -0.3367
 2519SOL     OW 7845   3.182   0.609   1.955  0.0394  0.4977 -0.4325
 2519SOL    HW1 7846   3.206   0.527   2.007  0.3862  0.8885  0.0421
 2519SOL    HW2 7847   3.265   0.648   1.914  0.1378  1.4979  0.6736
 2520SOL     OW 7848   1.840   0.350   1.595  0.1164 -0.0459 -0.0965
 2520SOL    HW1 7849   1.824   0.435   1.544  0.3473 -0.7134 -1.3219
 2520SOL    HW2 7850   1.813   0.272   1.538  0.5379 -0.8244  0.7553
 2521SOL     OW 7851   4.934   1.632   3.300 -0.3249  0.1188  0.0446
 2521SOL    HW1 7852   4.992   1.590   3.370 -0.7362  1.1893  1.0541
 2521SOL    HW2 7853   4.844   1.588   3.301  0.0927 -0.7945 -0.7715
 2522SOL     OW 7854   1.913   1.350   1.408  0.0862 -0.0446 -0.4505
 2522SOL    HW1 7855   1.984   1.284   1.431 -1.1034 -0.7727  1.4279
 2522SOL    HW2 7856   1.952   1.425   1.353  2.0893 -0.7885 -0.1119
 2523SOL     OW 7857   2.217   5.634   2.987 -0.7315  0.2317 -0.3355
 2523SOL    HW1 7858   2.191   5.728   3.011 -2.1447 -0.2348  0.0594
 2523SOL    HW2 7859   2.173   5.570   3.050 -1.7311 -0.8372 -2.0267
 2524SOL     OW 7860   4.617   0.782   2.983 -0.3505  0.1125  0.5085
 2524SOL    HW1 7861   4.671   0.802   3.065  1.4807 -0.1615 -0.5593
 2524SOL    HW2 7862   4.541   0.721   3.007  1.7867 -2.3359  1.5830
 2525SOL     OW 7863   2.618   0.752   3.020  0.2444 -0.1143  0.3021
 2525SOL    HW1 7864   2.549   0.681   3.002  0.3217 -0.1302  0.0728
 2525SOL    HW2 7865   2.680   0.720   3.091  0.2330 -0.2473  0.2528
 2526SOL     OW 7866   2.994   1.862   3.551  0.0911  0.5424 -0.3848
 2526SOL    HW1 7867   3.008   1.773   3.593  0.0928  1.1313  0.9237
 2526SOL    HW2 7868   2.896   1.882   3.545  0.0665  0.2210 -1.2217
 2527SOL     OW 7869   4.014   0.886   4.346  0.0011  0.3201 -0.1503
 2527SOL    HW1 7870   3.985   0.971   4.389  1.9024  0.8684  0.1487
 2527SOL    HW2 7871   4.102   0.900   4.301  1.0192 -1.8050  1.0277
 2528SOL     OW 7872   2.794   0.725   2.618 -0.1644 -0.1188  0.4117
 2528SOL    HW1 7873   2.890   0.699   2.631 -0.1038 -0.3893 -0.5470
 2528SOL    HW2 7874   2.776   0.810   2.668  0.4999 -0.2026  0.8122
 2529SOL     OW 7875   3.394   5.724   2.859 -0.1504 -0.1420 -0.1117
 2529SOL    HW1 7876   3.413   5.799   2.923 -0.5453 -0.5952  0.5544
 2529SOL    HW2 7877   3.471   5.661   2.859 -0.1475 -0.1387 -0.0857
 2530SOL     OW 7878   2.402   5.850   3.769 -0.4810 -0.0268 -0.3708
 2530SOL    HW1 7879   2.305   5.866   3.787 -0.4547  1.6486 -1.5086
 2530SOL    HW2 7880   2.442   5.931   3.726  1.7474 -0.1522  1.2720
 2531SOL     OW 7881   3.255   0.784   2.817 -0.1128 -0.1675  0.1112
 2531SOL    HW1 7882   3.185   0.741   2.761 -0.6854 -1.3845  1.7021
 2531SOL    HW2 7883   3.339   0.729   2.815 -0.0906 -0.1448  0.3482
 2532SOL     OW 7884   3.122   1.387   4.010  0.1230 -0.3147 -0.2739
 2532SOL    HW1 7885   3.066   1.322   3.958 -1.3426  1.9911 -1.7606
 2532SOL    HW2 7886   3.215   1.352   4.018 -1.0959 -3.6719  1.1162
 2533SOL     OW 7887   4.397   1.488   2.175  0.1611  0.5985  0.0505
 2533SOL    HW1 7888   4.331   1.562   2.179 -0.1165  0.3841 -0.3561
 2533SOL    HW2 7889   4.430   1.478   2.081 -0.3018 -0.2094 -0.0408
 2534SOL     OW 7890   1.188   1.799   2.795  0.3653  0.5453 -0.3226
 2534SOL    HW1 7891   1.186   1.705   2.761  0.6495  1.1072 -1.9941
 2534SOL    HW2 7892   1.283   1.831   2.799  0.3890  0.3956  1.4319
 2535SOL     OW 7893   2.342   0.058   2.491  0.1532  0.2065 -0.4403
 2535SOL    HW1 7894   2.330   0.018   2.400  2.1831  0.0775 -0.7042
 2535SOL    HW2 7895   2.360   0.156   2.482  1.9020 -0.0790 -0.3326
 2536SOL     OW 7896   2.386   1.257   2.822 -0.2585 -0.2922 -0.1820
 2536SOL    HW1 7897   2.305   1.204   2.846 -0.2023  0.8666  3.1337
 2536SOL    HW2 7898   2.413   1.313   2.901  1.9868  1.6675 -2.1943
 2537SOL     OW 7899   2.269   1.883   2.299  0.3755  0.2747  0.3614
 2537SOL    HW1 7900   2.231   1.964   2.345 -0.0265 -1.0297  2.4495
 2537SOL    HW2 7901   2.263   1.896   2.200  0.0567  2.6576  0.6156
 2538SOL     OW 7902   2.067   0.407   3.323 -0.2988 -0.0703  0.1734
 2538SOL    HW1 7903   2.097   0.502   3.318  0.7880 -0.4207 -0.0448
 2538SOL    HW2 7904   2.102   0.356   3.244  0.8513 -1.1265  1.3210
 2539SOL     OW 7905   3.880   5.944   2.182  1.4186  0.1119  0.2421
 2539SOL    HW1 7906   3.812   5.970   2.250  1.5621 -1.5487  1.0853
 2539SOL    HW2 7907   3.972   5.961   2.218  1.4954  1.5518 -0.5573
 2540SOL     OW 7908   2.032   0.629   1.449 -0.3607 -0.1078  0.4379
 2540SOL    HW1 7909   1.944   0.593   1.480 -0.5111  0.3084  0.4989
 2540SOL    HW2 7910   2.105   0.566   1.476 -0.6428 -0.4750  0.3516
 2541SOL     OW 7911   2.739   1.250   3.817  0.4113 -0.0142 -0.5034
 2541SOL    HW1 7912   2.737   1.173   3.881 -0.4828 -0.1912 -0.7343
 2541SOL    HW2 7913   2.653   1.253   3.766  0.9563  0.3633 -1.4155
 2542SOL     OW 7914   4.920   0.776   2.790  0.1138 -0.0393  0.3331
 2542SOL    HW1 7915   4.914   0.839   2.713  1.3055  0.6003  0.7281
 2542SOL    HW2 7916   4.852   0.800   2.858  0.0802  0.3760  0.1562
 2543SOL     OW 7917   4.002   5.757   3.311  0.4450 -0.0310 -0.5631
 2543SOL    HW1 7918   3.941   5.832   3.338  0.3012 -0.2158 -0.3769
 2543SOL    HW2 7919   3.951   5.692   3.254  0.0699 -0.9159  0.7315
 2544SOL     OW 7920   2.462   0.919   4.330 -0.3132  0.0973 -0.0017
 2544SOL    HW1 7921   2.466   0.879   4.421  1.3912 -0.0290 -0.0984
 2544SOL    HW2 7922   2.486   0.849   4.262 -1.6096  0.1728 -0.5780
 2545SOL     OW 7923   3.860   1.284   3.672 -0.6003  0.9534 -0.5125
 2545SOL    HW1 7924   3.957   1.309   3.672  0.3722 -2.2819  0.3412
 2545SOL    HW2 7925   3.841   1.224   3.595 -1.1555 -0.7478  0.8754
 2546SOL     OW 7926   3.872   5.832   2.491 -0.2912  0.6017 -0.2878
 2546SOL    HW1 7927   3.887   5.833   2.590  1.2932  0.8746 -0.4999
 2546SOL    HW2 7928   3.879   5.925   2.455 -0.1765  0.4235 -0.7413
 2547SOL     OW 7929   2.870   0.383   3.196 -0.2547 -0.4598  0.2671
 2547SOL    HW1 7930   2.839   0.348   3.107  0.0744 -0.2972  0.0851
 2547SOL    HW2 7931   2.947   0.327   3.228  0.3145  0.1224 -0.0533
 2548SOL     OW 7932   2.710   5.844   4.089 -0.1506 -0.3666 -0.1645
 2548SOL    HW1 7933   2.661   5.800   4.014 -0.0421 -0.1762 -0.3511
 2548SOL    HW2 7934   2.752   5.928   4.055 -1.6512  0.7208  0.5373
 2549SOL     OW 7935   1.806   2.207   3.040 -0.0418  0.4786 -0.1275
 2549SOL    HW1 7936   1.905   2.222   3.041 -0.1523  1.3134 -0.7242
 2549SOL    HW2 7937   1.759   2.295   3.031 -0.8655  0.1657  0.8623
 2550SOL     OW 7938   2.202   0.568   2.395 -0.1690  0.0775 -0.0918
 2550SOL    HW1 7939   2.217   0.647   2.336  0.0136  0.2356  0.1615
 2550SOL    HW2 7940   2.166   0.599   2.483 -0.1180 -0.1210  0.0003
 2551SOL     OW 7941   3.336   0.578   5.188 -0.1237 -0.3832  0.4444
 2551SOL    HW1 7942   3.310   0.584   5.092  0.2082 -0.1378  0.3692
 2551SOL    HW2 7943   3.314   0.487   5.223  2.4322 -1.5504 -0.6772
 2552SOL     OW 7944   2.717   1.682   3.391 -0.2851 -0.6899  0.0735
 2552SOL    HW1 7945   2.731   1.618   3.466  0.6270 -0.7099 -0.1087
 2552SOL    HW2 7946   2.720   1.775   3.425  0.4184 -0.6895  0.0285
 2553SOL     OW 7947   4.448   5.882   2.407  0.6593  0.1644 -0.1856
 2553SOL    HW1 7948   4.469   5.804   2.348 -0.1080  1.0179 -1.6248
 2553SOL    HW2 7949   4.368   5.860   2.464  0.8963 -0.3545 -0.0449
 2554SOL     OW 7950   1.869   1.242   4.180  0.0572 -0.1117 -0.3101
 2554SOL    HW1 7951   1.804   1.169   4.201  0.4058 -1.0982 -2.4626
 2554SOL    HW2 7952   1.962   1.210   4.197  0.1358  0.3517  0.1503
 2555SOL     OW 7953   2.865   2.219   3.261  0.2252 -0.1943 -0.0679
 2555SOL    HW1 7954   2.944   2.280   3.268  0.2515 -0.2958  0.5731
 2555SOL    HW2 7955   2.886   2.146   3.195  0.4059  0.1584 -0.4074
 2556SOL     OW 7956   4.611   2.123   3.686  0.6098 -0.3809 -0.4071
 2556SOL    HW1 7957   4.546   2.099   3.758 -0.0225 -0.9370 -1.1541
 2556SOL    HW2 7958   4.566   2.182   3.619  1.2009  0.1398 -0.3612
 2557SOL     OW 7959   2.541   0.889   3.631 -0.1040 -0.1879  0.1541
 2557SOL    HW1 7960   2.641   0.890   3.627 -0.0923 -0.7201  0.2641
 2557SOL    HW2 7961   2.509   0.976   3.667  0.3939 -0.5805  1.6299
 2558SOL     OW 7962   2.112   0.058   2.288 -0.4398 -0.5029  0.4802
 2558SOL    HW1 7963   2.133   0.043   2.385  0.9481 -0.7341  0.1536
 2558SOL    HW2 7964   2.180   0.012   2.231 -0.8442  0.2140 -0.6090
 2559SOL     OW 7965   2.336   0.840   3.447 -0.3804  0.1857 -0.2080
 2559SOL    HW1 7966   2.318   0.760   3.389 -0.0938 -0.3122  0.3809
 2559SOL    HW2 7967   2.413   0.821   3.507 -1.1417  0.4080  0.8638
 2560SOL     OW 7968   2.146   0.263   3.113 -0.0282 -0.4551  0.0680
 2560SOL    HW1 7969   2.237   0.230   3.088  0.5856  1.0569  0.1998
 2560SOL    HW2 7970   2.110   0.321   3.040  0.8421  2.1981  1.6224
 2561SOL     OW 7971   1.333   0.513   2.298  0.6409 -0.2864 -0.1885
 2561SOL    HW1 7972   1.408   0.570   2.265  2.9407 -2.7820  0.3688
 2561SOL    HW2 7973   1.315   0.533   2.394 -0.2746  1.1325 -0.6297
 2562SOL     OW 7974   3.020   5.417   1.715 -0.2921  0.1324  0.0772
 2562SOL    HW1 7975   2.981   5.325   1.725 -0.3779 -0.1828 -2.4968
 2562SOL    HW2 7976   3.030   5.459   1.805 -2.8434 -1.3057  1.1264
 2563SOL     OW 7977   3.251   0.902   4.421 -0.0678 -0.0529  0.0211
 2563SOL    HW1 7978   3.331   0.852   4.387  1.2997  1.1974  1.2587
 2563SOL    HW2 7979   3.250   0.899   4.521 -1.8860 -0.4626  0.0262
 2564SOL     OW 7980   1.965   4.611   4.540  0.3140 -0.0566 -0.7780
 2564SOL    HW1 7981   1.981   4.531   4.482  1.2254  0.4806 -1.2861
 2564SOL    HW2 7982   1.992   4.591   4.634 -1.3996 -1.0150 -0.4570
 2565SOL     OW 7983   1.686   0.619   2.452  0.2515  0.4577 -0.3502
 2565SOL    HW1 7984   1.683   0.522   2.429 -1.3071  0.4186 -0.1107
 2565SOL    HW2 7985   1.732   0.669   2.379 -1.3637 -0.1239 -1.8487
 2566SOL     OW 7986   2.618   2.273   1.676  0.2359  0.2074  0.1466
 2566SOL    HW1 7987   2.518   2.266   1.679  0.3032 -0.5316  1.2901
 2566SOL    HW2 7988   2.656   2.189   1.641  0.4342  0.8999 -1.3600
 2567SOL     OW 7989   1.155   0.984   2.114 -0.6537  0.1593 -0.3107
 2567SOL    HW1 7990   1.177   0.891   2.145 -2.1324 -0.1515 -0.1379
 2567SOL    HW2 7991   1.210   1.004   2.032  1.7219  0.2061  1.1887
 2568SOL     OW 7992   3.397   5.279   2.678 -0.5063  0.6832 -0.4750
 2568SOL    HW1 7993   3.331   5.209   2.648 -0.2414 -0.2235  0.9647
 2568SOL    HW2 7994   3.464   5.237   2.738  0.0152  2.0828 -0.0519
 2569SOL     OW 7995   1.081   5.705   2.041  0.4038 -0.3790  0.2755
 2569SOL    HW1 7996   1.079   5.656   1.953 -1.5084 -0.4358  0.3152
 2569SOL    HW2 7997   0.989   5.733   2.066  0.7385 -1.2945  2.8147
 2570SOL     OW 7998   2.087   5.968   2.888 -0.9558  0.1114 -0.6573
 2570SOL    HW1 7999   2.018   5.915   2.840  0.5972 -1.7942 -0.9313
 2570SOL    HW2 8000   2.105   5.925   2.977 -0.4555  0.8538 -0.3921
 2571SOL     OW 8001   3.482   0.486   4.959 -0.2809 -0.0117 -0.4569
 2571SOL    HW1 8002   3.461   0.393   4.929 -0.0168 -0.1895 -0.1021
 2571SOL    HW2 8003   3.581   0.500   4.959 -0.2462 -0.1627  0.7380
 2572SOL     OW 8004   2.601   0.578   1.734  0.0541 -0.0744 -0.1717
 2572SOL    HW1 8005   2.547   0.519   1.793 -3.7530  3.1186 -0.0419
 2572SOL    HW2 8006   2.613   0.534   1.645  0.1344 -2.2234  0.8344
 2573SOL     OW 8007   4.276   1.686   4.503 -0.0853 -0.1133 -0.0903
 2573SOL    HW1 8008   4.285   1.725   4.595 -0.4789 -3.1596  1.3703
 2573SOL    HW2 8009   4.362   1.696   4.454 -0.2835  2.8564 -0.0551
 2574SOL     OW 8010   2.690   1.812   2.695 -0.1680  0.6569  0.1231
 2574SOL    HW1 8011   2.772   1.866   2.715 -0.3407  1.1347 -0.4225
 2574SOL    HW2 8012   2.633   1.807   2.777 -0.6086  2.1452 -0.0555
 2575SOL     OW 8013   3.544   5.473   2.019  0.2778 -0.3456  0.5876
 2575SOL    HW1 8014   3.575   5.378   2.020  2.0017  0.1244  3.3256
 2575SOL    HW2 8015   3.619   5.533   2.051 -0.3833  2.1117 -2.0231
 2576SOL     OW 8016   2.137   2.011   2.062  0.1119 -0.3444  0.1741
 2576SOL    HW1 8017   2.105   2.099   2.028 -0.3718 -0.7841 -0.5425
 2576SOL    HW2 8018   2.233   1.999   2.036  0.0870 -0.1689 -0.0043
 2577SOL     OW 8019   1.604   5.323   1.553  0.3074 -0.4837  0.2828
 2577SOL    HW1 8020   1.637   5.231   1.576  0.9743 -0.6434 -1.1855
 2577SOL    HW2 8021   1.683   5.382   1.533 -0.1809 -0.1777 -0.8281
 2578SOL     OW 8022   1.316   1.564   4.083  0.0319  0.0631 -0.1623
 2578SOL    HW1 8023   1.373   1.491   4.046 -2.0541 -1.3951 -0.6852
 2578SOL    HW2 8024   1.223   1.555   4.047 -0.5038  2.5073  0.4298
 2579SOL     OW 8025   4.317   1.047   2.129 -0.4184  0.1245  0.1772
 2579SOL    HW1 8026   4.304   1.115   2.057 -0.6149 -1.4307 -1.2994
 2579SOL    HW2 8027   4.232   1.039   2.182 -0.3596  1.0739  0.4476
 2580SOL     OW 8028   2.694   5.962   2.920 -0.4031  0.0527  0.6632
 2580SOL    HW1 8029   2.612   5.905   2.925  0.7315 -1.8412 -0.5199
 2580SOL    HW2 8030   2.684   6.029   2.846 -0.9472 -0.0590  0.6299
 2581SOL     OW 8031   4.231   1.830   3.080 -0.0899 -0.0719  0.5101
 2581SOL    HW1 8032   4.309   1.860   3.134  0.0391  0.0148  0.2801
 2581SOL    HW2 8033   4.174   1.768   3.133  0.9034 -1.2778  0.1943
 2582SOL     OW 8034   2.712   0.986   2.189  0.2705 -0.2959  0.1675
 2582SOL    HW1 8035   2.755   0.973   2.099 -0.4332 -0.2307 -0.1864
 2582SOL    HW2 8036   2.686   0.897   2.226  0.0546 -0.2779  0.0561
 2583SOL     OW 8037   0.499   0.874   2.443 -0.6106 -0.6305 -0.7465
 2583SOL    HW1 8038   0.583   0.826   2.417 -0.1992  0.2060 -0.9965
 2583SOL    HW2 8039   0.521   0.966   2.475 -1.1452 -1.4374  2.1898
 2584SOL     OW 8040   2.798   1.770   3.140 -0.3464 -0.1007  0.0782
 2584SOL    HW1 8041   2.835   1.705   3.074 -1.3150 -0.5608 -0.0141
 2584SOL    HW2 8042   2.775   1.723   3.225  0.2059  0.3657  0.5021
 2585SOL     OW 8043   3.903   0.098   2.440  0.4649 -0.2118  0.2186
 2585SOL    HW1 8044   3.991   0.131   2.407 -0.2188  0.9920 -0.4556
 2585SOL    HW2 8045   3.847   0.175   2.469 -0.6192 -0.9088  0.0372
 2586SOL     OW 8046   3.226   1.047   2.752  0.6118 -0.5834  0.1771
 2586SOL    HW1 8047   3.243   0.958   2.794  3.1700  0.4489  1.5373
 2586SOL    HW2 8048   3.242   1.041   2.654  0.9179 -1.5794  0.2781
 2587SOL     OW 8049   1.763   2.718   1.949  0.2063 -0.2922  0.3102
 2587SOL    HW1 8050   1.789   2.758   1.861  2.0471  0.3414  1.0899
 2587SOL    HW2 8051   1.769   2.619   1.944  1.0310 -0.2301 -0.0825
 2588SOL     OW 8052   3.578   0.118   2.582 -0.1351 -0.1818  0.2230
 2588SOL    HW1 8053   3.631   0.145   2.663 -1.4252  0.0362  1.0341
 2588SOL    HW2 8054   3.602   0.025   2.555 -0.2627 -0.5582  1.3596
 2589SOL     OW 8055   2.470   1.765   1.674 -0.4157 -0.1754  0.5953
 2589SOL    HW1 8056   2.464   1.864   1.661  1.0781 -0.0283  0.8817
 2589SOL    HW2 8057   2.554   1.743   1.723  0.3691 -1.7550 -1.3381
 2590SOL     OW 8058   2.170   0.928   2.601  0.5021 -0.0606 -0.1305
 2590SOL    HW1 8059   2.157   0.835   2.632  1.0812 -0.0794  0.0798
 2590SOL    HW2 8060   2.131   0.939   2.509 -0.2349 -0.2997  0.1570
 2591SOL     OW 8061   3.475   1.752   3.527 -0.2386 -0.1059  0.4810
 2591SOL    HW1 8062   3.400   1.817   3.515  0.3778  0.4604 -0.4663
 2591SOL    HW2 8063   3.495   1.741   3.624 -0.4122  1.0585  0.6611
 2592SOL     OW 8064   4.040   0.892   3.396 -0.8243 -0.5237  0.0093
 2592SOL    HW1 8065   3.944   0.915   3.378 -0.2678  0.8993 -1.4251
 2592SOL    HW2 8066   4.094   0.909   3.313  1.0988  1.3574  1.5270
 2593SOL     OW 8067   2.534   5.015   1.438 -0.8680  0.2224  0.2110
 2593SOL    HW1 8068   2.483   5.048   1.517 -1.6761 -1.8086  0.6008
 2593SOL    HW2 8069   2.514   5.073   1.359 -0.1749  2.1788  1.4112
 2594SOL     OW 8070   3.180   1.775   2.143 -0.0506 -0.0614 -0.0697
 2594SOL    HW1 8071   3.136   1.694   2.104  0.5907 -1.0139  1.1248
 2594SOL    HW2 8072   3.125   1.811   2.218  0.1007  0.0911 -0.0306
 2595SOL     OW 8073   2.741   1.171   3.240 -0.6377  0.1214 -0.2710
 2595SOL    HW1 8074   2.713   1.258   3.199 -0.3029  0.0555 -0.6392
 2595SOL    HW2 8075   2.748   1.183   3.340  0.3637  0.7926 -0.4053
 2596SOL     OW 8076   2.582   0.173   2.743  0.4397  0.5820 -0.5515
 2596SOL    HW1 8077   2.613   0.168   2.648 -0.7074  0.7365 -0.9430
 2596SOL    HW2 8078   2.487   0.143   2.749  0.3154  1.1280  0.4580
 2597SOL     OW 8079   2.431   1.508   1.746  0.2073  0.3868 -0.1143
 2597SOL    HW1 8080   2.338   1.477   1.725  0.5689  0.2151 -1.6316
 2597SOL    HW2 8081   2.440   1.604   1.720 -0.5525  1.5505  3.4361
 2598SOL     OW 8082   0.938   0.134   3.123  0.4816 -0.1376  0.2313
 2598SOL    HW1 8083   0.855   0.105   3.170 -0.4532  1.6400 -0.2205
 2598SOL    HW2 8084   0.916   0.156   3.028  1.1996  1.5253  0.4175
 2599SOL     OW 8085   3.249   1.888   2.594  0.2933  0.1891 -0.3685
 2599SOL    HW1 8086   3.177   1.821   2.613  0.9993  0.2496  3.0417
 2599SOL    HW2 8087   3.339   1.846   2.607  0.7872  1.3149 -0.0000
 2600SOL     OW 8088   1.827   0.346   3.416 -0.2472  0.2322  0.5861
 2600SOL    HW1 8089   1.921   0.375   3.399 -1.0157  1.6296 -1.6100
 2600SOL    HW2 8090   1.790   0.397   3.494  1.0644 -1.0651  2.1465
 2601SOL     OW 8091   2.968   0.382   4.143  0.0581 -0.4289 -0.2075
 2601SOL    HW1 8092   2.952   0.435   4.060 -1.1799  0.2590  0.4467
 2601SOL    HW2 8093   2.931   0.290   4.131 -0.2849 -0.2722 -0.3508
 2602SOL     OW 8094   3.052   0.657   2.666  0.3038 -0.0136  0.5426
 2602SOL    HW1 8095   3.101   0.632   2.583 -1.4551 -1.8239 -0.0238
 2602SOL    HW2 8096   3.034   0.575   2.721  0.7310  1.0398  2.3614
 2603SOL     OW 8097   3.128   0.581   3.535 -0.9131 -0.7596  0.1871
 2603SOL    HW1 8098   3.175   0.598   3.621  0.5901  0.7495 -0.8790
 2603SOL    HW2 8099   3.044   0.529   3.553  0.2367 -2.0230  2.3365
 2604SOL     OW 8100   2.192   0.771   1.700 -0.4025 -0.3529 -0.3486
 2604SOL    HW1 8101   2.224   0.795   1.608 -1.0480 -0.4338 -0.6003
 2604SOL    HW2 8102   2.171   0.855   1.750  1.1717 -0.2539  0.1857
 2605SOL     OW 8103   2.078   0.829   3.180 -0.2331 -0.5851  0.5282
 2605SOL    HW1 8104   2.167   0.798   3.149  0.5607  0.0085  2.0979
 2605SOL    HW2 8105   2.056   0.916   3.135 -0.3359 -1.0730 -0.3707
 2606SOL     OW 8106   2.394   5.159   3.424  0.2196  0.1601  0.3329
 2606SOL    HW1 8107   2.398   5.212   3.509  2.1314  2.5519 -1.1346
 2606SOL    HW2 8108   2.485   5.149   3.386 -0.3237 -2.7694 -0.3935
 2607SOL     OW 8109   1.432   0.898   2.652 -0.0438 -0.3441  0.0298
 2607SOL    HW1 8110   1.420   0.801   2.671  1.0480 -0.0827  2.3537
 2607SOL    HW2 8111   1.378   0.923   2.571 -0.7129 -2.7497 -0.3440
 2608SOL     OW 8112   3.539   1.301   2.879  0.2992  0.6361 -0.6430
 2608SOL    HW1 8113   3.601   1.302   2.958  0.7526  0.0220 -0.9860
 2608SOL    HW2 8114   3.577   1.242   2.808 -0.1794  1.0758 -1.2662
 2609SOL     OW 8115   2.593   5.508   1.460  0.2084  0.1442  0.3296
 2609SOL    HW1 8116   2.539   5.581   1.503 -1.7719 -0.0409 -1.6329
 2609SOL    HW2 8117   2.648   5.547   1.386  0.7191 -0.0790  0.5884
 2610SOL     OW 8118   1.945   0.908   0.825 -0.3929 -0.8046 -0.6001
 2610SOL    HW1 8119   1.962   0.989   0.770 -0.8983 -0.6928 -0.6030
 2610SOL    HW2 8120   1.874   0.928   0.892  1.2368 -0.4970  1.1013
 2611SOL     OW 8121   2.744   5.962   3.583 -0.2747  0.3844 -0.4762
 2611SOL    HW1 8122   2.673   6.012   3.633  0.8782  0.6401  0.9376
 2611SOL    HW2 8123   2.750   5.869   3.617 -2.0505 -0.6769 -2.7535
 2612SOL     OW 8124   3.844   1.810   3.582 -0.2876  0.0115  0.1541
 2612SOL    HW1 8125   3.794   1.783   3.499 -1.2341  0.2772  0.6211
 2612SOL    HW2 8126   3.817   1.902   3.609  0.2301  0.0384  0.5955
 2613SOL     OW 8127   2.270   5.669   2.192  0.0673  0.4444 -0.0359
 2613SOL    HW1 8128   2.356   5.624   2.168  0.3056  0.4061  0.8602
 2613SOL    HW2 8129   2.193   5.617   2.153  0.4006  0.0178 -0.1366
 2614SOL     OW 8130   4.114   1.909   3.556  0.0359  0.8353 -0.2555
 2614SOL    HW1 8131   4.027   1.860   3.555  1.0097 -1.0031  0.4211
 2614SOL    HW2 8132   4.190   1.844   3.551  1.4329  2.2289  1.3506
 2615SOL     OW 8133   2.745   1.911   3.529 -0.3561 -0.5463  0.3321
 2615SOL    HW1 8134   2.711   1.989   3.476  1.3577 -0.2083 -0.3599
 2615SOL    HW2 8135   2.678   1.885   3.598 -1.3386  0.9741 -0.0048
 2616SOL     OW 8136   3.329   0.290   3.809  0.0374 -0.2794 -0.1361
 2616SOL    HW1 8137   3.274   0.208   3.826 -0.9251  0.0344 -1.5624
 2616SOL    HW2 8138   3.319   0.353   3.886 -0.1114 -0.9964  0.4543
 2617SOL     OW 8139   3.480   5.172   3.172  0.8457 -0.1636  0.2783
 2617SOL    HW1 8140   3.494   5.091   3.115 -0.8331  0.6382 -1.3727
 2617SOL    HW2 8141   3.410   5.153   3.241  1.7118 -0.6156  1.0700
 2618SOL     OW 8142   1.594   0.508   1.931 -0.1015  0.6756  0.0528
 2618SOL    HW1 8143   1.508   0.461   1.911  0.5002 -0.4328  0.0114
 2618SOL    HW2 8144   1.671   0.447   1.911  0.7574  2.1029 -1.1698
 2619SOL     OW 8145   4.064   0.994   1.748  0.3057  0.2665  0.1561
 2619SOL    HW1 8146   4.065   0.899   1.717  0.7904 -0.3859  2.0352
 2619SOL    HW2 8147   3.970   1.028   1.747  0.4018  0.6720 -2.9764
 2620SOL     OW 8148   2.883   0.857   4.103  0.0486 -0.2861  0.5205
 2620SOL    HW1 8149   2.852   0.942   4.145  0.5641 -0.2766  0.8953
 2620SOL    HW2 8150   2.902   0.873   4.006 -1.9236 -0.5025  0.0580
 2621SOL     OW 8151   2.791   5.892   2.472 -0.1087  0.4772  0.2857
 2621SOL    HW1 8152   2.888   5.879   2.492 -0.1341 -0.0924  0.0548
 2621SOL    HW2 8153   2.739   5.817   2.513 -0.5023  0.9977  0.7656
 2622SOL     OW 8154   2.932   0.932   3.379  0.4144 -0.3319 -0.1605
 2622SOL    HW1 8155   2.859   0.926   3.447  1.8978  2.1513  1.8737
 2622SOL    HW2 8156   2.918   1.012   3.321  2.1752  1.2016  1.3467
 2623SOL     OW 8157   2.236   1.484   3.093 -0.5096 -0.1211 -0.7939
 2623SOL    HW1 8158   2.242   1.390   3.127 -1.3450 -0.1035 -0.5688
 2623SOL    HW2 8159   2.152   1.495   3.040 -0.4016  0.4908 -0.8485
 2624SOL     OW 8160   2.753   0.359   2.115 -0.8219 -0.0593 -0.0656
 2624SOL    HW1 8161   2.716   0.451   2.133  0.2838  0.6260 -1.1075
 2624SOL    HW2 8162   2.826   0.366   2.047 -1.2219 -1.8180 -0.7302
 2625SOL     OW 8163   4.326   1.071   2.935  0.2886 -0.5010  0.3631
 2625SOL    HW1 8164   4.324   1.119   3.023 -0.7412 -0.4945  0.3545
 2625SOL    HW2 8165   4.252   1.105   2.877  1.8410  0.5344 -1.0838
 2626SOL     OW 8166   2.562   1.861   2.956  0.7394  0.4942  0.0854
 2626SOL    HW1 8167   2.514   1.773   2.953  0.1038  0.8454 -0.4373
 2626SOL    HW2 8168   2.641   1.854   3.016  2.0244 -1.0735 -1.6994
 2627SOL     OW 8169   2.287   1.113   2.033  0.0750  0.1186 -0.1852
 2627SOL    HW1 8170   2.295   1.212   2.027  0.0584  0.2428  1.4107
 2627SOL    HW2 8171   2.373   1.075   2.066 -0.6136 -0.1559  1.3784
 2628SOL     OW 8172   2.544   1.009   3.114 -0.3805  0.2882  0.3410
 2628SOL    HW1 8173   2.626   1.062   3.136 -1.6250  2.8999 -0.9500
 2628SOL    HW2 8174   2.570   0.934   3.053  1.0619  1.0933 -0.1020
 2629SOL     OW 8175   3.728   4.808   2.310 -0.0893  0.2267 -0.4090
 2629SOL    HW1 8176   3.679   4.879   2.259  0.3251 -0.5143 -1.9154
 2629SOL    HW2 8177   3.825   4.810   2.285 -0.2410 -1.5077 -1.3366
 2630SOL     OW 8178   3.550   0.430   3.380 -0.6482 -0.3295 -0.5531
 2630SOL    HW1 8179   3.581   0.448   3.473  0.2613  1.0251 -1.0841
 2630SOL    HW2 8180   3.450   0.428   3.378 -0.6841 -2.2703  0.7515
 2631SOL     OW 8181   4.554   1.849   3.945 -0.1629  0.2627 -0.0187
 2631SOL    HW1 8182   4.572   1.781   4.016 -2.7899  0.6969  1.1957
 2631SOL    HW2 8183   4.504   1.805   3.870  1.6365  0.0515 -1.1491
 2632SOL     OW 8184   1.750   5.986   2.442 -0.7820 -0.0259 -0.2135
 2632SOL    HW1 8185   1.707   5.970   2.531  0.2351 -0.0081  0.2960
 2632SOL    HW2 8186   1.850   5.987   2.453 -0.6587  0.5319 -1.2631
 2633SOL     OW 8187   2.189   0.813   4.251 -0.3466 -0.5548  0.0800
 2633SOL    HW1 8188   2.284   0.817   4.285 -1.1078  0.8781  2.2897
 2633SOL    HW2 8189   2.142   0.735   4.293 -0.7362  0.0269  0.7372
 2634SOL     OW 8190   4.286   1.190   3.711 -0.1007 -0.8355  0.0561
 2634SOL    HW1 8191   4.238   1.190   3.623  0.6228 -0.9258 -0.3465
 2634SOL    HW2 8192   4.367   1.133   3.704  0.5680  0.0477  0.4453
 2635SOL     OW 8193   4.082   0.766   2.362  1.0793 -0.9336 -0.1830
 2635SOL    HW1 8194   4.157   0.804   2.416  2.2094 -1.4044 -1.3657
 2635SOL    HW2 8195   4.115   0.687   2.311 -0.1678 -0.9998 -0.9185
 2636SOL     OW 8196   1.758   1.243   2.201  0.1516  0.6347 -0.1767
 2636SOL    HW1 8197   1.724   1.212   2.113 -0.0518  1.0104 -0.2355
 2636SOL    HW2 8198   1.798   1.334   2.191  0.0746  0.7061  0.1281
 2637SOL     OW 8199   1.859   1.490   2.050 -0.0238  0.0083 -0.3461
 2637SOL    HW1 8200   1.773   1.540   2.058 -0.2028 -0.0896 -1.4500
 2637SOL    HW2 8201   1.913   1.502   2.133 -1.0148  0.2326  0.2793
 2638SOL     OW 8202   3.485   5.848   1.857 -0.2511 -0.4436  0.3691
 2638SOL    HW1 8203   3.440   5.937   1.869  0.8117  0.0404  0.9309
 2638SOL    HW2 8204   3.537   5.849   1.772  0.5956 -0.1371  0.8742
 2639SOL     OW 8205   3.419   0.029   2.854  0.3813  0.5732  0.4749
 2639SOL    HW1 8206   3.438   0.125   2.872 -1.1758  0.7254  1.4518
 2639SOL    HW2 8207   3.419   0.012   2.756 -0.4398  1.8114  0.2510
 2640SOL     OW 8208   3.571   5.529   2.843 -0.0445 -0.0540  0.4490
 2640SOL    HW1 8209   3.597   5.448   2.792 -0.7797 -0.7687  1.1726
 2640SOL    HW2 8210   3.580   5.511   2.941  1.4891  1.3306  0.6187
 2641SOL     OW 8211   0.964   0.823   1.889  0.3258 -0.5479  0.1148
 2641SOL    HW1 8212   0.907   0.884   1.835 -1.6127 -0.7962  1.7796
 2641SOL    HW2 8213   1.020   0.876   1.953  0.6929 -0.3982 -0.3244
 2642SOL     OW 8214   1.609   1.364   1.828 -0.3767  0.2627  0.0916
 2642SOL    HW1 8215   1.682   1.421   1.790  0.2440 -0.1812  0.5950
 2642SOL    HW2 8216   1.526   1.418   1.837 -0.2704  0.6278 -1.0009
 2643SOL     OW 8217   3.322   5.641   4.007  0.2872 -0.4258  0.0823
 2643SOL    HW1 8218   3.292   5.590   3.926 -0.3917  1.8543 -1.2004
 2643SOL    HW2 8219   3.312   5.739   3.989 -0.9857  0.1555  3.3430
 2644SOL     OW 8220   1.039   5.302   5.717 -0.1809 -0.1347  0.7527
 2644SOL    HW1 8221   1.127   5.314   5.762 -0.4257  1.5734  0.8566
 2644SOL    HW2 8222   1.016   5.205   5.713  1.2414 -0.5312  1.5921
 2645SOL     OW 8223   2.290   1.141   3.944  0.0977  0.3255 -0.2845
 2645SOL    HW1 8224   2.360   1.117   4.011  0.7336 -0.2961 -1.1488
 2645SOL    HW2 8225   2.252   1.058   3.903  0.8399  0.6905 -1.8050
 2646SOL     OW 8226   2.205   1.137   5.748 -0.2647  0.3667 -0.1231
 2646SOL    HW1 8227   2.157   1.052   5.770 -0.7022  0.8723  0.9342
 2646SOL    HW2 8228   2.141   1.205   5.715 -0.0615  0.6151 -0.0077
 2647SOL     OW 8229   3.511   2.348   3.338 -0.2771 -0.4387  0.1746
 2647SOL    HW1 8230   3.518   2.425   3.275  0.4930 -1.0880 -0.5565
 2647SOL    HW2 8231   3.595   2.295   3.335  0.2484  0.1295  2.5947
 2648SOL     OW 8232   2.135   5.934   3.853  0.1143 -0.3294  0.5345
 2648SOL    HW1 8233   2.093   5.867   3.914  0.7653 -0.5598  0.7344
 2648SOL    HW2 8234   2.076   6.015   3.848  0.0638 -0.2913  1.4920
 2649SOL     OW 8235   3.952   0.108   4.173  0.4430 -0.3712  0.0834
 2649SOL    HW1 8236   3.992   0.021   4.205  2.0522  0.1326 -0.4406
 2649SOL    HW2 8237   3.968   0.118   4.075 -0.9676 -0.0937 -0.1424
 2650SOL     OW 8238   1.532   1.521   5.062  0.4506 -0.1480 -0.5202
 2650SOL    HW1 8239   1.538   1.471   5.148  0.3107  1.4466  0.4553
 2650SOL    HW2 8240   1.439   1.515   5.026  0.3579 -0.3149 -0.2519
 2651SOL     OW 8241   3.254   1.539   4.407 -0.1778  0.4969  0.1727
 2651SOL    HW1 8242   3.218   1.587   4.486 -1.9766  0.3138 -0.4747
 2651SOL    HW2 8243   3.179   1.515   4.346  0.9176 -1.1587 -0.6107
 2652SOL     OW 8244   2.380   0.204   0.152 -0.3148  0.0577 -0.2602
 2652SOL    HW1 8245   2.447   0.264   0.196 -0.3336 -0.4776  0.5315
 2652SOL    HW2 8246   2.332   0.151   0.222 -0.0839 -1.1038 -0.9434
 2653SOL     OW 8247   3.015   1.992   0.827 -0.4189  0.3869  0.1816
 2653SOL    HW1 8248   3.091   1.961   0.769 -0.5330 -1.0670  0.7720
 2653SOL    HW2 8249   3.046   1.997   0.922 -0.5568  1.6589  0.1858
 2654SOL     OW 8250   2.077   1.865   5.514  0.2947  0.4649 -0.0514
 2654SOL    HW1 8251   1.988   1.907   5.495 -0.6863 -1.4646  0.0583
 2654SOL    HW2 8252   2.080   1.774   5.473  1.4928 -0.2710  1.5856
 2655SOL     OW 8253   2.737   1.505   5.653  0.3919  0.0033  0.4257
 2655SOL    HW1 8254   2.758   1.420   5.700  1.2092  0.4856  0.9538
 2655SOL    HW2 8255   2.643   1.532   5.672 -0.0665 -1.0685 -0.2181
 2656SOL     OW 8256   0.919   0.483   4.501 -0.9789 -0.4848  0.0398
 2656SOL    HW1 8257   0.886   0.389   4.491  0.9776 -1.2074 -0.0896
 2656SOL    HW2 8258   1.018   0.482   4.516 -0.3805  1.6723 -2.8494
 2657SOL     OW 8259   3.112   0.256   4.792  0.1551 -0.0943  0.1780
 2657SOL    HW1 8260   3.034   0.245   4.854  0.6754  0.6545  0.9883
 2657SOL    HW2 8261   3.184   0.307   4.838  1.9585 -2.4872  0.1606
 2658SOL     OW 8262   2.259   3.103   4.773 -0.0495 -0.3714  0.0163
 2658SOL    HW1 8263   2.171   3.110   4.726 -0.9090 -0.7836  1.4783
 2658SOL    HW2 8264   2.251   3.038   4.849  1.7651 -1.0652 -0.3341
 2659SOL     OW 8265   2.959   1.653   5.599  0.3055  0.3897  0.1055
 2659SOL    HW1 8266   2.886   1.586   5.604  0.3266  0.4748  2.2696
 2659SOL    HW2 8267   2.948   1.721   5.671  1.4234  1.5565 -0.7649
 2660SOL     OW 8268   3.474   2.041   4.999 -0.7363 -0.1712  0.6627
 2660SOL    HW1 8269   3.519   1.953   4.982  0.1890  0.3636  0.3035
 2660SOL    HW2 8270   3.511   2.083   5.082  1.3695  1.4643 -0.9811
 2661SOL     OW 8271   1.344   1.144   4.370 -0.7195  0.2860  0.1950
 2661SOL    HW1 8272   1.412   1.166   4.440  0.7938  0.9570 -1.4056
 2661SOL    HW2 8273   1.265   1.205   4.379  0.0918  1.3294  0.4657
 2662SOL     OW 8274   2.809   1.725   5.325 -0.2855  0.2342 -0.3504
 2662SOL    HW1 8275   2.873   1.741   5.400 -1.0887  1.5183  0.0956
 2662SOL    HW2 8276   2.789   1.812   5.279 -0.3003 -0.4338 -1.6568
 2663SOL     OW 8277   3.774   1.470   4.472  0.9069  0.4766 -0.2371
 2663SOL    HW1 8278   3.824   1.536   4.416 -1.0383  1.6033 -0.7531
 2663SOL    HW2 8279   3.747   1.392   4.416  1.8134 -0.0074 -0.0200
 2664SOL     OW 8280   4.240   5.031   5.495 -0.3467 -0.2618  0.0026
 2664SOL    HW1 8281   4.293   5.116   5.497  0.8080 -0.9195 -0.7783
 2664SOL    HW2 8282   4.162   5.042   5.433 -1.8903  1.1068  2.0794
 2665SOL     OW 8283   1.896   1.050   4.466  0.1638 -0.3826  0.2181
 2665SOL    HW1 8284   1.946   1.015   4.386  0.2754 -0.0087  0.1234
 2665SOL    HW2 8285   1.858   1.140   4.444  1.2046  0.2660  0.9806
 2666SOL     OW 8286   2.843   1.515   3.820 -0.5528 -0.0423  0.0142
 2666SOL    HW1 8287   2.883   1.561   3.899 -0.0377 -0.5364  0.0479
 2666SOL    HW2 8288   2.807   1.425   3.848 -0.4793 -0.1678 -0.2875
 2667SOL     OW 8289   2.926   1.098   4.236 -0.1268 -0.1340 -0.4597
 2667SOL    HW1 8290   3.018   1.081   4.199 -0.7438 -0.0092 -2.1362
 2667SOL    HW2 8291   2.923   1.190   4.275  0.5708 -0.2955 -0.0026
 2668SOL     OW 8292   2.865   1.352   4.338 -0.0849  0.2734  0.5026
 2668SOL    HW1 8293   2.930   1.325   4.409 -1.0032  0.5649  1.4771
 2668SOL    HW2 8294   2.867   1.452   4.328 -1.2859  0.4111  1.4525
 2669SOL     OW 8295   4.035   0.497   4.879 -0.3758  0.6247 -0.3390
 2669SOL    HW1 8296   4.096   0.437   4.931 -1.1402  0.9692  1.0229
 2669SOL    HW2 8297   4.066   0.504   4.785  1.0442 -0.0753  0.0576
 2670SOL     OW 8298   1.591   0.460   5.860  0.6103  0.1838  0.2413
 2670SOL    HW1 8299   1.550   0.371   5.878  1.0572  0.0673  0.7088
 2670SOL    HW2 8300   1.669   0.474   5.920  0.2446  1.1054  0.5236
 2671SOL     OW 8301   2.574   1.309   4.301  0.0071  0.0283 -0.3028
 2671SOL    HW1 8302   2.673   1.302   4.299 -0.0728 -1.2888 -0.9637
 2671SOL    HW2 8303   2.543   1.325   4.395  0.9096  2.2830 -0.3414
 2672SOL     OW 8304   3.099   1.323   5.761 -0.3125 -0.6094  0.0330
 2672SOL    HW1 8305   3.129   1.267   5.685  0.5723 -0.8443  0.5401
 2672SOL    HW2 8306   3.130   1.417   5.749 -1.7534 -0.2007 -0.7929
 2673SOL     OW 8307   3.627   5.891   4.474 -0.4308  0.3236  0.0932
 2673SOL    HW1 8308   3.683   5.948   4.534  0.3000  1.1692 -1.3340
 2673SOL    HW2 8309   3.643   5.918   4.379 -2.5601 -0.0732 -0.4191
 2674SOL     OW 8310   1.397   0.103   0.615  0.0831  0.1072 -0.0231
 2674SOL    HW1 8311   1.335   0.112   0.537  1.1179 -0.5258 -0.9584
 2674SOL    HW2 8312   1.404   0.190   0.662 -0.4419  0.5448 -0.7340
 2675SOL     OW 8313   3.239   0.876   3.707  0.0756 -0.5274  0.1394
 2675SOL    HW1 8314   3.279   0.942   3.770 -0.6471 -0.6468  0.7397
 2675SOL    HW2 8315   3.241   0.913   3.614  1.0008 -0.2820  0.2515
 2676SOL     OW 8316   2.935   1.140   5.156  0.5461  0.2774  0.3732
 2676SOL    HW1 8317   2.872   1.066   5.130 -0.0474  0.7473  0.4543
 2676SOL    HW2 8318   3.019   1.133   5.102 -0.3158  0.7275 -1.0792
 2677SOL     OW 8319   2.260   0.790   5.404 -0.8336 -0.4424 -0.4405
 2677SOL    HW1 8320   2.254   0.786   5.504  0.4482 -1.9793 -0.3745
 2677SOL    HW2 8321   2.205   0.716   5.365 -2.4087  0.9601 -0.9696
 2678SOL     OW 8322   3.660   1.079   5.586  0.3874 -0.0683  0.9104
 2678SOL    HW1 8323   3.715   0.996   5.578 -0.9399 -0.8447 -0.9984
 2678SOL    HW2 8324   3.706   1.144   5.647  2.4152 -1.4332  0.9336
 2679SOL     OW 8325   3.304   1.897   4.710 -0.5728 -0.3092  0.1100
 2679SOL    HW1 8326   3.327   1.812   4.758  1.4356  0.3690  0.4570
 2679SOL    HW2 8327   3.386   1.931   4.662 -1.0657  1.8796  0.7039
 2680SOL     OW 8328   2.985   5.553   2.678 -0.2515 -0.3947  0.2005
 2680SOL    HW1 8329   3.007   5.582   2.585  1.2994  0.3980  0.7682
 2680SOL    HW2 8330   3.011   5.626   2.742 -2.9706 -0.1548  1.1513
 2681SOL     OW 8331   3.352   0.977   4.675  0.0741 -0.0603  0.4418
 2681SOL    HW1 8332   3.419   0.907   4.649 -0.3970 -0.2321 -0.3558
 2681SOL    HW2 8333   3.395   1.044   4.736  0.8349 -0.4328  0.3249
 2682SOL     OW 8334   1.494   0.956   2.118  1.0066  0.0833 -0.0624
 2682SOL    HW1 8335   1.509   1.004   2.205 -1.5942  1.0257 -0.0554
 2682SOL    HW2 8336   1.533   1.011   2.044 -1.3665  2.0461  0.0180
 2683SOL     OW 8337   1.300   5.691   5.534 -0.0413  0.1866 -0.3212
 2683SOL    HW1 8338   1.338   5.783   5.519 -0.7633  0.2887 -1.6930
 2683SOL    HW2 8339   1.356   5.624   5.486 -0.3839  0.0905 -0.5857
 2684SOL     OW 8340   3.475   5.495   5.008  0.1412  0.3828 -0.4324
 2684SOL    HW1 8341   3.538   5.475   4.933  0.3311  1.1547 -0.4903
 2684SOL    HW2 8342   3.403   5.556   4.974 -1.5291 -1.6694 -0.7702
 2685SOL     OW 8343   2.504   1.642   5.135 -0.4110  1.0141 -0.1209
 2685SOL    HW1 8344   2.596   1.605   5.127 -0.4937  0.6841  0.4231
 2685SOL    HW2 8345   2.486   1.668   5.230 -1.5609 -0.7578  0.1954
 2686SOL     OW 8346   2.974   0.333   5.473  0.1473  0.0656 -0.0055
 2686SOL    HW1 8347   3.025   0.408   5.429 -0.4974 -0.5989 -2.0011
 2686SOL    HW2 8348   3.023   0.303   5.555  2.1237  0.5268 -0.9442
 2687SOL     OW 8349   3.224   2.649   4.586  0.0030 -0.0052 -0.3226
 2687SOL    HW1 8350   3.250   2.597   4.504  1.0408 -0.6079  0.3678
 2687SOL    HW2 8351   3.263   2.740   4.581  3.0149 -1.0976  0.9998
 2688SOL     OW 8352   2.572   0.209   3.961 -0.2197  0.2136  0.6693
 2688SOL    HW1 8353   2.658   0.192   4.009 -0.3262  0.0006  0.7890
 2688SOL    HW2 8354   2.499   0.155   4.004 -0.0111 -1.2142 -0.6859
 2689SOL     OW 8355   3.042   1.053   4.784  0.7121  0.6068  0.5153
 2689SOL    HW1 8356   2.966   1.045   4.720 -0.0211  2.1790  1.1307
 2689SOL    HW2 8357   3.127   1.028   4.738 -0.2001 -1.7739 -0.0277
 2690SOL     OW 8358   2.058   0.939   4.634  0.4395  1.0834 -0.0276
 2690SOL    HW1 8359   1.982   0.971   4.577 -1.4199 -1.3211  0.9075
 2690SOL    HW2 8360   2.029   0.937   4.730  1.7537  0.3454  0.3811
 2691SOL     OW 8361   4.242   0.532   5.311  0.0462  0.2462 -0.3237
 2691SOL    HW1 8362   4.329   0.570   5.281  1.5914 -1.5308  1.5635
 2691SOL    HW2 8363   4.258   0.445   5.359 -3.0062 -1.4706 -2.0935
 2692SOL     OW 8364   4.474   2.060   4.893  0.3994 -0.5994 -0.0865
 2692SOL    HW1 8365   4.405   2.132   4.884  0.6441 -0.1377  1.4041
 2692SOL    HW2 8366   4.562   2.094   4.859  1.0708  0.7281  2.7014
 2693SOL     OW 8367   2.342   0.198   4.818  0.4816 -0.0650  0.1665
 2693SOL    HW1 8368   2.332   0.145   4.902  0.4032  0.7401  0.6686
 2693SOL    HW2 8369   2.256   0.194   4.767  0.4056 -0.2425  0.3062
 2694SOL     OW 8370   3.272   1.426   5.348 -0.1290 -0.2307  0.0043
 2694SOL    HW1 8371   3.220   1.508   5.374  1.3101  0.1426  1.8914
 2694SOL    HW2 8372   3.288   1.427   5.249  2.5726  3.5536  0.2398
 2695SOL     OW 8373   2.584   1.186   4.787  0.0106 -0.2863 -0.0019
 2695SOL    HW1 8374   2.618   1.225   4.872 -1.6634  0.2452  0.4745
 2695SOL    HW2 8375   2.502   1.131   4.806 -2.7049  2.8560 -1.5828
 2696SOL     OW 8376   3.366   1.089   3.939  0.5981 -0.3409  0.2710
 2696SOL    HW1 8377   3.366   1.170   3.998  2.7623 -0.7904  0.9512
 2696SOL    HW2 8378   3.392   1.009   3.993  0.0026 -1.2442 -0.7435
 2697SOL     OW 8379   2.336   0.373   5.362  0.3477 -0.7813 -0.4662
 2697SOL    HW1 8380   2.406   0.442   5.344  0.1714 -0.4922 -0.0681
 2697SOL    HW2 8381   2.285   0.398   5.445 -0.9372 -0.4159 -1.3396
 2698SOL     OW 8382   1.934   1.773   2.489  0.2441 -0.2302  0.7657
 2698SOL    HW1 8383   1.988   1.755   2.408  1.0809  0.0221  1.2540
 2698SOL    HW2 8384   1.959   1.862   2.527  0.6419 -0.7982  1.8916
 2699SOL     OW 8385   3.467   1.363   4.864  0.3048 -0.0932 -0.1409
 2699SOL    HW1 8386   3.546   1.417   4.833  0.7541 -0.4800  0.3119
 2699SOL    HW2 8387   3.494   1.267   4.871 -0.5057 -0.3922 -0.9897
 2700SOL     OW 8388   1.725   1.491   4.664  0.0832  0.0559  0.3851
 2700SOL    HW1 8389   1.758   1.573   4.617 -2.0433 -0.9493 -3.2458
 2700SOL    HW2 8390   1.785   1.414   4.640  1.2032  0.1567  2.5905
 2701SOL     OW 8391   3.318   1.950   3.455  0.5179  0.0357 -0.4393
 2701SOL    HW1 8392   3.293   1.981   3.363 -0.7497 -0.0372 -0.1412
 2701SOL    HW2 8393   3.241   1.965   3.517  0.8793 -1.1362  0.3199
 2702SOL     OW 8394   2.409   0.688  -0.008  0.8971  0.2164  0.7761
 2702SOL    HW1 8395   2.347   0.737  -0.070 -0.4637 -0.4729  1.5274
 2702SOL    HW2 8396   2.403   0.729   0.084  0.0873 -1.0189  1.3021
 2703SOL     OW 8397   4.527   0.672   4.555  0.4640 -0.5380 -0.3711
 2703SOL    HW1 8398   4.468   0.594   4.576  0.1221 -0.5584 -1.3655
 2703SOL    HW2 8399   4.476   0.757   4.566  0.2276 -0.5583 -1.2905
 2704SOL     OW 8400   3.673   1.768   4.720 -0.1341  0.1474 -0.1547
 2704SOL    HW1 8401   3.762   1.781   4.676 -1.1655 -1.1607 -2.8615
 2704SOL    HW2 8402   3.614   1.846   4.700  0.5220  1.3617  2.2418
 2705SOL     OW 8403   3.540   0.416   4.286  0.1324  0.2066  0.6241
 2705SOL    HW1 8404   3.541   0.449   4.192 -0.4295  0.0767  0.5688
 2705SOL    HW2 8405   3.596   0.333   4.294  1.4237  1.0586  0.7311
 2706SOL     OW 8406   1.186   2.609   4.682 -1.1829  0.0254 -0.9893
 2706SOL    HW1 8407   1.126   2.563   4.748  0.4517  0.3025  0.7707
 2706SOL    HW2 8408   1.279   2.611   4.717 -0.3122  0.5480 -3.1770
 2707SOL     OW 8409   2.559   2.766   5.154 -0.1901 -0.0918  0.0560
 2707SOL    HW1 8410   2.512   2.736   5.070  1.9811 -0.2770 -1.1644
 2707SOL    HW2 8411   2.657   2.770   5.137  0.2174  0.8369  2.3468
 2708SOL     OW 8412   1.767   0.815   4.036  0.0783  0.3015 -0.0621
 2708SOL    HW1 8413   1.740   0.846   3.945 -3.7122 -0.9251  0.4550
 2708SOL    HW2 8414   1.769   0.715   4.039  0.2092  0.3204  1.1789
 2709SOL     OW 8415   3.182   0.761   0.521 -0.3807 -0.4917 -0.1355
 2709SOL    HW1 8416   3.100   0.816   0.538 -0.0468 -0.5331  1.8118
 2709SOL    HW2 8417   3.171   0.671   0.563  0.5827 -0.5694 -0.0282
 2710SOL     OW 8418   3.542   0.222   2.323 -0.2995 -0.4428  0.5950
 2710SOL    HW1 8419   3.505   0.193   2.235 -0.6167 -0.7254  0.8194
 2710SOL    HW2 8420   3.534   0.147   2.388  0.8140 -0.5579  0.6066
 2711SOL     OW 8421   1.687   5.332   4.819 -0.3259  0.4792  0.1102
 2711SOL    HW1 8422   1.762   5.279   4.857  1.4518  2.4421 -0.4457
 2711SOL    HW2 8423   1.635   5.374   4.893 -1.1825 -1.2018  0.5118
 2712SOL     OW 8424   3.302   1.360   5.082 -0.4808  0.2698 -0.1833
 2712SOL    HW1 8425   3.375   1.375   5.016 -0.2445 -0.4088 -0.0839
 2712SOL    HW2 8426   3.232   1.301   5.041 -0.1451 -0.4746  0.2933
 2713SOL     OW 8427   3.868   4.157   5.283  0.1213 -0.0027 -0.6325
 2713SOL    HW1 8428   3.835   4.225   5.218  0.1889 -1.2734 -2.0559
 2713SOL    HW2 8429   3.920   4.202   5.355  0.5542  1.4109 -1.7801
 2714SOL     OW 8430   2.402   1.521   4.245  0.5345 -0.8568  0.1929
 2714SOL    HW1 8431   2.466   1.444   4.241 -0.0603 -1.3120 -3.1355
 2714SOL    HW2 8432   2.453   1.607   4.252  1.3990 -1.3465  0.0053
 2715SOL     OW 8433   2.436   1.755   4.018 -0.3175 -0.1816  0.7909
 2715SOL    HW1 8434   2.336   1.758   4.019 -0.3069  1.7209  0.0690
 2715SOL    HW2 8435   2.466   1.662   3.995 -1.9731 -0.2983 -1.2130
 2716SOL     OW 8436   3.248   0.440   5.608 -0.4342  0.1170 -0.7377
 2716SOL    HW1 8437   3.209   0.367   5.663 -0.2887 -0.0303 -0.8279
 2716SOL    HW2 8438   3.236   0.527   5.655  2.0329 -0.2860  0.8311
 2717SOL     OW 8439   3.232   0.152   3.590 -0.2604  0.0553 -0.3260
 2717SOL    HW1 8440   3.265   0.229   3.646 -0.6019 -0.2644  0.3238
 2717SOL    HW2 8441   3.132   0.152   3.589 -0.2744  0.6790 -1.8163
 2718SOL     OW 8442   2.967   0.057   4.578 -0.7487 -0.6599  0.1430
 2718SOL    HW1 8443   2.959  -0.018   4.644  1.9604 -0.3291  0.9723
 2718SOL    HW2 8444   3.007   0.137   4.623  0.8271 -0.2850 -1.7847
 2719SOL     OW 8445   1.317   0.345   5.495  0.0536 -0.0636  0.1894
 2719SOL    HW1 8446   1.261   0.314   5.572  0.0940  1.0001  0.6721
 2719SOL    HW2 8447   1.402   0.385   5.530 -0.0066  0.5888 -0.3883
 2720SOL     OW 8448   3.239   0.638   5.772 -0.3820  0.3222 -0.1456
 2720SOL    HW1 8449   3.260   0.726   5.730  1.2988 -0.4857 -1.1168
 2720SOL    HW2 8450   3.318   0.608   5.827 -0.5832 -0.9486 -0.5146
 2721SOL     OW 8451   3.027   0.708   5.913  0.0947 -0.0945 -0.1275
 2721SOL    HW1 8452   3.098   0.681   5.848  0.8745  0.9065  0.2810
 2721SOL    HW2 8453   3.048   0.670   6.003 -0.8372 -1.2504 -0.3791
 2722SOL     OW 8454   2.881   0.670   5.200  0.4345 -0.0161 -0.2153
 2722SOL    HW1 8455   2.847   0.760   5.173  0.1241 -0.5189 -1.5979
 2722SOL    HW2 8456   2.876   0.607   5.122  2.8325 -0.6233  0.0111
 2723SOL     OW 8457   2.652   1.960   4.422  0.0338  0.0438 -0.4923
 2723SOL    HW1 8458   2.601   2.032   4.375  0.6516 -0.9990 -2.9211
 2723SOL    HW2 8459   2.631   1.963   4.519 -0.9004  2.6943 -0.6831
 2724SOL     OW 8460   3.756   0.450   4.517  0.3414 -0.2882 -0.1465
 2724SOL    HW1 8461   3.710   0.450   4.429  0.6002  1.8961 -0.3592
 2724SOL    HW2 8462   3.854   0.435   4.504  0.4474  0.4802 -0.3191
 2725SOL     OW 8463   2.967   0.972   0.014 -0.2224  0.4582  0.0237
 2725SOL    HW1 8464   3.004   0.887  -0.025  0.7688 -0.0981  2.0450
 2725SOL    HW2 8465   2.868   0.963   0.026 -0.0266 -0.7783  0.9574
 2726SOL     OW 8466   2.669   1.344   5.287 -0.0035  0.1826  0.3444
 2726SOL    HW1 8467   2.702   1.408   5.217  2.1357 -0.2232  0.9109
 2726SOL    HW2 8468   2.715   1.362   5.373  0.4962 -1.9674  0.5894
 2727SOL     OW 8469   3.723   0.686   4.702  0.2499 -0.3235  0.4086
 2727SOL    HW1 8470   3.735   0.640   4.790  2.2018 -2.5768 -0.9290
 2727SOL    HW2 8471   3.758   0.628   4.628 -0.8981  1.6693 -1.8559
 2728SOL     OW 8472   1.382   4.954   5.138 -0.2867  0.3045  0.8692
 2728SOL    HW1 8473   1.341   4.931   5.226 -0.1539  1.2080  1.1791
 2728SOL    HW2 8474   1.345   5.042   5.106  0.1895  0.3275  0.3615
 2729SOL     OW 8475   2.503   1.372   4.557 -0.0201 -0.0826 -0.2533
 2729SOL    HW1 8476   2.406   1.375   4.584  0.0504 -0.8661  0.1061
 2729SOL    HW2 8477   2.553   1.313   4.620  0.4814 -0.5576 -1.0858
 2730SOL     OW 8478   2.897   0.440   4.665 -0.3012 -0.6344  0.2704
 2730SOL    HW1 8479   2.883   0.526   4.714 -1.5578  0.1813 -1.3914
 2730SOL    HW2 8480   2.992   0.410   4.675  0.0430  0.7023  1.2469
 2731SOL     OW 8481   3.350   0.707   4.835  0.2276 -0.6886  0.5080
 2731SOL    HW1 8482   3.406   0.636   4.879 -0.4880 -1.8611 -0.4233
 2731SOL    HW2 8483   3.372   0.711   4.738 -0.7870 -0.6487  0.2717
 2732SOL     OW 8484   2.017   1.483   2.933 -0.0780 -0.1154  0.5516
 2732SOL    HW1 8485   2.008   1.447   2.840 -0.6984 -0.3895  0.7079
 2732SOL    HW2 8486   1.930   1.469   2.981  0.5069 -0.7479  1.4404
 2733SOL     OW 8487   3.039   2.131   4.448 -0.3061  0.3191 -0.0009
 2733SOL    HW1 8488   3.111   2.160   4.510 -1.0145  0.0461  0.9747
 2733SOL    HW2 8489   3.079   2.081   4.371  0.6309  1.1828 -0.0957
 2734SOL     OW 8490   4.632   5.183   2.719  0.0924  0.2557  0.0249
 2734SOL    HW1 8491   4.654   5.113   2.652  2.2651  2.6875 -2.0129
 2734SOL    HW2 8492   4.548   5.231   2.692  1.7335  2.2152 -2.0175
 2735SOL     OW 8493   2.397   5.943   3.216  0.0647  0.6625  0.1639
 2735SOL    HW1 8494   2.388   5.974   3.311 -1.4126 -1.5915  0.8457
 2735SOL    HW2 8495   2.475   5.881   3.209  1.0889  1.9884 -0.4691
 2736SOL     OW 8496   3.783   2.184   0.786  0.4672  0.3131  0.4768
 2736SOL    HW1 8497   3.692   2.144   0.774  0.7097 -0.3169  0.6902
 2736SOL    HW2 8498   3.844   2.150   0.715 -0.0402  2.6047 -1.1834
 2737SOL     OW 8499   2.934   0.774   5.483 -0.0881  0.4243  0.1549
 2737SOL    HW1 8500   2.883   0.745   5.402 -0.0853  0.4655  0.1386
 2737SOL    HW2 8501   3.023   0.729   5.485 -0.5440 -0.4930  0.7443
 2738SOL     OW 8502   4.045   2.380   4.983  0.4404 -0.5942 -0.3053
 2738SOL    HW1 8503   4.065   2.357   5.078 -0.7632  0.5552  0.2586
 2738SOL    HW2 8504   3.947   2.372   4.967  0.1335  2.3586 -0.5127
 2739SOL     OW 8505   3.709   1.334   5.305  0.8090 -0.1955 -0.2194
 2739SOL    HW1 8506   3.661   1.402   5.361  2.6149 -0.8871  2.3353
 2739SOL    HW2 8507   3.650   1.255   5.291  1.1251 -1.1737  3.1310
 2740SOL     OW 8508   3.574   1.098   5.296  0.0811  0.0970 -0.2559
 2740SOL    HW1 8509   3.481   1.061   5.299 -0.7395  2.0178 -0.7183
 2740SOL    HW2 8510   3.613   1.100   5.388 -1.0606  0.9983  0.2243
 2741SOL     OW 8511   2.601   5.456   5.258  0.0895  0.2655 -0.4114
 2741SOL    HW1 8512   2.689   5.413   5.275 -1.0394 -1.9274  0.3120
 2741SOL    HW2 8513   2.590   5.535   5.318  0.7771 -0.6068  0.9058
 2742SOL     OW 8514   2.993   2.848   1.509 -0.3101  0.1407 -0.3795
 2742SOL    HW1 8515   2.967   2.782   1.580 -2.3217  2.3361  1.1091
 2742SOL    HW2 8516   2.916   2.863   1.447  0.2678  0.7285 -0.9758
 2743SOL     OW 8517   2.299   0.635   3.244 -0.5059  0.1783  0.3881
 2743SOL    HW1 8518   2.303   0.675   3.153 -1.4952 -1.4475 -0.4153
 2743SOL    HW2 8519   2.352   0.550   3.247 -0.4648  0.2204  1.3291
 2744SOL     OW 8520   1.206   0.515   0.313  0.4904  0.5810 -0.4390
 2744SOL    HW1 8521   1.248   0.476   0.231 -0.8824  2.9024 -2.3671
 2744SOL    HW2 8522   1.247   0.604   0.333  0.2293  0.4227  0.9385
 2745SOL     OW 8523   4.506   1.007   5.334 -0.0255  0.0191 -0.5479
 2745SOL    HW1 8524   4.574   0.953   5.284  0.9050 -0.3736  1.0613
 2745SOL    HW2 8525   4.534   1.014   5.430 -0.3797  2.9476 -0.5855
 2746SOL     OW 8526   2.599   1.718   4.286 -0.3805  0.1386  0.3783
 2746SOL    HW1 8527   2.694   1.688   4.274  0.4606  2.9003 -0.6746
 2746SOL    HW2 8528   2.597   1.801   4.343 -2.0461  0.6737 -0.3905
 2747SOL     OW 8529   3.637   1.506   4.717  0.7839  0.8993 -0.5913
 2747SOL    HW1 8530   3.652   1.605   4.713  2.5716  0.6217 -1.6252
 2747SOL    HW2 8531   3.654   1.466   4.627  0.3493 -0.3987 -0.1226
 2748SOL     OW 8532   1.711   0.558   4.264  0.0896  0.0876  0.2825
 2748SOL    HW1 8533   1.686   0.642   4.313 -2.2087  0.8940 -2.0257
 2748SOL    HW2 8534   1.662   0.480   4.304  0.3296  0.2470  0.9035
 2749SOL     OW 8535   2.069   1.012   3.830 -0.7264 -0.0227 -0.3051
 2749SOL    HW1 8536   2.025   0.979   3.914 -0.4085 -1.5831 -0.7296
 2749SOL    HW2 8537   2.137   0.945   3.799  1.8989  2.2063  0.2339
 2750SOL     OW 8538   3.506   0.905   5.906 -0.6683 -0.5961 -0.2230
 2750SOL    HW1 8539   3.514   0.805   5.904  0.7602 -0.4986 -0.2444
 2750SOL    HW2 8540   3.448   0.935   5.830  0.5738 -1.2889 -1.5077
 2751SOL     OW 8541   2.945   0.540   4.368  0.2051  0.4762  0.4190
 2751SOL    HW1 8542   2.984   0.501   4.452 -0.2037  0.2471  0.5055
 2751SOL    HW2 8543   2.967   0.481   4.291  0.2131  0.4563  0.4362
 2752SOL     OW 8544   0.856   1.137   0.114  0.4630 -0.4586  0.8593
 2752SOL    HW1 8545   0.851   1.236   0.102  1.8475 -0.2455  1.8462
 2752SOL    HW2 8546   0.784   1.094   0.060  1.0687  0.9301 -1.1728
 2753SOL     OW 8547   1.496   0.516   5.615 -0.2290 -0.2733  0.3474
 2753SOL    HW1 8548   1.528   0.498   5.708 -1.4595 -1.3016  0.5925
 2753SOL    HW2 8549   1.446   0.602   5.613  1.7929  0.9741  0.1106
 2754SOL     OW 8550   4.136   1.218   4.313  0.0444 -0.4555  1.2118
 2754SOL    HW1 8551   4.121   1.309   4.273 -0.0380 -0.1670  1.8822
 2754SOL    HW2 8552   4.048   1.174   4.330  0.0797 -1.5957 -1.1339
 2755SOL     OW 8553   3.747   0.578   5.680 -0.1845 -0.4392  0.0045
 2755SOL    HW1 8554   3.668   0.524   5.650  1.1887 -2.0784 -0.8880
 2755SOL    HW2 8555   3.821   0.568   5.613  0.9302  0.7231  1.0096
 2756SOL     OW 8556   1.685   5.573   5.492  0.4967  0.0815  0.0617
 2756SOL    HW1 8557   1.636   5.580   5.405 -0.8533 -0.8180  0.7200
 2756SOL    HW2 8558   1.686   5.477   5.522  2.9316  0.0001 -0.0448
 2757SOL     OW 8559   0.829   2.202   5.115  0.3630 -0.1989 -0.3368
 2757SOL    HW1 8560   0.779   2.240   5.193  0.1489 -0.3649 -0.3922
 2757SOL    HW2 8561   0.798   2.247   5.031 -0.1864 -0.7734 -0.4524
 2758SOL     OW 8562   3.472   1.969   0.434  0.1445  0.2932 -0.0283
 2758SOL    HW1 8563   3.523   2.047   0.397 -2.4552  0.8969 -2.7489
 2758SOL    HW2 8564   3.452   1.904   0.361 -0.4567 -1.4081  1.5544
 2759SOL     OW 8565   3.426   5.593   4.414  0.5272 -0.1122  0.6386
 2759SOL    HW1 8566   3.365   5.664   4.448  0.6936  0.6554 -0.5957
 2759SOL    HW2 8567   3.377   5.506   4.409 -0.3913  0.4282 -0.0404
 2760SOL     OW 8568   2.046   1.226   5.093  0.1043 -0.9417 -0.3832
 2760SOL    HW1 8569   2.105   1.277   5.156 -1.7027  0.0834  0.5239
 2760SOL    HW2 8570   2.037   1.132   5.126  2.1776 -1.4926 -1.2110
 2761SOL     OW 8571   1.018   1.468   4.083 -0.6977  0.3207  0.1701
 2761SOL    HW1 8572   0.985   1.526   4.009 -3.2767  1.3796  2.0142
 2761SOL    HW2 8573   0.949   1.399   4.105 -0.4996  0.7319  2.2886
 2762SOL     OW 8574   2.353   0.070   4.029  0.1506 -0.0770 -0.1975
 2762SOL    HW1 8575   2.357   0.008   4.106 -0.7566 -1.1159 -0.9597
 2762SOL    HW2 8576   2.298   0.030   3.956  0.8456  0.9400 -1.3335
 2763SOL     OW 8577   3.850   0.307   5.839  0.2695 -0.3585 -0.1394
 2763SOL    HW1 8578   3.915   0.314   5.915  2.0775  0.0544 -1.6409
 2763SOL    HW2 8579   3.794   0.390   5.835 -0.2118 -0.6180  1.0471
 2764SOL     OW 8580   3.705   0.214   4.976  0.3583 -0.0285  0.1307
 2764SOL    HW1 8581   3.610   0.229   4.946  0.8058 -2.3099 -2.9036
 2764SOL    HW2 8582   3.767   0.262   4.914  1.2893  1.3147  2.0038
 2765SOL     OW 8583   2.695   1.044   3.970 -0.1446  0.0322 -0.3068
 2765SOL    HW1 8584   2.625   1.073   4.035  0.1578  3.5066 -1.3614
 2765SOL    HW2 8585   2.662   0.963   3.920 -1.4075 -1.1846  2.2960
 2766SOL     OW 8586   2.291   0.840   3.802  0.2826  0.6466  0.1053
 2766SOL    HW1 8587   2.330   0.826   3.710  0.0879  0.6041  0.0295
 2766SOL    HW2 8588   2.277   0.751   3.846 -2.8069  0.3955 -1.1320
 2767SOL     OW 8589   3.908   1.730   0.054 -0.3391  0.5739  0.2695
 2767SOL    HW1 8590   3.831   1.666   0.053  0.4024 -0.3251 -0.3732
 2767SOL    HW2 8591   3.906   1.782   0.140 -2.9490  2.1819 -0.6514
 2768SOL     OW 8592   4.554   1.976   0.384  0.2131  0.4447 -0.3644
 2768SOL    HW1 8593   4.641   1.955   0.340 -0.5547 -0.3870 -1.5473
 2768SOL    HW2 8594   4.488   2.007   0.315 -0.6115  0.4767  0.4163
 2769SOL     OW 8595   0.047   2.186   4.776 -0.6356 -0.4253  0.0488
 2769SOL    HW1 8596   0.018   2.108   4.720 -2.2105 -1.7054  2.4589
 2769SOL    HW2 8597  -0.034   2.238   4.804  0.2808  1.2627 -0.3158
 2770SOL     OW 8598   4.195   0.778   3.639 -0.2373 -0.1897  0.3458
 2770SOL    HW1 8599   4.138   0.823   3.709 -0.3536 -0.1841  0.2471
 2770SOL    HW2 8600   4.161   0.801   3.548 -0.1656 -0.3051  0.2892
 2771SOL     OW 8601   3.169   0.426   4.589 -0.2708  0.5806 -0.1026
 2771SOL    HW1 8602   3.164   0.356   4.660 -1.4544  0.7605  0.0267
 2771SOL    HW2 8603   3.223   0.392   4.513 -0.6207 -0.3946  0.0616
 2772SOL     OW 8604   3.909   1.107   4.462 -0.2364 -0.2583 -0.0245
 2772SOL    HW1 8605   3.936   1.156   4.545 -0.6627 -0.2911  0.1388
 2772SOL    HW2 8606   3.827   1.149   4.424 -0.8993 -1.1359  0.3996
 2773SOL     OW 8607   2.508   2.183   4.331 -0.7110  0.1695  0.2139
 2773SOL    HW1 8608   2.485   2.140   4.244 -2.2399  3.6219 -1.3109
 2773SOL    HW2 8609   2.584   2.248   4.317  0.2621 -0.5352  1.9305
 2774SOL     OW 8610   2.864   0.456   4.989  0.2235 -0.3898  0.0306
 2774SOL    HW1 8611   2.846   0.367   4.946 -1.4631  0.1834 -0.5647
 2774SOL    HW2 8612   2.852   0.529   4.921  1.4289  0.3187  0.5471
 2775SOL     OW 8613   3.288   5.688   4.921 -0.0349 -0.3004  0.4311
 2775SOL    HW1 8614   3.202   5.719   4.960 -1.9901  0.3311 -3.7458
 2775SOL    HW2 8615   3.273   5.600   4.874  1.4911 -0.0358 -0.6350
 2776SOL     OW 8616   3.132   4.755   5.110  0.1497 -0.4439  0.2387
 2776SOL    HW1 8617   3.182   4.668   5.103 -0.4737 -0.8431  0.6692
 2776SOL    HW2 8618   3.186   4.828   5.068  0.7045 -1.0303 -0.0812
 2777SOL     OW 8619   1.426   1.419   3.016 -0.1677 -0.0789  0.2363
 2777SOL    HW1 8620   1.332   1.448   3.036  0.4055  0.9136  1.6728
 2777SOL    HW2 8621   1.464   1.372   3.096  0.2027 -1.4991 -0.7381
 2778SOL     OW 8622   3.156   1.837   1.077  0.2048  0.1259 -0.4683
 2778SOL    HW1 8623   3.208   1.806   1.156 -0.7617 -0.5216 -0.0640
 2778SOL    HW2 8624   3.144   1.936   1.082  0.8322  0.1912 -0.2288
 2779SOL     OW 8625   2.635   2.192   4.733 -0.1909  0.1997 -0.2758
 2779SOL    HW1 8626   2.601   2.100   4.753 -0.7587  0.8863  2.2856
 2779SOL    HW2 8627   2.735   2.192   4.737 -0.1617 -0.4062 -0.8524
 2780SOL     OW 8628   3.949   5.895   5.755 -0.2868  0.2606 -1.0187
 2780SOL    HW1 8629   3.867   5.857   5.711 -0.4231 -0.8834  0.1684
 2780SOL    HW2 8630   3.961   5.990   5.726 -1.6337  0.2352 -1.7561
 2781SOL     OW 8631   1.725   1.189   5.205  1.3721  0.5001 -0.0093
 2781SOL    HW1 8632   1.647   1.224   5.257  1.7149 -0.1479  0.9613
 2781SOL    HW2 8633   1.808   1.203   5.258  1.6394 -0.8167 -0.0701
 2782SOL     OW 8634   2.829   1.697   0.493  0.4149  0.6317  0.1089
 2782SOL    HW1 8635   2.923   1.677   0.521  0.1158  0.4519  1.0433
 2782SOL    HW2 8636   2.770   1.619   0.515  0.2711  0.1717 -1.7597
 2783SOL     OW 8637   3.277   0.883   5.630 -0.6692 -0.5858 -0.4138
 2783SOL    HW1 8638   3.244   0.949   5.698  0.3196 -0.9853  0.4744
 2783SOL    HW2 8639   3.295   0.930   5.544 -0.7628  0.1491 -0.0379
 2784SOL     OW 8640   3.221   1.773   3.850 -0.1186  0.0750 -0.4135
 2784SOL    HW1 8641   3.144   1.725   3.807 -0.0270 -0.9604  0.5350
 2784SOL    HW2 8642   3.307   1.742   3.809 -0.0749 -0.4268  0.0422
 2785SOL     OW 8643   3.646   5.919   4.209  0.5778  0.6552  0.0736
 2785SOL    HW1 8644   3.607   5.834   4.172  0.6750  0.0531  1.2872
 2785SOL    HW2 8645   3.730   5.942   4.159  3.2772 -2.6111  2.5888
 2786SOL     OW 8646   1.782   1.457   0.102  0.4321 -0.0314 -0.5487
 2786SOL    HW1 8647   1.827   1.539   0.138  0.5836 -0.1066 -0.5668
 2786SOL    HW2 8648   1.842   1.414   0.033  1.0506 -1.0471  0.5856
 2787SOL     OW 8649   1.743   1.221   4.860  0.0885 -0.0723 -0.0231
 2787SOL    HW1 8650   1.724   1.318   4.879 -1.8471 -0.4497  0.1704
 2787SOL    HW2 8651   1.758   1.172   4.946  1.1344  0.0349 -0.1244
 2788SOL     OW 8652   2.516   1.901   5.048  0.0776 -0.5069 -0.7136
 2788SOL    HW1 8653   2.461   1.981   5.072  0.6385 -0.2498 -0.2318
 2788SOL    HW2 8654   2.473   1.818   5.084  1.2578 -0.0704  1.9840
 2789SOL     OW 8655   1.818   1.418   3.434 -0.1030 -0.2251  0.1862
 2789SOL    HW1 8656   1.824   1.487   3.362  0.8594 -0.1719  0.3165
 2789SOL    HW2 8657   1.907   1.374   3.446  0.6884  2.0084  3.6073
 2790SOL     OW 8658   1.206   1.552   0.369 -0.4697  0.0504 -0.1069
 2790SOL    HW1 8659   1.259   1.606   0.434 -0.4053 -0.6978  0.4774
 2790SOL    HW2 8660   1.259   1.540   0.285 -0.5709  1.0561 -0.3255
 2791SOL     OW 8661   3.525   1.949   5.315 -0.2285  0.2697  0.4124
 2791SOL    HW1 8662   3.567   1.921   5.401  0.6879  1.9994  0.5612
 2791SOL    HW2 8663   3.442   2.002   5.334  0.4147  1.3466  0.2740
 2792SOL     OW 8664   3.288   0.042   3.941 -0.6094  1.2480 -0.0052
 2792SOL    HW1 8665   3.353  -0.027   3.911 -0.8402  0.4249  1.3019
 2792SOL    HW2 8666   3.301   0.060   4.039 -0.6272  2.9841 -0.2817
 2793SOL     OW 8667   3.144   1.648   4.656  0.5075  0.4422  0.8777
 2793SOL    HW1 8668   3.215   1.717   4.643  0.1784  0.3077 -2.6256
 2793SOL    HW2 8669   3.054   1.692   4.648  0.2923 -0.2631 -1.6821
 2794SOL     OW 8670   3.260   2.157   4.610  0.1570  0.8184 -0.1189
 2794SOL    HW1 8671   3.308   2.207   4.683 -0.3250  0.0634  0.7314
 2794SOL    HW2 8672   3.265   2.059   4.629  0.8001  0.5403 -1.5918
 2795SOL     OW 8673   2.164   2.432   2.898  0.4575 -0.7142  0.4043
 2795SOL    HW1 8674   2.237   2.496   2.874 -1.2775  0.7390 -1.3621
 2795SOL    HW2 8675   2.078   2.462   2.857 -1.0187 -2.7748  1.7508
 2796SOL     OW 8676   2.117   1.780   0.277  0.0881  0.7843  0.3785
 2796SOL    HW1 8677   2.162   1.718   0.341  0.7096  0.5936 -0.2321
 2796SOL    HW2 8678   2.157   1.769   0.187 -0.4238  1.4280  0.0669
 2797SOL     OW 8679   4.280   5.919   4.746 -0.0127  0.2689  0.4039
 2797SOL    HW1 8680   4.364   5.919   4.801  0.2040 -0.0724  0.0786
 2797SOL    HW2 8681   4.205   5.958   4.799 -0.2014 -1.5208  1.5516
 2798SOL     OW 8682   4.843   5.504   4.373  0.6005  0.1441 -0.0065
 2798SOL    HW1 8683   4.824   5.525   4.277  0.6424 -0.2801 -0.1094
 2798SOL    HW2 8684   4.823   5.584   4.430 -0.0099  0.1987 -0.2952
 2799SOL     OW 8685   1.821   1.911   5.962 -0.2326  0.0190  0.6109
 2799SOL    HW1 8686   1.750   1.978   5.938 -0.3495 -0.4860 -0.5595
 2799SOL    HW2 8687   1.911   1.951   5.948 -0.2161  1.0463  3.1790
 2800SOL     OW 8688   4.316   1.598   5.158  0.1643 -0.7979  0.3565
 2800SOL    HW1 8689   4.260   1.556   5.087 -1.8552 -0.9565  1.9400
 2800SOL    HW2 8690   4.349   1.687   5.126  0.5043 -1.4796 -1.2763
 2801SOL     OW 8691   2.234   1.658   5.326  0.0019 -0.3499  0.4001
 2801SOL    HW1 8692   2.229   1.698   5.234  1.7307 -1.6096 -0.2958
 2801SOL    HW2 8693   2.330   1.654   5.355 -0.4402 -0.8340  1.8825
 2802SOL     OW 8694   3.130   1.708   3.091 -0.4847  0.0979 -0.0689
 2802SOL    HW1 8695   3.090   1.797   3.071  0.3600  0.1388 -1.7588
 2802SOL    HW2 8696   3.223   1.704   3.054  0.3383 -0.7111  1.9454
 2803SOL     OW 8697   3.967   1.638   0.387 -0.4372 -0.6036  0.1612
 2803SOL    HW1 8698   4.014   1.652   0.475  0.5604  0.9131 -0.5682
 2803SOL    HW2 8699   3.901   1.711   0.373  1.4913  0.9048 -1.6237
 2804SOL     OW 8700   3.873   0.057   0.389 -0.4876  0.4311  0.2327
 2804SOL    HW1 8701   3.780   0.024   0.405 -0.7127  0.0217 -1.6759
 2804SOL    HW2 8702   3.872   0.125   0.315  1.0347 -1.8822 -2.1027
 2805SOL     OW 8703   2.550   0.507   5.346 -0.3560 -0.0670  0.2793
 2805SOL    HW1 8704   2.590   0.490   5.436  0.1478  1.5569  0.3944
 2805SOL    HW2 8705   2.586   0.441   5.280 -0.7874 -1.3173  1.2725
 2806SOL     OW 8706   3.022   1.198   3.849  0.1247 -0.2573  0.1432
 2806SOL    HW1 8707   2.923   1.192   3.855  0.2138 -1.1636  0.8754
 2806SOL    HW2 8708   3.049   1.218   3.754 -0.7561  0.3439  0.0078
 2807SOL     OW 8709   2.489   1.808   5.987  0.5757  0.5379  0.1479
 2807SOL    HW1 8710   2.499   1.907   5.990  3.3112  0.3380 -0.0601
 2807SOL    HW2 8711   2.562   1.769   5.931 -0.0357 -1.6509  0.7863
 2808SOL     OW 8712   3.451   1.334   4.365  0.2495 -1.0092  0.6684
 2808SOL    HW1 8713   3.386   1.261   4.384 -0.0343 -0.5596  1.4878
 2808SOL    HW2 8714   3.409   1.422   4.387  1.4129 -0.7673  2.0679
 2809SOL     OW 8715   3.214   1.171   4.355 -0.1591 -0.4669  0.1702
 2809SOL    HW1 8716   3.228   1.073   4.370  0.6076 -0.5632 -1.0745
 2809SOL    HW2 8717   3.164   1.210   4.432  0.4109 -1.6389  1.1551
 2810SOL     OW 8718   1.453   0.834   5.299 -0.1449 -0.0606 -0.1784
 2810SOL    HW1 8719   1.373   0.894   5.310 -0.3464 -0.5632  1.2811
 2810SOL    HW2 8720   1.440   0.777   5.218 -1.6363 -0.6436  0.4286
 2811SOL     OW 8721   3.870   1.362   4.836 -0.4117 -0.6366 -0.5389
 2811SOL    HW1 8722   3.856   1.367   4.935  0.0659 -0.6297 -0.4722
 2811SOL    HW2 8723   3.789   1.399   4.789 -0.1112  0.5788 -0.1337
 2812SOL     OW 8724   4.726   2.217   2.972  0.3337  0.0563 -0.0036
 2812SOL    HW1 8725   4.753   2.311   2.990  0.2823  0.2991 -1.1070
 2812SOL    HW2 8726   4.684   2.211   2.881 -2.1738 -0.5479  1.1085
 2813SOL     OW 8727   2.616   0.124   4.771  0.3402 -0.8288  0.2056
 2813SOL    HW1 8728   2.522   0.157   4.778  0.6673 -0.0519  1.2698
 2813SOL    HW2 8729   2.616   0.024   4.767 -0.6388 -0.8023 -2.5944
 2814SOL     OW 8730   3.097   0.799   4.904  0.2121  0.0211 -0.0068
 2814SOL    HW1 8731   3.194   0.775   4.896  0.4743  0.2357  2.0460
 2814SOL    HW2 8732   3.088   0.893   4.936 -0.5466 -0.9011  2.7761
 2815SOL     OW 8733   3.423   5.710   5.670  0.3798  0.0790 -0.3094
 2815SOL    HW1 8734   3.392   5.766   5.593  0.8993 -1.3214 -1.5883
 2815SOL    HW2 8735   3.516   5.678   5.652 -0.1517 -1.7533  0.0474
 2816SOL     OW 8736   2.632   1.784   3.738 -0.3718  0.5032  0.3507
 2816SOL    HW1 8737   2.703   1.794   3.807  2.0368 -2.0972 -1.5327
 2816SOL    HW2 8738   2.554   1.736   3.776 -0.5561  2.0518  2.0574
 2817SOL     OW 8739   2.651   0.386   5.140  0.0488 -0.5376  0.2113
 2817SOL    HW1 8740   2.726   0.426   5.089  0.9260 -1.8149  0.4531
 2817SOL    HW2 8741   2.568   0.387   5.083  0.6525 -0.6316 -0.6965
 2818SOL     OW 8742   2.313   5.616   4.378  0.1848 -0.1172 -0.2793
 2818SOL    HW1 8743   2.365   5.564   4.445 -1.0793 -4.4116 -2.2744
 2818SOL    HW2 8744   2.231   5.655   4.421  0.2908 -1.2757  1.0243
 2819SOL     OW 8745   0.934   0.505   3.029 -0.0927 -0.1490  0.1340
 2819SOL    HW1 8746   1.023   0.485   3.068 -0.9095 -1.8520  1.2527
 2819SOL    HW2 8747   0.899   0.424   2.982 -0.6514  0.7939 -1.1497
 2820SOL     OW 8748   3.800   1.462   5.072 -0.0309 -0.0599  0.4612
 2820SOL    HW1 8749   3.752   1.403   5.137 -2.3649 -0.2946 -1.3445
 2820SOL    HW2 8750   3.844   1.537   5.122 -2.1510  0.0654  2.3209
 2821SOL     OW 8751   2.150   0.669   4.681 -0.3082  0.0157 -0.0033
 2821SOL    HW1 8752   2.200   0.663   4.595 -0.1933 -2.0636  0.1695
 2821SOL    HW2 8753   2.091   0.749   4.679 -0.6784 -0.2512 -2.2150
 2822SOL     OW 8754   3.542   0.469   4.020  0.5855  0.0453  0.2088
 2822SOL    HW1 8755   3.443   0.465   4.003  0.9096 -1.2411 -1.5511
 2822SOL    HW2 8756   3.581   0.546   3.971  1.0232 -1.8085 -2.5521
 2823SOL     OW 8757   2.815   1.098   4.648 -0.5800  0.0050 -0.0010
 2823SOL    HW1 8758   2.733   1.114   4.703 -1.5544 -1.9628 -0.7503
 2823SOL    HW2 8759   2.789   1.050   4.564  1.4379 -1.8299  0.3245
 2824SOL     OW 8760   3.424   1.448   3.838 -0.4724  0.6129  0.3167
 2824SOL    HW1 8761   3.500   1.384   3.825 -1.5513 -0.6707  0.1435
 2824SOL    HW2 8762   3.457   1.529   3.887  0.9895  0.0622  0.2960
 2825SOL     OW 8763   2.510   0.725   4.152  0.0525  0.3154  0.2912
 2825SOL    HW1 8764   2.598   0.692   4.186  0.6087  0.8636 -0.5631
 2825SOL    HW2 8765   2.520   0.753   4.056 -0.3712  2.8961  0.9237
 2826SOL     OW 8766   2.743   1.212   5.599  0.1342  0.3490 -0.2544
 2826SOL    HW1 8767   2.692   1.126   5.610 -0.2619  0.6388  0.2397
 2826SOL    HW2 8768   2.828   1.194   5.550  0.1809 -0.3779  0.0687
 2827SOL     OW 8769   1.664   0.509   4.848 -0.6113 -0.2732 -0.1627
 2827SOL    HW1 8770   1.761   0.514   4.872 -0.0284 -2.8728 -1.5601
 2827SOL    HW2 8771   1.613   0.471   4.926 -0.0791 -1.1017 -0.1991
 2828SOL     OW 8772   4.281   1.681   0.038  0.2831 -0.6827  0.7271
 2828SOL    HW1 8773   4.193   1.635   0.027  0.6205 -1.2217  0.2477
 2828SOL    HW2 8774   4.330   1.680  -0.049 -0.9280  3.2110 -0.2089
 2829SOL     OW 8775   4.387   0.058   3.108 -0.3348  0.4391  0.0041
 2829SOL    HW1 8776   4.360   0.147   3.144 -1.7512  0.4425 -0.9856
 2829SOL    HW2 8777   4.312  -0.007   3.121 -0.1691 -0.0308 -1.2692
 2830SOL     OW 8778   2.755   1.470   3.561  0.3513 -0.1348  0.3207
 2830SOL    HW1 8779   2.786   1.386   3.516  0.1226  0.9093 -1.9516
 2830SOL    HW2 8780   2.796   1.476   3.652  1.1747 -2.1895  0.1420
 2831SOL     OW 8781   3.563   0.167   5.377 -0.2411  0.0273  0.2153
 2831SOL    HW1 8782   3.637   0.102   5.362 -0.2463 -0.1968  1.1532
 2831SOL    HW2 8783   3.546   0.177   5.475 -0.0229  1.6813  0.1138
 2832SOL     OW 8784   4.105   0.506   4.608  0.0714 -0.5956 -0.5012
 2832SOL    HW1 8785   4.072   0.458   4.527  1.2875  1.6440 -2.4421
 2832SOL    HW2 8786   4.205   0.514   4.604  0.1489 -0.3172  1.1663
 2833SOL     OW 8787   2.463   1.538   3.833 -0.8171  0.5700 -0.2011
 2833SOL    HW1 8788   2.517   1.467   3.788 -3.3551 -1.4745 -0.2252
 2833SOL    HW2 8789   2.371   1.504   3.850 -1.2092  2.7598  2.7675
 2834SOL     OW 8790   2.022   0.937   4.089  0.1400 -0.5166 -0.3429
 2834SOL    HW1 8791   2.088   0.890   4.147  0.9128  1.2353  0.2704
 2834SOL    HW2 8792   1.931   0.899   4.103  0.4853 -0.8012  1.2422
 2835SOL     OW 8793   1.762   1.655   5.009 -0.1035  0.0168  0.0620
 2835SOL    HW1 8794   1.819   1.609   4.941 -1.7267  1.4090 -2.4171
 2835SOL    HW2 8795   1.674   1.607   5.016 -0.0447  0.0351  1.0042
 2836SOL     OW 8796   2.715   1.817   4.007  0.1093  0.5288  0.4368
 2836SOL    HW1 8797   2.782   1.754   4.047 -0.0547 -1.2467 -1.8699
 2836SOL    HW2 8798   2.623   1.785   4.029 -0.0458  1.8885  1.9839
 2837SOL     OW 8799   3.955   1.662   3.804  0.0199 -0.2576 -0.5904
 2837SOL    HW1 8800   3.921   1.736   3.746  0.9108 -0.7782 -1.8313
 2837SOL    HW2 8801   4.039   1.692   3.848  0.7273 -0.7058 -1.5869
 2838SOL     OW 8802   2.690   0.521   1.254 -0.1781 -0.2690  0.3010
 2838SOL    HW1 8803   2.744   0.569   1.185  1.0375 -1.4210  0.4054
 2838SOL    HW2 8804   2.614   0.579   1.283  0.6587  1.1779 -0.2753
 2839SOL     OW 8805   1.949   1.530   4.851  0.0804  0.4238  0.1094
 2839SOL    HW1 8806   2.000   1.466   4.909 -0.3259  1.0897  1.2432
 2839SOL    HW2 8807   1.976   1.518   4.756 -0.7587 -2.1397  0.1344
 2840SOL     OW 8808   1.127   1.329   4.360 -0.0195 -0.1764 -0.9490
 2840SOL    HW1 8809   1.095   1.402   4.421 -0.6908 -0.8540 -0.4629
 2840SOL    HW2 8810   1.110   1.355   4.265 -1.1683 -0.1132 -0.7405
 2841SOL     OW 8811   4.815   0.344   4.490 -0.0389 -0.1373  0.0069
 2841SOL    HW1 8812   4.774   0.414   4.549 -1.1836 -0.8113  0.0305
 2841SOL    HW2 8813   4.786   0.254   4.521 -0.8943 -0.4918 -1.7595
 2842SOL     OW 8814   1.333   0.013   5.198  0.3493 -0.2754 -0.6698
 2842SOL    HW1 8815   1.353   0.002   5.101  0.0383  0.0636 -0.7738
 2842SOL    HW2 8816   1.235   0.026   5.211  0.5516  1.2822 -0.4674
 2843SOL     OW 8817   3.506   1.692   5.179 -0.0057  0.4159 -0.1508
 2843SOL    HW1 8818   3.533   1.618   5.240 -0.4417 -0.2287 -0.7236
 2843SOL    HW2 8819   3.510   1.779   5.228 -1.0245 -0.1605  1.0088
 2844SOL     OW 8820   0.991   0.561   0.053 -0.4964  0.1695 -0.5486
 2844SOL    HW1 8821   1.079   0.598   0.026 -1.6302  1.6343 -2.4608
 2844SOL    HW2 8822   0.962   0.603   0.140 -0.0478  0.9013 -0.7481
 2845SOL     OW 8823   3.878   1.969   4.921  0.3132  0.5351 -0.0472
 2845SOL    HW1 8824   3.800   1.907   4.907  2.4084 -2.2232 -0.3023
 2845SOL    HW2 8825   3.930   1.977   4.837  0.5771  2.0435  0.2281
 2846SOL     OW 8826   4.536   0.144   4.395  0.3903 -0.0795  0.1800
 2846SOL    HW1 8827   4.556   0.170   4.301 -1.0232 -2.5069 -0.8857
 2846SOL    HW2 8828   4.622   0.130   4.444  1.1488  0.8590 -0.8250
 2847SOL     OW 8829   2.011   0.214   5.089  0.1591 -0.0277  0.5482
 2847SOL    HW1 8830   1.942   0.215   5.161  0.2194  0.2892  0.6016
 2847SOL    HW2 8831   2.079   0.285   5.107  0.9468 -0.8520  0.9394
 2848SOL     OW 8832   3.184   1.393   4.734  0.2008 -0.6236  0.7494
 2848SOL    HW1 8833   3.197   1.491   4.717 -0.5953 -0.7190 -0.5509
 2848SOL    HW2 8834   3.261   1.358   4.788  0.5864  0.6729  1.0804
 2849SOL     OW 8835   2.602   1.899   4.688  0.4909  0.1154 -0.0923
 2849SOL    HW1 8836   2.681   1.885   4.747  1.3271 -1.1126 -1.4659
 2849SOL    HW2 8837   2.535   1.826   4.705  0.3182  0.2927 -0.0080
 2850SOL     OW 8838   2.228   0.364   4.104 -0.1414  0.4054  0.6361
 2850SOL    HW1 8839   2.258   0.272   4.080  1.0380  0.3607  2.1271
 2850SOL    HW2 8840   2.128   0.367   4.106 -0.2075 -0.5656 -0.3853
 2851SOL     OW 8841   3.394   1.222   5.937  0.0705  0.3954 -0.2755
 2851SOL    HW1 8842   3.483   1.246   5.975 -0.0010  0.1770  0.0387
 2851SOL    HW2 8843   3.388   1.254   5.843  0.7735 -0.2582 -0.5545
 2852SOL     OW 8844   3.879   0.302   5.163  0.1247 -0.4829  0.5376
 2852SOL    HW1 8845   3.788   0.340   5.174  0.2205 -0.1312  0.1235
 2852SOL    HW2 8846   3.875   0.220   5.106 -0.1734 -1.5006  1.9516
 2853SOL     OW 8847   1.827   1.573   5.666  0.1810 -0.1187  0.1872
 2853SOL    HW1 8848   1.858   1.580   5.571 -0.2929  2.8169  0.1405
 2853SOL    HW2 8849   1.903   1.597   5.727 -0.5196  2.0488  0.2964
 2854SOL     OW 8850   3.220   2.070   3.221  0.4447  0.3016  0.3482
 2854SOL    HW1 8851   3.136   2.021   3.198  1.2381  0.2924 -3.1217
 2854SOL    HW2 8852   3.203   2.169   3.220  0.5977  0.3371 -1.2721
 2855SOL     OW 8853   2.054   0.380   5.677  0.4368 -0.6595 -0.3844
 2855SOL    HW1 8854   1.973   0.324   5.662  0.0260 -0.0239 -0.5515
 2855SOL    HW2 8855   2.136   0.322   5.668  0.0861 -0.9383 -2.0758
 2856SOL     OW 8856   3.974   1.156   4.713 -0.3279  0.4548  0.5108
 2856SOL    HW1 8857   3.927   1.221   4.773  0.0921  2.0263 -0.8006
 2856SOL    HW2 8858   3.940   1.063   4.732 -2.7071  1.3082  0.8045
 2857SOL     OW 8859   1.674   1.783   0.987  0.3219 -0.1411 -0.2657
 2857SOL    HW1 8860   1.755   1.732   0.958  0.1033 -0.3933 -0.4335
 2857SOL    HW2 8861   1.637   1.834   0.910  1.0316  0.9449  0.1021
 2858SOL     OW 8862   4.131   0.102   5.263  0.0206  0.7055 -0.1284
 2858SOL    HW1 8863   4.044   0.153   5.265 -1.3894 -1.3258 -2.9423
 2858SOL    HW2 8864   4.112   0.004   5.263  2.3826  0.1925 -0.2942
 2859SOL     OW 8865   4.252   0.160   0.111 -0.1391 -0.7105 -0.1566
 2859SOL    HW1 8866   4.317   0.085   0.126 -0.3308 -1.0638 -1.0384
 2859SOL    HW2 8867   4.293   0.246   0.141  0.5834 -0.9852 -0.3382
 2860SOL     OW 8868   1.601   1.590   5.871  0.1321 -0.5064  0.2971
 2860SOL    HW1 8869   1.670   1.569   5.801  0.0349  0.4104 -0.0897
 2860SOL    HW2 8870   1.647   1.605   5.959  0.4470  0.1492  0.0315
 2861SOL     OW 8871   3.556   1.752   0.706  0.1533  0.8407  0.0612
 2861SOL    HW1 8872   3.527   1.674   0.649 -1.0253  0.8211  0.6470
 2861SOL    HW2 8873   3.518   1.742   0.798  1.2866  1.3376  0.6028
 2862SOL     OW 8874   3.283   1.304   1.403 -0.1694 -0.3133 -0.3555
 2862SOL    HW1 8875   3.326   1.374   1.347 -1.6447 -0.6560 -2.0019
 2862SOL    HW2 8876   3.316   1.214   1.374 -2.1164 -0.5988 -1.8358
 2863SOL     OW 8877   3.313   0.989   5.310 -0.0118  0.4995  0.2368
 2863SOL    HW1 8878   3.300   0.967   5.214  1.5104  0.6948 -0.0331
 2863SOL    HW2 8879   3.354   0.910   5.357  0.5661  0.8985  0.4120
 2864SOL     OW 8880   3.240   1.905   0.693  0.4595 -0.1984  0.4698
 2864SOL    HW1 8881   3.286   1.892   0.780  2.2486 -1.4232 -0.5931
 2864SOL    HW2 8882   3.307   1.930   0.623 -0.3212 -2.4699 -1.2427
 2865SOL     OW 8883   2.941   5.595   5.854 -0.2557 -0.1645  0.0422
 2865SOL    HW1 8884   3.040   5.597   5.841 -0.4066 -0.0919 -1.1618
 2865SOL    HW2 8885   2.921   5.593   5.952  0.9642 -2.1892  0.3042
 2866SOL     OW 8886   2.415   0.141   0.589 -0.1910  0.2727  0.1364
 2866SOL    HW1 8887   2.363   0.055   0.589 -0.3781  0.3828  0.7411
 2866SOL    HW2 8888   2.429   0.171   0.494 -0.1045 -0.4324 -0.0803
 2867SOL     OW 8889   1.085   2.399   5.760  0.2667  0.2419 -0.0476
 2867SOL    HW1 8890   1.166   2.457   5.770 -0.1094  0.5956  1.1072
 2867SOL    HW2 8891   1.003   2.457   5.764 -0.0578  0.0021 -2.0352
 2868SOL     OW 8892   3.665   0.510   0.168  0.0199 -0.1343  0.0647
 2868SOL    HW1 8893   3.739   0.482   0.230  0.6652  0.8616 -0.2241
 2868SOL    HW2 8894   3.685   0.601   0.133 -0.5532 -0.5070 -1.2826
 2869SOL     OW 8895   2.042   1.425   0.679  0.6356  0.1157 -0.1921
 2869SOL    HW1 8896   2.051   1.524   0.694  2.6122  0.0823 -0.9222
 2869SOL    HW2 8897   2.103   1.397   0.606  1.5084 -1.9450  1.2397
 2870SOL     OW 8898   0.991   5.102   4.177 -0.1480  0.4759  0.4391
 2870SOL    HW1 8899   1.071   5.159   4.163 -0.8719  1.4634  0.1948
 2870SOL    HW2 8900   0.929   5.111   4.098 -1.0249  0.6208  1.1254
 2871SOL     OW 8901   3.388   1.869   0.911  0.0025 -0.0817  0.0815
 2871SOL    HW1 8902   3.465   1.913   0.956 -0.4118 -0.4122  1.1552
 2871SOL    HW2 8903   3.309   1.867   0.973 -0.4083 -1.0843 -0.4409
 2872SOL     OW 8904   2.247   6.019   0.314 -0.2794 -0.4333  0.7073
 2872SOL    HW1 8905   2.288   5.967   0.389  0.7800  1.6711  1.6676
 2872SOL    HW2 8906   2.169   5.968   0.277  0.3995 -2.4380  1.8909
 2873SOL     OW 8907   2.603   5.781   5.426  0.3825 -0.5495  0.8008
 2873SOL    HW1 8908   2.615   5.690   5.466 -0.4379 -1.3604 -0.7184
 2873SOL    HW2 8909   2.693   5.823   5.410  0.7499 -0.7953  2.0997
 2874SOL     OW 8910   3.318   1.077   0.178 -0.3067 -0.5112  0.1180
 2874SOL    HW1 8911   3.413   1.047   0.172  0.3034  1.0481  1.3697
 2874SOL    HW2 8912   3.304   1.155   0.116 -0.0228  0.9382  1.7877
 2875SOL     OW 8913   2.460   0.726   5.240 -0.1909  0.5539 -0.1911
 2875SOL    HW1 8914   2.509   0.640   5.257 -2.2612 -1.2136 -2.4670
 2875SOL    HW2 8915   2.414   0.755   5.324  1.1920 -0.0604  0.8322
 2876SOL     OW 8916   4.593   2.311   0.646  0.7772 -0.0929 -0.8977
 2876SOL    HW1 8917   4.547   2.222   0.646  0.7223 -0.1093  0.9224
 2876SOL    HW2 8918   4.657   2.315   0.723 -1.1502  2.3890  0.7362
 2877SOL     OW 8919   3.302   1.874   0.131 -0.3407  0.0265 -0.5068
 2877SOL    HW1 8920   3.255   1.864   0.218  0.3457 -0.1225 -0.1482
 2877SOL    HW2 8921   3.303   1.786   0.083 -1.2000  0.2314 -0.9258
 2878SOL     OW 8922   3.919   0.220   5.436 -0.6384 -0.7559 -0.1745
 2878SOL    HW1 8923   3.854   0.163   5.386 -0.8235 -0.9079  0.2322
 2878SOL    HW2 8924   3.936   0.304   5.385 -2.0090 -0.2068  0.2147
 2879SOL     OW 8925   2.058   0.580   5.305 -0.5122 -0.0473  0.3154
 2879SOL    HW1 8926   1.987   0.603   5.372  0.4324  0.3919  1.1917
 2879SOL    HW2 8927   2.061   0.481   5.293 -1.2299 -0.0755  0.3139
 2880SOL     OW 8928   3.792   5.118   0.168 -0.1151  0.0448  0.6707
 2880SOL    HW1 8929   3.697   5.091   0.184 -0.3893  0.4515 -0.2073
 2880SOL    HW2 8930   3.848   5.037   0.151 -0.6767 -0.0875 -0.6619
 2881SOL     OW 8931   2.805   0.023   5.434 -0.5052  0.1222 -0.2923
 2881SOL    HW1 8932   2.805   0.094   5.364  3.5319  0.0650 -0.6148
 2881SOL    HW2 8933   2.854   0.056   5.515  2.8223 -2.5057 -0.9672
 2882SOL     OW 8934   2.560   0.223   5.667  0.4904  0.0211  0.0280
 2882SOL    HW1 8935   2.559   0.210   5.766 -1.4100 -0.1446  0.0372
 2882SOL    HW2 8936   2.605   0.309   5.645  0.0159  0.5722  1.1234
 2883SOL     OW 8937   2.718   1.570   0.112  0.0421  0.6517  0.2523
 2883SOL    HW1 8938   2.720   1.634   0.036 -3.1257 -1.2040 -1.5878
 2883SOL    HW2 8939   2.633   1.580   0.163 -1.2051 -2.7214 -0.8725
 2884SOL     OW 8940   1.568   1.239   0.069  0.7879 -0.4012  0.1940
 2884SOL    HW1 8941   1.601   1.331   0.089  0.0324  0.0010 -0.3428
 2884SOL    HW2 8942   1.643   1.174   0.076  1.3890  0.2942  0.3269
 2885SOL     OW 8943   2.117   1.057   5.433  0.3159 -0.2073 -0.0278
 2885SOL    HW1 8944   2.153   0.967   5.458  1.2297  0.5276  1.4622
 2885SOL    HW2 8945   2.191   1.124   5.436 -0.5028  0.7328 -0.3333
 2886SOL     OW 8946   2.947   5.489   0.150 -0.1837 -0.4370 -0.4598
 2886SOL    HW1 8947   2.973   5.567   0.207 -1.5385  1.9839 -2.8888
 2886SOL    HW2 8948   2.850   5.469   0.164 -0.0853 -1.0283 -0.6030
 2887SOL     OW 8949   2.195   1.566   5.578 -0.1353  0.0575  0.0453
 2887SOL    HW1 8950   2.138   1.609   5.648 -0.0788 -0.0728  0.1715
 2887SOL    HW2 8951   2.194   1.622   5.496  0.2503  0.5009  0.3392
 2888SOL     OW 8952   3.323   1.875   5.524 -0.0824  0.3286 -0.1916
 2888SOL    HW1 8953   3.280   1.915   5.605 -0.5337  1.9406 -1.1644
 2888SOL    HW2 8954   3.422   1.871   5.536 -0.1451  0.5994  0.4218
 2889SOL     OW 8955   3.402   0.231   4.934 -0.0912 -0.0848 -0.1204
 2889SOL    HW1 8956   3.332   0.246   5.004 -0.3257 -1.9089  0.0664
 2889SOL    HW2 8957   3.418   0.133   4.922  0.4716  0.2041 -2.1123
 2890SOL     OW 8958   3.357   1.654   4.861  0.4064  0.3920 -0.2134
 2890SOL    HW1 8959   3.393   1.566   4.829  0.7356  0.9052 -1.2897
 2890SOL    HW2 8960   3.346   1.650   4.960 -0.4877 -1.1909 -0.3381
 2891SOL     OW 8961   2.453   1.651   0.638 -0.6232 -0.3837  0.0469
 2891SOL    HW1 8962   2.529   1.600   0.599 -0.3809 -1.2369  1.5575
 2891SOL    HW2 8963   2.431   1.615   0.729 -3.3791 -0.7053 -0.6613
 2892SOL     OW 8964   1.893   0.809   0.466 -0.3200 -0.3461  0.1756
 2892SOL    HW1 8965   1.843   0.842   0.546 -0.6997 -0.4197 -0.0322
 2892SOL    HW2 8966   1.905   0.884   0.401 -2.2744 -0.8753 -0.8633
 2893SOL     OW 8967   1.247   5.305   4.180  0.0195 -0.1926 -0.3032
 2893SOL    HW1 8968   1.290   5.255   4.105 -0.4948  1.5543 -1.8182
 2893SOL    HW2 8969   1.207   5.390   4.146 -4.3423 -1.4480  0.9988
 2894SOL     OW 8970   1.580   5.810   5.054  0.1362 -0.1924 -0.0884
 2894SOL    HW1 8971   1.507   5.864   5.012  0.6355  0.0915 -0.6054
 2894SOL    HW2 8972   1.552   5.782   5.146 -0.0403  1.1236  0.2803
 2895SOL     OW 8973   3.424   0.170   5.636 -0.1430 -0.4352  0.1106
 2895SOL    HW1 8974   3.486   0.121   5.697 -0.7356 -1.1281  0.1634
 2895SOL    HW2 8975   3.335   0.125   5.636 -1.0474  1.2636  1.0090
 2896SOL     OW 8976   3.106   0.575   0.184 -0.2610  0.3314 -0.7523
 2896SOL    HW1 8977   3.190   0.618   0.216 -1.3408 -0.5142  3.8869
 2896SOL    HW2 8978   3.125   0.480   0.157  0.5309  0.7828 -1.8779
 2897SOL     OW 8979   3.365   0.950   5.037 -0.7041 -0.4283 -0.4489
 2897SOL    HW1 8980   3.463   0.958   5.021 -0.2751 -0.6623  1.6926
 2897SOL    HW2 8981   3.329   0.871   4.988  0.2584 -0.6035 -0.8857
 2898SOL     OW 8982   3.645   1.616   1.204  0.0776 -0.1494 -0.0688
 2898SOL    HW1 8983   3.716   1.581   1.265 -0.2598  2.5809  2.0502
 2898SOL    HW2 8984   3.672   1.706   1.169 -2.0654  0.7324  0.3715
 2899SOL     OW 8985   4.405   5.682   5.534  0.0590  0.3486 -0.5353
 2899SOL    HW1 8986   4.495   5.726   5.530  0.7357 -0.7279  1.3035
 2899SOL    HW2 8987   4.352   5.722   5.608 -1.3047  1.4259 -2.0157
 2900SOL     OW 8988   1.142   0.720   4.681 -0.2928  0.3862  0.1885
 2900SOL    HW1 8989   1.059   0.761   4.642  0.0742  1.3953  0.4577
 2900SOL    HW2 8990   1.155   0.629   4.641 -1.7606  0.0260  0.4599
 2901SOL     OW 8991   2.912   1.898   0.336 -0.3090 -0.6325 -0.2509
 2901SOL    HW1 8992   2.883   1.811   0.375  0.5048 -0.2294  1.3391
 2901SOL    HW2 8993   2.834   1.961   0.334 -0.2148 -0.4233  1.4786
 2902SOL     OW 8994   1.809   3.099   0.847  0.3382 -0.3586  0.9504
 2902SOL    HW1 8995   1.748   3.043   0.790 -0.9827  0.0472  1.9005
 2902SOL    HW2 8996   1.900   3.101   0.807 -0.1509 -1.3726 -0.2833
 2903SOL     OW 8997   1.610   3.091   2.451 -0.1071  0.4950  0.1758
 2903SOL    HW1 8998   1.660   3.177   2.456  0.6991  0.0280  0.1950
 2903SOL    HW2 8999   1.540   3.097   2.380 -0.6363  1.4628  0.7710
 2904SOL     OW 9000   2.974   0.909   0.615  0.0889 -0.0476  0.1908
 2904SOL    HW1 9001   2.885   0.864   0.606 -0.4999  0.2143  3.3998
 2904SOL    HW2 9002   2.972   0.997   0.569 -1.4174  0.0441  0.3913
 2905SOL     OW 9003   2.134   3.090   1.516  0.1991 -0.5615  0.3814
 2905SOL    HW1 9004   2.049   3.124   1.555 -0.3537 -0.2786 -1.0283
 2905SOL    HW2 9005   2.117   3.005   1.466  0.2582  0.6034 -1.7626
 2906SOL     OW 9006   3.308   2.699   5.460  0.1828 -0.0202 -0.2064
 2906SOL    HW1 9007   3.305   2.795   5.435 -2.6317  0.4772  1.5412
 2906SOL    HW2 9008   3.314   2.690   5.560  1.0463 -1.7024 -0.3583
 2907SOL     OW 9009   2.675   3.069   0.922  0.7011 -0.1536 -0.3196
 2907SOL    HW1 9010   2.680   3.025   0.832 -0.7571 -0.0275 -0.5003
 2907SOL    HW2 9011   2.691   3.167   0.913  2.1218 -0.3550 -0.1890
 2908SOL     OW 9012   4.088   1.917   5.968 -0.4234  0.0720 -0.3238
 2908SOL    HW1 9013   4.173   1.886   6.009 -1.1159 -0.5471  0.6986
 2908SOL    HW2 9014   4.014   1.855   5.993 -1.2156  0.6996 -1.0314
 2909SOL     OW 9015   2.494   1.557   2.338 -0.4369  0.6164 -0.3044
 2909SOL    HW1 9016   2.397   1.580   2.348 -0.6929 -0.6282  0.2642
 2909SOL    HW2 9017   2.538   1.626   2.280 -2.2423 -0.1602 -2.8204
 2910SOL     OW 9018   3.825   3.020   1.591 -0.3733 -1.0599  0.1256
 2910SOL    HW1 9019   3.903   3.077   1.564 -1.7915  0.8870 -0.1198
 2910SOL    HW2 9020   3.753   3.027   1.522 -2.3325  0.4860  2.1365
 2911SOL     OW 9021   2.748   3.110   1.539  0.0697 -0.0622  0.7978
 2911SOL    HW1 9022   2.764   3.186   1.476  1.5295 -0.0862  1.1132
 2911SOL    HW2 9023   2.663   3.126   1.589 -1.1925 -0.0922 -1.2308
 2912SOL     OW 9024   2.398   3.745   2.012 -0.7819 -0.4407  0.0674
 2912SOL    HW1 9025   2.332   3.733   2.086  0.7146  0.8493  1.7041
 2912SOL    HW2 9026   2.474   3.681   2.024 -0.6132 -0.3554 -0.4863
 2913SOL     OW 9027   2.125   2.996   0.889  0.2459  0.0347  0.0247
 2913SOL    HW1 9028   2.076   3.030   0.969  0.6083  2.8392 -0.8236
 2913SOL    HW2 9029   2.211   2.954   0.917 -0.7458 -1.2805  1.2295
 2914SOL     OW 9030   2.445   2.532   0.485 -0.1329 -0.1798  0.1927
 2914SOL    HW1 9031   2.402   2.443   0.503 -0.3005 -0.4247 -1.2897
 2914SOL    HW2 9032   2.538   2.517   0.451  0.0186  0.2427  0.4136
 2915SOL     OW 9033   3.022   2.377   1.982 -0.2660  0.5449 -0.3367
 2915SOL    HW1 9034   2.929   2.353   1.953 -0.8350  1.3320  0.7395
 2915SOL    HW2 9035   3.075   2.410   1.904 -0.4660 -1.1147 -1.2195
 2916SOL     OW 9036   2.632   2.626   1.016 -0.1227  0.0360 -0.1937
 2916SOL    HW1 9037   2.625   2.557   1.089  0.1466 -0.2497 -0.4363
 2916SOL    HW2 9038   2.605   2.586   0.929 -0.5418  0.4080 -0.2415
 2917SOL     OW 9039   1.092   2.748   0.165  0.7981 -0.2287 -0.2282
 2917SOL    HW1 9040   1.141   2.737   0.079  1.2088  0.4662 -0.0888
 2917SOL    HW2 9041   1.106   2.840   0.200 -0.2303 -0.1644  0.0548
 2918SOL     OW 9042   3.347   2.131   2.506  0.0055  0.7424  0.1648
 2918SOL    HW1 9043   3.305   2.041   2.503  1.6693 -0.0495 -1.2585
 2918SOL    HW2 9044   3.413   2.134   2.581  0.0683  0.7200  0.1104
 2919SOL     OW 9045   2.954   3.115   5.828  0.4385  0.0134  0.3790
 2919SOL    HW1 9046   2.999   3.153   5.909 -0.1732  0.4622  0.5167
 2919SOL    HW2 9047   2.863   3.156   5.818  0.6846  0.3062 -0.7991
 2920SOL     OW 9048   2.369   3.402   0.868  0.0657  0.2206  0.1471
 2920SOL    HW1 9049   2.304   3.334   0.832 -0.3282  1.2026 -1.0747
 2920SOL    HW2 9050   2.461   3.377   0.839  0.1045 -0.5257  0.8695
 2921SOL     OW 9051   3.054   4.829   0.295  0.3337  0.4714  0.4236
 2921SOL    HW1 9052   3.076   4.919   0.258  0.8243  0.4317  0.6209
 2921SOL    HW2 9053   3.136   4.786   0.330  0.1233 -0.1131  0.2111
 2922SOL     OW 9054   2.341   2.680   0.243  0.0327 -0.1314  0.3964
 2922SOL    HW1 9055   2.372   2.622   0.318 -0.5142  0.5119  1.1403
 2922SOL    HW2 9056   2.352   2.776   0.268  0.4328  0.0971 -0.6068
 2923SOL     OW 9057   3.891   2.670   1.921 -0.1256  0.0905  0.1301
 2923SOL    HW1 9058   3.918   2.683   2.016 -0.9229 -1.7092  0.6573
 2923SOL    HW2 9059   3.792   2.675   1.914 -0.0444  0.7156 -0.7185
 2924SOL     OW 9060   1.702   3.393   0.924  0.5643  0.2460  0.1997
 2924SOL    HW1 9061   1.766   3.453   0.973  2.0836 -0.8275 -0.3773
 2924SOL    HW2 9062   1.753   3.318   0.881 -0.8507  0.4446 -1.9841
 2925SOL     OW 9063   4.348   3.501   0.196  0.0984 -0.0785 -0.4464
 2925SOL    HW1 9064   4.358   3.402   0.195  2.3099  0.0283  1.8424
 2925SOL    HW2 9065   4.257   3.525   0.231 -0.5882 -1.2618 -1.3636
 2926SOL     OW 9066   1.873   2.372   5.020  0.4038  0.0562 -0.2257
 2926SOL    HW1 9067   1.937   2.347   4.948 -0.4507 -0.3626 -0.8618
 2926SOL    HW2 9068   1.810   2.296   5.037  0.8981 -0.0364  1.3231
 2927SOL     OW 9069   3.930   2.765   0.220  0.1696  0.2606 -0.9683
 2927SOL    HW1 9070   3.906   2.668   0.213 -2.5800  0.6274  1.5419
 2927SOL    HW2 9071   4.021   2.773   0.260  0.0950 -1.2946 -0.4037
 2928SOL     OW 9072   3.270   2.959   0.459  0.0334 -0.4857 -0.2076
 2928SOL    HW1 9073   3.265   3.028   0.532  1.0269 -1.1006  0.4612
 2928SOL    HW2 9074   3.178   2.921   0.443 -0.5215  0.9751 -0.5914
 2929SOL     OW 9075   2.053   0.201   1.757 -0.2232  0.1355  0.2349
 2929SOL    HW1 9076   1.983   0.205   1.686 -0.0482 -1.4583 -0.0640
 2929SOL    HW2 9077   2.009   0.196   1.847 -0.4748 -0.1444  0.0956
 2930SOL     OW 9078   2.534   3.891   1.634 -0.0935  0.6339  0.0386
 2930SOL    HW1 9079   2.567   3.981   1.665  1.0757  0.3234 -0.2647
 2930SOL    HW2 9080   2.463   3.858   1.697  0.7564  0.9529  1.1952
 2931SOL     OW 9081   3.639   1.123   2.626 -0.0985  0.2106 -0.8016
 2931SOL    HW1 9082   3.606   1.035   2.590 -0.7945  1.1270 -2.5224
 2931SOL    HW2 9083   3.732   1.112   2.660 -0.2781 -1.2498 -0.7139
 2932SOL     OW 9084   3.393   2.111   0.033 -0.2601 -0.0576  0.1229
 2932SOL    HW1 9085   3.359   2.020   0.052  2.0629 -0.8662  0.7401
 2932SOL    HW2 9086   3.387   2.168   0.115 -1.1212  0.1789 -0.0902
 2933SOL     OW 9087   1.731   2.305   1.029 -0.0643 -0.3339  0.1051
 2933SOL    HW1 9088   1.660   2.242   0.997 -0.9254  0.4805  0.3504
 2933SOL    HW2 9089   1.688   2.390   1.059  0.8119 -0.5563  2.1928
 2934SOL     OW 9090   5.082   2.602   0.919  0.3131 -0.0732 -0.6340
 2934SOL    HW1 9091   5.085   2.678   0.984  2.4772 -1.4154  0.9800
 2934SOL    HW2 9092   4.994   2.603   0.871 -0.9434  1.6520  1.4863
 2935SOL     OW 9093   2.082   1.524   1.269  0.3894 -0.1437 -0.4307
 2935SOL    HW1 9094   2.134   1.520   1.183  0.6963  0.5343 -0.2812
 2935SOL    HW2 9095   2.096   1.613   1.312 -0.9268  0.0660 -0.4011
 2936SOL     OW 9096   1.649   2.602   2.459  0.0627 -0.2434 -0.2978
 2936SOL    HW1 9097   1.554   2.600   2.488  0.4102  0.7293  1.0687
 2936SOL    HW2 9098   1.655   2.591   2.360 -1.3030 -2.4080 -0.1832
 2937SOL     OW 9099   2.707   1.720   5.833  0.4278 -0.1753  0.3421
 2937SOL    HW1 9100   2.728   1.634   5.786  1.1748 -1.3531  2.6775
 2937SOL    HW2 9101   2.749   1.796   5.783  0.9812 -1.3128 -1.0034
 2938SOL     OW 9102   3.769   4.274   1.164 -0.1277  0.0617  0.1112
 2938SOL    HW1 9103   3.706   4.306   1.093 -0.6519 -0.4880  0.3248
 2938SOL    HW2 9104   3.730   4.291   1.254 -0.6230 -1.5612  0.2275
 2939SOL     OW 9105   2.543   1.956   5.494 -0.7216 -0.0495  0.5499
 2939SOL    HW1 9106   2.593   1.937   5.578  1.9114 -0.3948 -0.9939
 2939SOL    HW2 9107   2.587   2.031   5.444 -1.3969 -0.7075 -1.1392
 2940SOL     OW 9108   3.071   1.200   2.262  0.0458  0.1368  0.1344
 2940SOL    HW1 9109   3.082   1.179   2.165  0.2145 -1.9069  0.5500
 2940SOL    HW2 9110   3.160   1.194   2.308 -0.1932  0.0590  0.5923
 2941SOL     OW 9111   3.362   2.701   1.345  0.4127  0.2512  0.8666
 2941SOL    HW1 9112   3.376   2.778   1.408  2.5744  0.5063  0.1855
 2941SOL    HW2 9113   3.382   2.616   1.393  0.7619  0.3484  0.9048
 2942SOL     OW 9114   2.008   2.182   1.547 -0.1222  0.0653  0.5742
 2942SOL    HW1 9115   1.959   2.173   1.633  0.6246  1.1720  1.1307
 2942SOL    HW2 9116   1.962   2.127   1.477 -2.8225  1.8472  0.7773
 2943SOL     OW 9117   2.588   2.854   1.874 -0.0222 -0.0589 -0.1412
 2943SOL    HW1 9118   2.518   2.882   1.940  1.6280  0.4843  1.4344
 2943SOL    HW2 9119   2.545   2.843   1.784 -2.0663  0.5531  0.6921
 2944SOL     OW 9120   1.897   3.121   1.659  0.0550  0.1713 -0.6648
 2944SOL    HW1 9121   1.919   3.153   1.751  0.9853  0.1562 -0.8689
 2944SOL    HW2 9122   1.853   3.031   1.665 -2.1480  1.2147 -0.1159
 2945SOL     OW 9123   2.418   1.119   0.952  0.1521  0.4054 -0.3659
 2945SOL    HW1 9124   2.506   1.151   0.915  0.8149 -0.9618 -0.0443
 2945SOL    HW2 9125   2.410   1.147   1.047  0.7819 -0.4289 -0.0505
 2946SOL     OW 9126   2.455   3.615   0.455  0.0731  0.2114 -0.6689
 2946SOL    HW1 9127   2.531   3.571   0.407 -0.3912  0.5403 -1.7412
 2946SOL    HW2 9128   2.486   3.702   0.494  0.5747 -0.2804  0.0562
 2947SOL     OW 9129   1.101   2.265   1.121 -0.2065  0.1642  0.4647
 2947SOL    HW1 9130   1.165   2.303   1.188 -0.4452 -0.9621  1.3455
 2947SOL    HW2 9131   1.096   2.166   1.130 -0.6260  0.0302 -0.8960
 2948SOL     OW 9132   1.525   3.412   1.557  0.5438 -0.2285 -0.6921
 2948SOL    HW1 9133   1.578   3.384   1.477  1.0962  1.5594 -0.9831
 2948SOL    HW2 9134   1.444   3.353   1.565  1.7353 -2.0059 -1.1239
 2949SOL     OW 9135   3.178   1.911   0.364  0.2938 -0.3907  0.3866
 2949SOL    HW1 9136   3.234   1.994   0.373  2.4566 -1.4107 -2.2596
 2949SOL    HW2 9137   3.081   1.936   0.372  0.7902  2.6153 -1.2445
 2950SOL     OW 9138   3.302   1.450   2.587 -0.5426 -0.2298 -0.0507
 2950SOL    HW1 9139   3.231   1.443   2.517 -1.0009 -2.3676  0.5417
 2950SOL    HW2 9140   3.259   1.464   2.676 -0.0272  1.3118 -0.0185
 2951SOL     OW 9141   3.179   3.099   0.706  0.2242  0.0472 -0.2183
 2951SOL    HW1 9142   3.194   3.191   0.672  1.3910  0.3973  1.1569
 2951SOL    HW2 9143   3.190   3.097   0.805 -0.0167 -1.5317 -0.1844
 2952SOL     OW 9144   3.082   2.591   5.739  0.1153  0.3410  0.3471
 2952SOL    HW1 9145   3.120   2.508   5.780  0.5304 -0.8522 -2.2712
 2952SOL    HW2 9146   3.153   2.661   5.733  0.3825  0.0840  0.5162
 2953SOL     OW 9147   3.182   2.487   5.329 -0.0556 -0.6062  0.4508
 2953SOL    HW1 9148   3.090   2.486   5.369 -0.7037 -0.4247 -0.9644
 2953SOL    HW2 9149   3.240   2.551   5.379 -1.1849  0.5323  0.3518
 2954SOL     OW 9150   1.553   4.506   1.244 -0.1364  0.1317 -0.0733
 2954SOL    HW1 9151   1.471   4.551   1.209  0.3109  1.4006  0.4365
 2954SOL    HW2 9152   1.626   4.574   1.253  0.3764 -0.5786  1.3360
 2955SOL     OW 9153   4.171   3.113   1.738 -0.1799  0.3191 -0.0222
 2955SOL    HW1 9154   4.111   3.096   1.660 -2.0339  3.2120  0.6366
 2955SOL    HW2 9155   4.219   3.028   1.762 -0.5893 -0.9988 -3.3498
 2956SOL     OW 9156   3.283   4.364   1.537  0.3400  0.1292 -0.1633
 2956SOL    HW1 9157   3.189   4.391   1.518  0.1048 -0.9244 -0.5602
 2956SOL    HW2 9158   3.341   4.387   1.459  0.1747 -0.3193 -0.4231
 2957SOL     OW 9159   2.622   2.921   0.700  0.2529  0.2410 -0.1862
 2957SOL    HW1 9160   2.696   2.855   0.699  0.4021  0.3295  1.6112
 2957SOL    HW2 9161   2.537   2.876   0.727  0.2791  0.6792  0.6778
 2958SOL     OW 9162   3.300   1.748   1.301 -0.3226 -0.0201 -0.8327
 2958SOL    HW1 9163   3.214   1.737   1.352  0.6252 -0.3606  0.7554
 2958SOL    HW2 9164   3.341   1.658   1.285 -0.1417  0.1584 -1.3936
 2959SOL     OW 9165   3.167   3.622   1.881 -0.0773 -0.0098  0.3834
 2959SOL    HW1 9166   3.108   3.636   1.960  0.9121 -2.2813  1.6151
 2959SOL    HW2 9167   3.262   3.611   1.911  0.5907  0.7619 -1.2918
 2960SOL     OW 9168   4.103   3.191   0.446  0.0212 -0.1802  0.0875
 2960SOL    HW1 9169   4.008   3.221   0.434 -0.2430 -0.7033  0.7709
 2960SOL    HW2 9170   4.131   3.137   0.366 -0.5389 -0.7115  0.2332
 2961SOL     OW 9171   2.687   1.676   1.824  0.0244  0.0520  0.2005
 2961SOL    HW1 9172   2.705   1.773   1.841  2.0314 -0.0663 -0.9103
 2961SOL    HW2 9173   2.706   1.623   1.906 -0.4341  0.5163  0.6133
 2962SOL     OW 9174   4.204   3.024   5.290  0.1239  0.6476 -0.1113
 2962SOL    HW1 9175   4.237   3.097   5.230  2.2450  0.5394  0.8434
 2962SOL    HW2 9176   4.132   3.059   5.350  0.6476  1.7722 -0.1205
 2963SOL     OW 9177   1.156   2.184   0.182  0.5573  0.1942  0.1888
 2963SOL    HW1 9178   1.215   2.216   0.255  0.5385 -0.4967  0.5195
 2963SOL    HW2 9179   1.065   2.226   0.191  0.3196 -0.4864  1.0338
 2964SOL     OW 9180   4.055   1.724   0.629  0.0678 -0.3135 -0.1722
 2964SOL    HW1 9181   4.127   1.717   0.698 -0.8640 -1.2767  0.7296
 2964SOL    HW2 9182   3.973   1.766   0.669 -0.4805 -0.8728 -0.6831
 2965SOL     OW 9183   2.600   3.671   0.111  0.1361 -0.1395  0.0138
 2965SOL    HW1 9184   2.511   3.715   0.120  0.7185  0.8165  1.6041
 2965SOL    HW2 9185   2.613   3.605   0.186  1.1669  0.5161  0.4422
 2966SOL     OW 9186   2.445   3.220   1.273 -0.8829  0.4843  0.2772
 2966SOL    HW1 9187   2.457   3.164   1.355 -0.8646 -2.7284 -1.7621
 2966SOL    HW2 9188   2.527   3.275   1.258 -0.7301  0.8409  2.1329
 2967SOL     OW 9189   2.458   1.512   5.678 -0.9588 -0.2146 -0.2281
 2967SOL    HW1 9190   2.435   1.449   5.752 -0.5127 -0.9828 -0.7292
 2967SOL    HW2 9191   2.374   1.545   5.635 -1.2994  1.3914  1.5307
 2968SOL     OW 9192   3.787   0.814   2.332  0.0818 -0.5141 -0.1409
 2968SOL    HW1 9193   3.707   0.852   2.380 -0.6443 -2.3085  0.1569
 2968SOL    HW2 9194   3.870   0.836   2.382 -0.5318 -1.1359  1.1854
 2969SOL     OW 9195   2.423   2.165   0.933  0.3080 -0.5254 -0.1915
 2969SOL    HW1 9196   2.423   2.082   0.877  1.1037 -1.9421  1.7805
 2969SOL    HW2 9197   2.507   2.217   0.916 -0.1110 -0.1831 -1.3035
 2970SOL     OW 9198   2.830   1.217   2.867  0.8190  0.2818 -0.6898
 2970SOL    HW1 9199   2.842   1.312   2.839 -0.2608  0.8402  0.6243
 2970SOL    HW2 9200   2.775   1.169   2.800 -1.7097  1.5854  0.3376
 2971SOL     OW 9201   2.941   2.616   1.665  0.6431  0.6465  0.6216
 2971SOL    HW1 9202   3.026   2.597   1.714  0.9043  2.4320  0.9232
 2971SOL    HW2 9203   2.873   2.653   1.728 -0.4519 -0.8827  0.4129
 2972SOL     OW 9204   3.635   2.642   1.873  0.4363 -0.2539  0.2217
 2972SOL    HW1 9205   3.539   2.644   1.901  0.6554 -0.4830  1.0257
 2972SOL    HW2 9206   3.650   2.708   1.799 -0.0933  0.6324  0.8897
 2973SOL     OW 9207   2.475   1.058   2.255  0.0357  0.1551  0.4526
 2973SOL    HW1 9208   2.476   1.155   2.229 -1.7207  0.2257  0.5643
 2973SOL    HW2 9209   2.568   1.021   2.248  0.2853  1.0870 -2.4292
 2974SOL     OW 9210   4.579   1.812   5.941  0.9197  0.2031 -0.2908
 2974SOL    HW1 9211   4.582   1.715   5.917  1.5110  0.4331 -1.2019
 2974SOL    HW2 9212   4.640   1.863   5.881 -1.1509  1.4805 -1.4549
 2975SOL     OW 9213   2.128   2.403   0.635  0.6471 -0.2821 -0.2175
 2975SOL    HW1 9214   2.159   2.345   0.710  2.2823  0.6862 -0.0931
 2975SOL    HW2 9215   2.177   2.378   0.551  0.1969 -0.1269 -0.5297
 2976SOL     OW 9216   2.749   4.803   0.719  0.2799 -0.0349 -0.4060
 2976SOL    HW1 9217   2.788   4.853   0.641  1.8658  0.1691  0.4606
 2976SOL    HW2 9218   2.773   4.706   0.712  1.2535  0.1394  0.2800
 2977SOL     OW 9219   3.230   1.683   5.119 -0.1828  0.0620  0.6298
 2977SOL    HW1 9220   3.186   1.713   5.204  2.7258  1.2648  1.8311
 2977SOL    HW2 9221   3.328   1.670   5.134  0.4085  0.0350 -2.4986
 2978SOL     OW 9222   2.001   2.422   1.698 -0.2892  0.1964  0.3017
 2978SOL    HW1 9223   2.077   2.485   1.714  1.5957 -1.8761 -0.0383
 2978SOL    HW2 9224   2.004   2.389   1.604 -2.4058  0.9866 -0.1151
 2979SOL     OW 9225   3.006   2.876   0.486 -0.1466 -0.3620 -0.2658
 2979SOL    HW1 9226   2.949   2.958   0.495 -0.6091 -0.8162  1.1990
 2979SOL    HW2 9227   2.991   2.816   0.564 -0.1423 -2.0745 -1.5097
 2980SOL     OW 9228   2.824   2.739   0.701 -0.1110  0.5300 -0.0054
 2980SOL    HW1 9229   2.874   2.671   0.647  0.2785  0.2478  0.6957
 2980SOL    HW2 9230   2.889   2.789   0.759 -0.3948  1.4838 -0.4868
 2981SOL     OW 9231   3.814   3.877   0.887  0.0139  0.2228  0.0087
 2981SOL    HW1 9232   3.891   3.932   0.852  0.4464 -0.8647 -0.8103
 2981SOL    HW2 9233   3.831   3.853   0.983  0.3238  0.6380  0.0598
 2982SOL     OW 9234   2.949   2.338   0.733 -0.0101 -0.0518  0.1347
 2982SOL    HW1 9235   2.967   2.356   0.829  1.0432 -2.2081  0.4036
 2982SOL    HW2 9236   2.885   2.261   0.725  1.8493 -1.5742 -0.8273
 2983SOL     OW 9237   1.485   2.424   1.438  0.1022  0.0457  0.0094
 2983SOL    HW1 9238   1.457   2.328   1.432 -3.0767  0.7529  1.4772
 2983SOL    HW2 9239   1.513   2.445   1.532  0.7672  0.5717 -0.2980
 2984SOL     OW 9240   1.353   0.397   0.102 -0.2808  0.2670  0.0548
 2984SOL    HW1 9241   1.422   0.455   0.060 -1.7252  1.6602 -0.4920
 2984SOL    HW2 9242   1.329   0.323   0.039 -0.8896  1.0955 -0.7084
 2985SOL     OW 9243   3.632   2.830   0.721 -0.1944 -0.4368  0.4382
 2985SOL    HW1 9244   3.697   2.782   0.780  1.1632 -1.5229 -1.7935
 2985SOL    HW2 9245   3.549   2.776   0.712  0.6556 -1.6034 -0.7149
 2986SOL     OW 9246   2.934   0.492   0.637  0.1499  0.1812  0.2093
 2986SOL    HW1 9247   2.885   0.405   0.646  0.6671 -0.1220  0.1972
 2986SOL    HW2 9248   2.887   0.563   0.689 -0.2917 -0.1040  0.2033
 2987SOL     OW 9249   3.187   2.938   1.688  0.0055 -0.6585  0.2822
 2987SOL    HW1 9250   3.125   2.882   1.631 -0.1688 -0.8102  0.6184
 2987SOL    HW2 9251   3.191   3.030   1.650  1.6000 -1.3039 -1.2726
 2988SOL     OW 9252   2.948   3.265   1.083 -0.8035 -0.4232  0.0003
 2988SOL    HW1 9253   3.024   3.328   1.071 -2.3072  1.3570 -0.7345
 2988SOL    HW2 9254   2.978   3.172   1.067  1.0748  0.2931 -0.8502
 2989SOL     OW 9255   3.705   1.419   0.507  0.1542  0.2870 -0.1458
 2989SOL    HW1 9256   3.771   1.486   0.472  0.0549  1.3341  1.5197
 2989SOL    HW2 9257   3.731   1.394   0.601 -1.4757  0.2623  0.3196
 2990SOL     OW 9258   2.984   3.693   5.838 -0.1503 -0.3410 -0.4876
 2990SOL    HW1 9259   2.903   3.724   5.788 -0.3573  0.9379  0.5734
 2990SOL    HW2 9260   2.965   3.696   5.936  1.2735  0.3040 -0.2009
 2991SOL     OW 9261   3.274   3.212   0.227 -0.7336  0.3944  0.2864
 2991SOL    HW1 9262   3.265   3.271   0.307  1.3402  0.5786  0.4177
 2991SOL    HW2 9263   3.366   3.218   0.191 -0.8892 -1.6629 -0.5820
 2992SOL     OW 9264   2.851   2.933   5.671  0.0746  0.3065 -0.3579
 2992SOL    HW1 9265   2.758   2.968   5.659 -0.7463 -0.6042  2.4921
 2992SOL    HW2 9266   2.896   2.982   5.745  0.1100 -2.2329  1.4413
 2993SOL     OW 9267   1.371   1.728   5.805 -0.4973  0.6546 -0.6872
 2993SOL    HW1 9268   1.388   1.769   5.716 -1.0398  1.1212 -0.5817
 2993SOL    HW2 9269   1.456   1.691   5.842  0.6577  3.9905  0.3592
 2994SOL     OW 9270   2.564   3.504   1.367 -0.2732  0.4942  0.6229
 2994SOL    HW1 9271   2.653   3.465   1.343 -0.9785 -0.3602 -0.7395
 2994SOL    HW2 9272   2.520   3.538   1.284 -1.7086 -0.1604  1.0866
 2995SOL     OW 9273   3.232   1.532   1.946 -0.0046  0.3305 -0.3447
 2995SOL    HW1 9274   3.135   1.556   1.938 -0.1164  1.0947  2.4382
 2995SOL    HW2 9275   3.287   1.603   1.903 -0.5972  1.3990  0.6261
 2996SOL     OW 9276   2.925   2.460   2.218  0.1568 -0.2850 -0.5602
 2996SOL    HW1 9277   2.948   2.441   2.123 -0.1863 -0.8030 -0.5437
 2996SOL    HW2 9278   2.826   2.457   2.230  0.2000 -0.2668 -0.1794
 2997SOL     OW 9279   3.663   2.797   5.867 -0.4509  0.1238 -0.7555
 2997SOL    HW1 9280   3.750   2.750   5.849 -0.0886 -0.0858  1.3018
 2997SOL    HW2 9281   3.681   2.891   5.895 -0.9117  0.2174 -0.7694
 2998SOL     OW 9282   4.290   4.093   0.458  0.6990  0.2188  0.0354
 2998SOL    HW1 9283   4.240   4.006   0.458  0.3034  0.4189 -1.4150
 2998SOL    HW2 9284   4.357   4.093   0.533  0.6665 -1.3040  0.0996
 2999SOL     OW 9285   3.325   1.332   0.428  0.1341  0.5032 -0.0870
 2999SOL    HW1 9286   3.304   1.259   0.493 -0.6529 -0.1242 -1.0188
 2999SOL    HW2 9287   3.352   1.415   0.478  0.2519 -0.1705  1.0050
 3000SOL     OW 9288   3.085   3.160   2.101 -0.3490  0.3763 -0.1281
 3000SOL    HW1 9289   3.083   3.126   2.195  1.3935 -0.0761 -0.2281
 3000SOL    HW2 9290   3.149   3.106   2.047 -0.9750  0.9303 -1.4761
 3001SOL     OW 9291   2.247   3.096   0.130  0.0593 -0.0694  0.1799
 3001SOL    HW1 9292   2.156   3.093   0.090  0.1470  0.4200 -0.0607
 3001SOL    HW2 9293   2.267   3.188   0.163 -0.4063 -0.6585  2.3011
 3002SOL     OW 9294   1.907   1.295   5.876 -0.6433  0.0083 -0.0922
 3002SOL    HW1 9295   1.936   1.308   5.781 -0.2236  1.7951  0.2470
 3002SOL    HW2 9296   1.926   1.202   5.904  0.3630 -0.2014 -1.3847
 3003SOL     OW 9297   4.390   2.734   1.635  0.0614 -0.1015 -0.7434
 3003SOL    HW1 9298   4.438   2.694   1.557  1.6076  1.7202 -0.7945
 3003SOL    HW2 9299   4.455   2.744   1.711 -0.0675  2.7769 -0.9299
 3004SOL     OW 9300   1.777   4.265   0.182 -0.1372 -0.1621  0.1129
 3004SOL    HW1 9301   1.695   4.238   0.133  0.6347 -0.7193 -0.9129
 3004SOL    HW2 9302   1.812   4.351   0.144 -0.2719  0.1017  0.5801
 3005SOL     OW 9303   1.492   2.817   1.719 -0.1206  0.2106  0.1725
 3005SOL    HW1 9304   1.397   2.817   1.751 -0.0815 -0.2578  0.2975
 3005SOL    HW2 9305   1.527   2.911   1.717 -0.3241  0.3085  0.9126
 3006SOL     OW 9306   3.554   2.490   0.723 -0.3968  0.4062 -0.7819
 3006SOL    HW1 9307   3.500   2.407   0.735  0.5121 -0.1522 -0.4131
 3006SOL    HW2 9308   3.518   2.563   0.780  0.6228 -0.6436  1.2960
 3007SOL     OW 9309   3.178   4.212   5.621 -0.6776  0.0373 -0.4815
 3007SOL    HW1 9310   3.179   4.131   5.562 -1.2693  0.3443 -0.9282
 3007SOL    HW2 9311   3.130   4.191   5.706 -3.6301  0.7019 -1.8327
 3008SOL     OW 9312   3.415   3.979   0.508  0.2449  0.3103 -0.0689
 3008SOL    HW1 9313   3.442   4.057   0.451  0.7717  0.5866  0.5503
 3008SOL    HW2 9314   3.489   3.956   0.570  0.4009 -1.1885 -0.7568
 3009SOL     OW 9315   4.843   2.745   1.357  0.3988  0.4811  0.1330
 3009SOL    HW1 9316   4.896   2.772   1.277  0.2583 -1.3633 -0.6346
 3009SOL    HW2 9317   4.746   2.761   1.339  0.4353  0.8796  0.2834
 3010SOL     OW 9318   2.255   3.616   0.974  0.0663 -0.0314 -0.0787
 3010SOL    HW1 9319   2.300   3.532   0.943  1.7498  0.4416  1.0003
 3010SOL    HW2 9320   2.196   3.650   0.901  0.3510 -1.4376 -1.0175
 3011SOL     OW 9321   2.682   1.958   1.858  0.0419  0.0834 -0.9895
 3011SOL    HW1 9322   2.610   2.016   1.895 -0.2244 -0.0129 -1.3581
 3011SOL    HW2 9323   2.696   1.978   1.761 -1.1774 -1.5762 -1.5523
 3012SOL     OW 9324   2.741   2.852   1.106  0.3507 -0.1170 -0.3286
 3012SOL    HW1 9325   2.712   2.762   1.073  0.7330  0.0820 -1.2460
 3012SOL    HW2 9326   2.696   2.923   1.052  0.2032  0.2435  0.2625
 3013SOL     OW 9327   2.115   1.818   3.238 -0.1645 -0.1255 -0.0870
 3013SOL    HW1 9328   2.164   1.851   3.158 -0.6304 -1.0421 -0.7638
 3013SOL    HW2 9329   2.173   1.753   3.288 -0.2290 -0.2865 -0.2192
 3014SOL     OW 9330   0.838   0.953   1.683 -0.3637  0.4920  0.5830
 3014SOL    HW1 9331   0.844   0.940   1.584  0.3600  0.2021  0.6583
 3014SOL    HW2 9332   0.908   1.017   1.712  2.7209 -2.9366  1.4936
 3015SOL     OW 9333   2.176   1.837   1.769  0.3857 -0.4956  0.5676
 3015SOL    HW1 9334   2.265   1.883   1.762  0.4600 -0.5742  0.9555
 3015SOL    HW2 9335   2.178   1.772   1.845  0.3354 -1.2641 -0.0708
 3016SOL     OW 9336   2.410   1.889   2.035 -0.4083 -0.3933  0.5091
 3016SOL    HW1 9337   2.455   1.976   2.055 -0.0371 -0.6708  0.8831
 3016SOL    HW2 9338   2.466   1.813   2.068 -0.2354 -0.8300 -0.7036
 3017SOL     OW 9339   4.178   2.698   0.306  0.2346 -0.1011 -0.7770
 3017SOL    HW1 9340   4.269   2.740   0.308 -0.0587  0.6503 -1.9368
 3017SOL    HW2 9341   4.180   2.616   0.249  0.0026  0.4203 -1.5519
 3018SOL     OW 9342   1.526   2.528   1.695  0.5043  0.4464 -0.2293
 3018SOL    HW1 9343   1.614   2.524   1.741  0.5813 -0.0414 -0.4137
 3018SOL    HW2 9344   1.485   2.618   1.709 -0.9735 -0.6427  3.5155
 3019SOL     OW 9345   0.706   3.805   5.895 -0.0349  0.1225  0.3160
 3019SOL    HW1 9346   0.712   3.859   5.811 -0.4137  0.3572  0.4377
 3019SOL    HW2 9347   0.728   3.709   5.875  2.9546  0.6509  0.4985
 3020SOL     OW 9348   3.152   2.488   0.970 -0.1771 -0.0601 -0.5763
 3020SOL    HW1 9349   3.243   2.456   0.996 -0.0790 -0.0967 -0.9550
 3020SOL    HW2 9350   3.160   2.561   0.902 -0.3813  1.2690  0.7941
 3021SOL     OW 9351   4.186   2.688   2.395 -0.6008 -0.5398  0.4434
 3021SOL    HW1 9352   4.247   2.612   2.372 -1.5260 -0.8148 -1.2663
 3021SOL    HW2 9353   4.126   2.707   2.317  0.0848  2.4377  0.5303
 3022SOL     OW 9354   2.837   2.401   5.607  0.6348  0.7997 -0.3058
 3022SOL    HW1 9355   2.812   2.479   5.665 -0.2593 -0.7125  1.4296
 3022SOL    HW2 9356   2.866   2.435   5.517  0.9029  3.1559  0.5916
 3023SOL     OW 9357   3.758   0.777   0.160 -0.1398  0.4422 -0.1396
 3023SOL    HW1 9358   3.799   0.762   0.250 -0.4263  2.1422  0.3206
 3023SOL    HW2 9359   3.825   0.756   0.089  0.1083 -0.8627  0.4498
 3024SOL     OW 9360   3.379   1.506   1.240  0.1494  0.0064 -0.2127
 3024SOL    HW1 9361   3.348   1.470   1.152  0.5944  0.7951 -0.7054
 3024SOL    HW2 9362   3.472   1.540   1.231  0.4537 -0.5329  0.7478
 3025SOL     OW 9363   3.355   3.309   1.986  0.2684  0.4255  0.5096
 3025SOL    HW1 9364   3.271   3.344   1.944  1.2266  0.8155 -1.1305
 3025SOL    HW2 9365   3.356   3.209   1.978 -0.1916  0.3855  0.8629
 3026SOL     OW 9366   2.837   1.847   2.034 -0.4434  0.0531  0.1799
 3026SOL    HW1 9367   2.878   1.919   2.090 -0.6599 -0.8551  1.5820
 3026SOL    HW2 9368   2.770   1.888   1.972  1.4116  1.3595 -1.0538
 3027SOL     OW 9369   3.614   3.006   1.390  0.3974  0.5511  0.4382
 3027SOL    HW1 9370   3.517   2.983   1.403  0.7020 -2.8440 -1.9971
 3027SOL    HW2 9371   3.622   3.077   1.320 -0.3279 -0.0024 -0.2229
 3028SOL     OW 9372   3.976   1.055   0.142  0.1136 -0.0671  0.2755
 3028SOL    HW1 9373   3.879   1.076   0.154  0.0446  0.4454 -1.0238
 3028SOL    HW2 9374   4.025   1.139   0.118  0.9950 -0.2087  1.4847
 3029SOL     OW 9375   2.803   3.177   0.194 -0.0514  0.8676  0.0511
 3029SOL    HW1 9376   2.884   3.218   0.150  2.0477 -1.3008  1.6035
 3029SOL    HW2 9377   2.770   3.101   0.139  1.7895 -1.0300  1.3862
 3030SOL     OW 9378   2.764   2.242   1.905 -0.3767 -0.3835  0.4442
 3030SOL    HW1 9379   2.711   2.202   1.979 -0.3627  1.0746  1.2836
 3030SOL    HW2 9380   2.703   2.267   1.829 -0.7326  0.2616  0.9396
 3031SOL     OW 9381   3.409   3.485   1.475 -0.1582 -0.3536 -0.6694
 3031SOL    HW1 9382   3.410   3.533   1.563  2.5124 -0.3705 -0.6163
 3031SOL    HW2 9383   3.354   3.401   1.484  0.6372 -0.7343  1.2185
 3032SOL     OW 9384   2.795   2.527   0.137  0.0564  0.0244 -0.6839
 3032SOL    HW1 9385   2.890   2.499   0.120 -0.5205 -0.9090 -2.6342
 3032SOL    HW2 9386   2.781   2.619   0.100  0.8066  1.2383  1.8531
 3033SOL     OW 9387   2.390   2.097   1.192  0.2675  0.3983 -0.4905
 3033SOL    HW1 9388   2.394   2.128   1.097  2.4686 -1.3423 -1.0423
 3033SOL    HW2 9389   2.349   2.005   1.195  0.1416  0.4759  0.2562
 3034SOL     OW 9390   1.439   1.651   1.037 -0.5837 -0.7024  0.4873
 3034SOL    HW1 9391   1.462   1.568   1.088 -1.0190  0.0457  1.9876
 3034SOL    HW2 9392   1.523   1.696   1.007 -0.1707 -0.1951  2.2343
 3035SOL     OW 9393   0.903   3.840   1.345  0.0963  0.0957  0.2438
 3035SOL    HW1 9394   0.874   3.757   1.297  3.2439  0.5026 -2.7079
 3035SOL    HW2 9395   0.968   3.816   1.417  2.4366 -0.0665 -1.7865
 3036SOL     OW 9396   3.416   2.695   0.851  0.4276  0.3393  0.2147
 3036SOL    HW1 9397   3.321   2.688   0.820  0.6494 -0.6267 -0.2837
 3036SOL    HW2 9398   3.418   2.720   0.948 -0.3558 -0.3065  0.4059
 3037SOL     OW 9399   2.623   4.154   1.634 -0.5320  0.1379 -0.0568
 3037SOL    HW1 9400   2.566   4.173   1.713  0.5399 -0.9854  1.0279
 3037SOL    HW2 9401   2.694   4.224   1.626 -0.1366 -0.1965  0.4799
 3038SOL     OW 9402   2.003   4.168   1.485 -0.6004 -0.6759 -0.1584
 3038SOL    HW1 9403   1.917   4.216   1.505 -0.1563 -0.3317  1.0291
 3038SOL    HW2 9404   2.022   4.103   1.559  0.5525 -0.1837 -0.0154
 3039SOL     OW 9405   1.100   1.327   2.083  0.1333  0.0282 -0.3023
 3039SOL    HW1 9406   1.105   1.393   2.009  0.6962 -1.1745 -1.3812
 3039SOL    HW2 9407   1.184   1.274   2.087 -0.1561 -0.3838  0.7711
 3040SOL     OW 9408   3.276   3.020   1.952  0.1148 -0.3458  0.6105
 3040SOL    HW1 9409   3.303   2.955   2.023 -0.7943 -0.7644  0.5922
 3040SOL    HW2 9410   3.248   2.970   1.870  2.2205  0.1524 -0.4733
 3041SOL     OW 9411   4.023   2.953   0.054 -0.1796  0.2934 -0.0192
 3041SOL    HW1 9412   3.970   2.870   0.069 -1.8872  0.8932 -2.2434
 3041SOL    HW2 9413   3.989   3.025   0.114  0.4787 -0.2318  1.0196
 3042SOL     OW 9414   3.761   1.769   2.891 -0.3398  0.2766  0.0402
 3042SOL    HW1 9415   3.698   1.699   2.856  0.2816 -0.0196 -0.5129
 3042SOL    HW2 9416   3.797   1.822   2.814  0.4116  0.1618  0.3060
 3043SOL     OW 9417   1.970   3.259   0.420  0.5739 -0.5647  0.1614
 3043SOL    HW1 9418   2.025   3.175   0.418 -0.4017 -1.2263 -0.5434
 3043SOL    HW2 9419   1.873   3.234   0.419  0.1686  0.5008  3.2861
 3044SOL     OW 9420   2.053   3.654   2.596  0.0853  0.2521 -0.2777
 3044SOL    HW1 9421   2.094   3.724   2.538 -0.1096 -0.2502 -1.0415
 3044SOL    HW2 9422   2.002   3.697   2.670  3.9865  0.9570  2.2889
 3045SOL     OW 9423   3.201   3.188   1.591 -0.0729  0.1586  0.0283
 3045SOL    HW1 9424   3.200   3.247   1.672  1.2394 -0.2487  0.3664
 3045SOL    HW2 9425   3.138   3.224   1.523 -0.5961  0.9658  0.9125
 3046SOL     OW 9426   2.557   2.080   0.012  0.1496 -0.0224  0.2513
 3046SOL    HW1 9427   2.611   2.144  -0.043  0.5937  1.0151  1.8428
 3046SOL    HW2 9428   2.596   2.073   0.103 -0.1954 -2.2086  0.3008
 3047SOL     OW 9429   2.810   3.344   1.296  0.0691  0.0413 -0.0620
 3047SOL    HW1 9430   2.871   3.366   1.372  0.2981 -1.3655  0.1856
 3047SOL    HW2 9431   2.865   3.311   1.219  0.2842  4.6928 -2.2701
 3048SOL     OW 9432   4.300   3.300   1.550  0.3946 -0.2135 -0.3165
 3048SOL    HW1 9433   4.214   3.263   1.586 -0.1914  1.0166 -0.3896
 3048SOL    HW2 9434   4.308   3.277   1.453  0.3419 -0.6519 -0.2214
 3049SOL     OW 9435   3.650   2.300   1.083  0.2693 -0.3806 -0.5257
 3049SOL    HW1 9436   3.671   2.329   1.177 -0.4961  1.5620 -0.9027
 3049SOL    HW2 9437   3.691   2.364   1.019 -0.2799 -0.9599 -1.4772
 3050SOL     OW 9438   3.250   3.099   5.777  0.0046  0.5918 -0.6731
 3050SOL    HW1 9439   3.151   3.093   5.788  0.2114 -2.3838  0.4978
 3050SOL    HW2 9440   3.273   3.109   5.680 -1.4132  2.3678 -0.8665
 3051SOL     OW 9441   2.953   3.950   1.746  0.6934 -0.1008  0.4365
 3051SOL    HW1 9442   3.024   3.889   1.711 -0.9523 -1.8385 -0.0107
 3051SOL    HW2 9443   2.925   4.013   1.673 -0.5299 -1.6406 -0.4778
 3052SOL     OW 9444   1.404   3.279   0.548  0.5067  0.9283  0.5501
 3052SOL    HW1 9445   1.375   3.197   0.595  1.3634  1.1933  1.5812
 3052SOL    HW2 9446   1.450   3.341   0.612  0.5093  1.9010 -0.3446
 3053SOL     OW 9447   3.031   3.440   2.138  0.1393  0.6438  0.3604
 3053SOL    HW1 9448   2.950   3.473   2.091 -0.7366 -1.7041  0.0906
 3053SOL    HW2 9449   3.047   3.344   2.115  1.8593  0.4827  1.9341
 3054SOL     OW 9450   2.963   2.522   1.146  0.0172  0.0673  0.2861
 3054SOL    HW1 9451   2.987   2.602   1.201  0.7235 -0.8778  1.3843
 3054SOL    HW2 9452   3.043   2.493   1.092  0.4957 -1.2528  1.6370
 3055SOL     OW 9453   2.846   1.533   1.359  0.3814  0.4416  0.0970
 3055SOL    HW1 9454   2.788   1.595   1.306  0.6388  0.1617 -0.5247
 3055SOL    HW2 9455   2.828   1.439   1.330  0.4033  0.2705  0.6347
 3056SOL     OW 9456   5.093   2.924   4.921 -0.0853  0.6091  0.0004
 3056SOL    HW1 9457   5.081   2.969   4.833 -1.1418 -1.1909 -0.8258
 3056SOL    HW2 9458   5.005   2.888   4.952  0.6671 -0.6570  0.7460
 3057SOL     OW 9459   2.059   3.652   1.999 -0.4168 -0.3815  0.0113
 3057SOL    HW1 9460   2.071   3.744   1.961  1.1009  0.6284  2.7042
 3057SOL    HW2 9461   1.962   3.634   2.012 -0.7124  1.1136  0.0334
 3058SOL     OW 9462   4.123   1.955   0.889 -0.1812 -0.4138 -0.3898
 3058SOL    HW1 9463   4.166   1.865   0.881  1.2715  0.3565 -1.7904
 3058SOL    HW2 9464   4.155   2.014   0.815  0.7819  2.0576  1.8483
 3059SOL     OW 9465   2.898   4.075   1.505 -0.0701  0.5900 -0.6516
 3059SOL    HW1 9466   2.853   4.013   1.441 -0.0824 -0.0066 -0.0755
 3059SOL    HW2 9467   2.850   4.163   1.505 -0.0967  0.5831 -1.4197
 3060SOL     OW 9468   2.480   3.016   5.198 -0.3927  0.2283 -0.1336
 3060SOL    HW1 9469   2.555   3.079   5.177 -0.8908  1.4813  1.6445
 3060SOL    HW2 9470   2.509   2.922   5.181  1.0080  0.8048 -1.0525
 3061SOL     OW 9471   3.253   3.500   0.831  0.0495 -0.5620 -0.0789
 3061SOL    HW1 9472   3.224   3.503   0.927 -0.2286  0.7510 -0.1903
 3061SOL    HW2 9473   3.316   3.575   0.812  0.1659 -0.8557 -0.9050
 3062SOL     OW 9474   4.008   1.656   1.189 -0.0177  0.3650 -0.1589
 3062SOL    HW1 9475   3.944   1.610   1.251  0.6254  0.2055  0.4007
 3062SOL    HW2 9476   3.973   1.651   1.096 -1.1852  0.9262  0.2283
 3063SOL     OW 9477   2.448   1.631   0.213  0.0657 -0.1269 -0.0244
 3063SOL    HW1 9478   2.450   1.713   0.155  2.9988 -0.1712 -0.1203
 3063SOL    HW2 9479   2.373   1.571   0.184  1.1020  0.0805 -3.4801
 3064SOL     OW 9480   3.430   3.854   5.709 -0.0974  0.1521 -0.1506
 3064SOL    HW1 9481   3.345   3.893   5.744 -0.5348  1.1492 -2.1531
 3064SOL    HW2 9482   3.409   3.769   5.660  0.1698 -0.0147  0.0254
 3065SOL     OW 9483   1.183   1.798   0.766 -0.4420 -0.2607  0.2764
 3065SOL    HW1 9484   1.178   1.824   0.670 -0.0429  0.5487  0.4708
 3065SOL    HW2 9485   1.216   1.704   0.773  0.5376  0.0277 -0.3440
 3066SOL     OW 9486   3.028   4.281   0.444  0.6447 -0.3754 -0.0128
 3066SOL    HW1 9487   3.016   4.379   0.460  2.8095  0.3305 -2.0651
 3066SOL    HW2 9488   3.118   4.264   0.403  0.2386 -3.2176  0.0227
 3067SOL     OW 9489   4.230   3.609   5.708  0.2937  0.4482  0.6531
 3067SOL    HW1 9490   4.231   3.514   5.739  3.6296  0.5155  1.1677
 3067SOL    HW2 9491   4.146   3.653   5.739 -0.8186 -2.0003  1.4045
 3068SOL     OW 9492   1.810   4.004   1.344 -0.3005 -0.1674 -0.0820
 3068SOL    HW1 9493   1.796   4.026   1.248 -0.2855 -1.3224 -0.3621
 3068SOL    HW2 9494   1.842   4.085   1.393 -1.9870  0.9148 -0.6743
 3069SOL     OW 9495   3.865   4.024   6.004  0.5412 -0.1858  0.9166
 3069SOL    HW1 9496   3.843   3.927   5.989  2.5825 -0.3150 -2.0332
 3069SOL    HW2 9497   3.792   4.081   5.966  0.0891 -0.5565  1.2208
 3070SOL     OW 9498   2.116   2.117   5.133 -0.9571  0.1887 -0.4082
 3070SOL    HW1 9499   2.140   2.020   5.136  1.6747  0.7433 -1.1195
 3070SOL    HW2 9500   2.105   2.151   5.227 -0.4179 -0.4633 -0.1013
 3071SOL     OW 9501   3.718   1.198   1.192  0.1887  0.2100 -0.0147
 3071SOL    HW1 9502   3.766   1.111   1.177 -0.7046 -0.4449  0.8164
 3071SOL    HW2 9503   3.713   1.216   1.290  0.5942  1.3486 -0.1917
 3072SOL     OW 9504   1.604   2.096   0.381  0.1790 -0.0001 -0.3276
 3072SOL    HW1 9505   1.653   2.128   0.300  2.3445 -0.4371  0.7347
 3072SOL    HW2 9506   1.661   2.108   0.462 -0.9512 -1.8260  0.8196
 3073SOL     OW 9507   3.122   1.182   1.987  0.0701 -0.1539 -0.0507
 3073SOL    HW1 9508   3.097   1.276   1.966 -0.4040 -0.1511  0.5055
 3073SOL    HW2 9509   3.198   1.154   1.928 -1.8617 -0.5159 -2.4721
 3074SOL     OW 9510   1.549   2.071   5.599  0.1143  0.2926  0.2063
 3074SOL    HW1 9511   1.599   1.996   5.643  0.3250  0.4560  0.2472
 3074SOL    HW2 9512   1.535   2.049   5.502  0.2309  0.2285  0.2036
 3075SOL     OW 9513   1.834   2.635   1.498  0.1088  0.4311  0.1254
 3075SOL    HW1 9514   1.853   2.648   1.401 -2.0688  0.8585 -0.2824
 3075SOL    HW2 9515   1.830   2.537   1.518 -0.6125  0.3287 -0.4818
 3076SOL     OW 9516   2.405   2.803   1.231 -0.4348 -0.1992 -0.1248
 3076SOL    HW1 9517   2.487   2.764   1.273 -0.6506 -0.0283  0.4630
 3076SOL    HW2 9518   2.421   2.899   1.209 -0.9970  0.2844  1.4656
 3077SOL     OW 9519   1.278   2.308   5.380 -0.8103  0.1859  0.1787
 3077SOL    HW1 9520   1.292   2.378   5.450  0.3243  1.1419 -0.9665
 3077SOL    HW2 9521   1.311   2.220   5.414  1.0225  0.8986  0.3711
 3078SOL     OW 9522   3.320   1.021   1.887  0.6711 -0.0762 -0.1493
 3078SOL    HW1 9523   3.373   1.085   1.831  1.7558 -0.4498  0.4198
 3078SOL    HW2 9524   3.263   0.965   1.828  0.8479  0.3907 -0.7755
 3079SOL     OW 9525   2.784   0.672   0.795  0.2128 -0.3540  0.6288
 3079SOL    HW1 9526   2.708   0.636   0.741  0.8449 -2.7064  1.1562
 3079SOL    HW2 9527   2.771   0.769   0.812 -0.3661  0.3690 -3.1185
 3080SOL     OW 9528   3.524   4.408   5.906  0.6998 -0.0796  0.3605
 3080SOL    HW1 9529   3.577   4.405   5.821  0.9825  1.9784  0.4186
 3080SOL    HW2 9530   3.427   4.419   5.883  0.8055  0.7667  0.2833
 3081SOL     OW 9531   2.798   2.429   1.520 -0.3037  0.5990  0.8137
 3081SOL    HW1 9532   2.715   2.417   1.576 -1.0540  3.1002  0.3541
 3081SOL    HW2 9533   2.858   2.496   1.563  0.5714  0.2663  0.1378
 3082SOL     OW 9534   4.247   3.542   1.708 -0.3696  0.2463  0.0683
 3082SOL    HW1 9535   4.277   3.458   1.663 -1.5540 -0.7525  1.0713
 3082SOL    HW2 9536   4.166   3.578   1.660 -0.2576  0.4526  0.0323
 3083SOL     OW 9537   3.381   3.297   1.172 -0.0259  0.3716 -0.1161
 3083SOL    HW1 9538   3.355   3.393   1.182 -1.5048  0.0877 -0.8877
 3083SOL    HW2 9539   3.316   3.251   1.111  1.5771 -0.7517 -1.0582
 3084SOL     OW 9540   3.086   1.432   2.419 -0.4359  0.1558 -0.0633
 3084SOL    HW1 9541   3.088   1.386   2.330  1.5967 -0.6721  0.3540
 3084SOL    HW2 9542   3.062   1.366   2.490  0.5474  0.1635  0.2976
 3085SOL     OW 9543   1.656   3.313   1.331  0.1933 -0.2349  0.3260
 3085SOL    HW1 9544   1.737   3.326   1.388  1.4855  1.8246 -1.7615
 3085SOL    HW2 9545   1.684   3.278   1.242 -1.8897 -4.6398  1.1648
 3086SOL     OW 9546   3.108   2.764   1.242 -0.5311 -0.6758  0.1546
 3086SOL    HW1 9547   3.202   2.732   1.248  0.1663  0.9659 -1.2398
 3086SOL    HW2 9548   3.081   2.804   1.330  0.7398  0.5060  0.0392
 3087SOL     OW 9549   3.729   1.822   0.421  0.0637  0.3037  0.1884
 3087SOL    HW1 9550   3.672   1.819   0.503 -2.3648  0.2273 -1.4209
 3087SOL    HW2 9551   3.684   1.773   0.347  1.9015  0.9041 -1.4152
 3088SOL     OW 9552   3.533   2.213   0.290 -0.0262 -0.2374 -0.1299
 3088SOL    HW1 9553   3.621   2.188   0.331  0.2743 -0.1850 -0.7312
 3088SOL    HW2 9554   3.530   2.312   0.277 -0.4619 -0.1578  0.5340
 3089SOL     OW 9555   4.324   1.597   2.540 -0.0907  0.0598 -0.4724
 3089SOL    HW1 9556   4.311   1.562   2.633 -0.4182  0.5207 -0.3410
 3089SOL    HW2 9557   4.397   1.546   2.496  1.8227  1.4797  0.8993
 3090SOL     OW 9558   2.836   2.896   1.785  0.6687  0.0062  0.8143
 3090SOL    HW1 9559   2.852   2.977   1.729 -0.3280 -0.3123  0.0449
 3090SOL    HW2 9560   2.748   2.904   1.832  0.4997 -0.6826  0.6274
 3091SOL     OW 9561   2.407   2.404   0.063 -0.3212  0.2611 -0.2321
 3091SOL    HW1 9562   2.493   2.419   0.015  0.8823 -1.3687  1.2936
 3091SOL    HW2 9563   2.396   2.474   0.134  0.4464 -0.3028  0.4599
 3092SOL     OW 9564   1.701   3.574   2.262  0.2973  0.2328  0.2861
 3092SOL    HW1 9565   1.610   3.537   2.243 -0.1747  0.8057  1.4107
 3092SOL    HW2 9566   1.730   3.632   2.185 -0.2633  0.0352 -0.0799
 3093SOL     OW 9567   1.751   2.325   1.490  0.2338 -0.4623 -0.1596
 3093SOL    HW1 9568   1.666   2.376   1.478 -0.3230 -1.0223  1.1762
 3093SOL    HW2 9569   1.733   2.242   1.542  1.5377 -0.8063 -0.2139
 3094SOL     OW 9570   3.644   2.516   0.444 -0.1068 -0.1520  0.3207
 3094SOL    HW1 9571   3.619   2.588   0.380  1.7780  0.5552  0.3206
 3094SOL    HW2 9572   3.572   2.505   0.512 -1.1522  0.5947 -0.6434
 3095SOL     OW 9573   4.548   3.903   0.303  0.0135 -0.0555  0.0351
 3095SOL    HW1 9574   4.468   3.936   0.254  0.3581  0.6016 -0.0975
 3095SOL    HW2 9575   4.598   3.980   0.342 -0.5153 -0.5733  1.8611
 3096SOL     OW 9576   1.740   1.996   1.190  0.0322  0.0144  0.2257
 3096SOL    HW1 9577   1.740   1.912   1.136  0.8961 -0.7730  1.3937
 3096SOL    HW2 9578   1.726   2.074   1.130  0.0658 -0.8892 -1.0062
 3097SOL     OW 9579   2.662   2.438   0.369 -0.2540 -0.3157  0.4735
 3097SOL    HW1 9580   2.701   2.463   0.281  0.2684 -0.5009  0.6502
 3097SOL    HW2 9581   2.698   2.350   0.398  0.0098  0.0019  1.1314
 3098SOL     OW 9582   1.993   3.364   0.692  0.7162  0.0728  0.5538
 3098SOL    HW1 9583   1.954   3.453   0.717 -0.3102 -0.5022  1.0475
 3098SOL    HW2 9584   1.978   3.348   0.594 -1.2145 -0.5692  0.9211
 3099SOL     OW 9585   3.031   1.319   3.171 -0.2340 -0.1333 -0.0606
 3099SOL    HW1 9586   2.936   1.293   3.181 -0.0233 -0.6489  0.6050
 3099SOL    HW2 9587   3.058   1.311   3.074 -0.6334 -0.7734 -0.1216
 3100SOL     OW 9588   2.663   1.473   0.556  0.1873 -0.5300 -0.3826
 3100SOL    HW1 9589   2.747   1.427   0.529  0.1764 -0.8346  0.0798
 3100SOL    HW2 9590   2.585   1.429   0.511  0.1716 -1.0150  0.1068
 3101SOL     OW 9591   2.926   3.996   0.873  0.2513 -0.2221 -0.3399
 3101SOL    HW1 9592   2.922   4.020   0.776  0.2150 -2.9409 -1.0916
 3101SOL    HW2 9593   3.018   3.963   0.896 -0.0713 -0.7376  0.2469
 3102SOL     OW 9594   2.415   2.015   1.567  0.1636  0.0208  0.5493
 3102SOL    HW1 9595   2.339   2.081   1.570  0.2859  0.1691  0.3815
 3102SOL    HW2 9596   2.470   2.031   1.485 -0.3369 -0.8886  0.0266
 3103SOL     OW 9597   2.753   2.496   5.055 -0.5701  0.0551 -0.4962
 3103SOL    HW1 9598   2.813   2.573   5.077 -0.8550 -0.1228  1.0162
 3103SOL    HW2 9599   2.805   2.411   5.057 -0.3158  0.1489 -1.8957
 3104SOL     OW 9600   2.162   2.448   1.130 -0.0720 -0.3498 -0.0303
 3104SOL    HW1 9601   2.073   2.438   1.174 -1.1148  2.2389 -1.3350
 3104SOL    HW2 9602   2.228   2.481   1.197 -0.7082  0.0185  0.4349
 3105SOL     OW 9603   2.014   1.304   5.617 -0.2562  0.0381 -0.0642
 3105SOL    HW1 9604   2.052   1.396   5.620 -1.2317  0.4383  0.5708
 3105SOL    HW2 9605   1.972   1.287   5.527 -0.3768  0.3464 -0.0664
 3106SOL     OW 9606   1.808   2.533   5.540 -0.6736 -0.5479  0.1981
 3106SOL    HW1 9607   1.855   2.445   5.534 -0.2109 -0.2515 -0.6075
 3106SOL    HW2 9608   1.763   2.540   5.630  0.0786 -1.1987  0.6432
 3107SOL     OW 9609   1.116   3.814   0.793  0.3043 -0.0053  0.3026
 3107SOL    HW1 9610   1.053   3.737   0.806 -0.7036  0.9170  1.1073
 3107SOL    HW2 9611   1.119   3.839   0.697  0.6182 -1.0239  0.0388
 3108SOL     OW 9612   4.130   0.748   5.542  0.5100  0.0542 -0.4099
 3108SOL    HW1 9613   4.164   0.730   5.634  0.6598  0.0926 -0.4565
 3108SOL    HW2 9614   4.155   0.672   5.482  0.9234  0.2954 -0.5499
 3109SOL     OW 9615   5.256   1.303   0.639 -0.0172 -0.2218 -0.0811
 3109SOL    HW1 9616   5.326   1.246   0.595 -0.6191  0.2117 -1.6970
 3109SOL    HW2 9617   5.216   1.254   0.716  1.6561 -0.6939  0.5346
 3110SOL     OW 9618   3.891   1.872   1.838 -0.6489  0.0977  0.2410
 3110SOL    HW1 9619   3.829   1.939   1.798 -0.2555  0.1751 -0.2542
 3110SOL    HW2 9620   3.899   1.888   1.937 -0.6383  0.7148  0.1417
 3111SOL     OW 9621   1.742   3.130   0.356  0.2606  0.3433 -0.1105
 3111SOL    HW1 9622   1.725   3.122   0.258  0.8642 -1.1374 -0.1073
 3111SOL    HW2 9623   1.762   3.040   0.395  1.6960  1.1213  1.0679
 3112SOL     OW 9624   3.434   2.978   0.878  0.1667  0.0850  0.3203
 3112SOL    HW1 9625   3.437   2.885   0.843 -0.7180  0.3952 -0.6158
 3112SOL    HW2 9626   3.527   3.015   0.881  0.5725 -0.9599  1.1067
 3113SOL     OW 9627   2.510   2.159   2.018 -0.7582 -0.3410  0.1344
 3113SOL    HW1 9628   2.436   2.209   1.972 -1.3348 -0.2938  1.0695
 3113SOL    HW2 9629   2.501   2.171   2.117  0.2743 -0.6760  0.2801
 3114SOL     OW 9630   2.926   3.203   1.885  0.3985 -0.0184  0.5747
 3114SOL    HW1 9631   2.977   3.172   1.965  2.2898  2.3274  0.3896
 3114SOL    HW2 9632   2.842   3.249   1.914  1.2542  1.1369  1.2579
 3115SOL     OW 9633   2.302   1.444   1.415  0.3108  0.1106 -0.0894
 3115SOL    HW1 9634   2.213   1.456   1.370  0.5479 -0.6048 -0.7675
 3115SOL    HW2 9635   2.327   1.347   1.414 -0.1634 -0.1268  2.5572
 3116SOL     OW 9636   2.736   2.652   2.001  0.6236  0.2909  1.0060
 3116SOL    HW1 9637   2.676   2.718   1.955 -0.2816  0.2161  2.0540
 3116SOL    HW2 9638   2.829   2.663   1.967 -0.2014 -0.6630 -1.8590
 3117SOL     OW 9639   3.315   1.984   1.447 -0.0233  0.4685 -0.6058
 3117SOL    HW1 9640   3.340   1.906   1.390  0.5336  1.3583 -1.6041
 3117SOL    HW2 9641   3.386   1.999   1.516 -1.1652 -1.2174  1.0294
 3118SOL     OW 9642   2.907   3.389   2.470 -0.4465  0.3839  0.2421
 3118SOL    HW1 9643   2.926   3.447   2.549 -1.2687  0.2278  0.5663
 3118SOL    HW2 9644   2.896   3.446   2.388  1.1712  0.4894  0.0772
 3119SOL     OW 9645   1.683   3.200   1.894  0.5870  0.1698  0.5165
 3119SOL    HW1 9646   1.761   3.146   1.926  0.8671  0.7724  0.8789
 3119SOL    HW2 9647   1.624   3.221   1.972  1.1631  1.4723  0.6243
 3120SOL     OW 9648   3.390   3.428   3.603 -0.4366 -0.1805  0.2563
 3120SOL    HW1 9649   3.334   3.459   3.526  1.1096 -0.8289 -1.2133
 3120SOL    HW2 9650   3.405   3.329   3.595  1.5541  0.0872  0.1062
 3121SOL     OW 9651   3.907   2.139   2.698  0.1126  0.1808  0.5052
 3121SOL    HW1 9652   3.956   2.081   2.763  0.9840  0.7806  0.4099
 3121SOL    HW2 9653   3.924   2.106   2.605  0.3746  0.3976  0.4713
 3122SOL     OW 9654   2.654   3.684   3.427  0.0358  0.1893 -0.3089
 3122SOL    HW1 9655   2.749   3.673   3.397  1.1492 -0.0946  2.9057
 3122SOL    HW2 9656   2.628   3.606   3.484 -1.8318  0.7378 -0.3276
 3123SOL     OW 9657   2.335   3.912   1.449  0.1851 -0.3511  0.7363
 3123SOL    HW1 9658   2.399   3.896   1.523 -0.7580 -3.4005  1.0323
 3123SOL    HW2 9659   2.248   3.868   1.470 -0.8034  0.5039 -1.2797
 3124SOL     OW 9660   1.438   3.593   3.043  0.3129  0.1960  0.2267
 3124SOL    HW1 9661   1.529   3.611   3.005 -0.7064  1.2194 -1.8931
 3124SOL    HW2 9662   1.391   3.526   2.987 -0.4204  0.0130  1.0395
 3125SOL     OW 9663   2.911   3.957   3.980 -0.1935  0.0034 -0.6016
 3125SOL    HW1 9664   2.834   3.981   4.039 -1.2044  0.0148 -1.8693
 3125SOL    HW2 9665   2.921   4.027   3.909  0.6726 -0.2658 -0.7489
 3126SOL     OW 9666   1.747   3.260   3.373  0.4744 -0.3065  0.1457
 3126SOL    HW1 9667   1.685   3.316   3.318 -1.3400 -2.8128 -0.5333
 3126SOL    HW2 9668   1.804   3.205   3.313  0.6533 -0.8219  0.7765
 3127SOL     OW 9669   4.027   2.139   4.499  0.6382  0.3389  0.5516
 3127SOL    HW1 9670   4.001   2.234   4.482  0.1127  0.6397  2.7201
 3127SOL    HW2 9671   4.002   2.083   4.420  0.3358  1.8735 -0.4852
 3128SOL     OW 9672   1.722   2.910   2.167 -0.1121  0.4356 -0.2994
 3128SOL    HW1 9673   1.735   2.834   2.103 -2.8634 -1.0036  0.7022
 3128SOL    HW2 9674   1.772   2.891   2.252 -1.0462 -0.4398  0.0651
 3129SOL     OW 9675   0.924   3.820   0.079 -0.1370  0.3706 -0.5607
 3129SOL    HW1 9676   0.881   3.732   0.102 -1.3203  1.2378  0.7356
 3129SOL    HW2 9677   0.889   3.851  -0.010  0.0662 -0.3316 -0.8911
 3130SOL     OW 9678   1.712   3.940   2.315 -0.0561  0.2950  0.4277
 3130SOL    HW1 9679   1.617   3.914   2.299 -0.1082  0.9011 -0.2958
 3130SOL    HW2 9680   1.716   4.017   2.378  0.0075 -0.2652  1.1227
 3131SOL     OW 9681   1.379   1.550   2.111 -0.1072  0.5993  0.1770
 3131SOL    HW1 9682   1.348   1.562   2.205 -0.8788  2.4256 -0.2645
 3131SOL    HW2 9683   1.328   1.612   2.051  0.3382 -0.5547 -1.4552
 3132SOL     OW 9684   2.628   1.585   2.603  0.6389 -0.2732 -0.5065
 3132SOL    HW1 9685   2.646   1.680   2.629 -0.2592 -0.5358  1.2112
 3132SOL    HW2 9686   2.575   1.582   2.518  0.7103  0.7450 -0.5943
 3133SOL     OW 9687   2.639   4.133   5.524 -0.0405  0.7498 -0.0226
 3133SOL    HW1 9688   2.613   4.174   5.437 -1.3771  1.6946  0.7678
 3133SOL    HW2 9689   2.734   4.104   5.521 -0.3954 -0.3455 -2.1783
 3134SOL     OW 9690   2.120   3.594   1.742  0.0235 -0.0563 -0.0164
 3134SOL    HW1 9691   2.113   3.496   1.724 -0.8577 -0.2707  1.3681
 3134SOL    HW2 9692   2.117   3.610   1.841  1.4772  1.2763 -0.1496
 3135SOL     OW 9693   2.966   1.980   3.100 -1.0586  0.0740 -0.5371
 3135SOL    HW1 9694   2.925   1.902   3.146  0.2442 -0.5795 -0.4512
 3135SOL    HW2 9695   2.938   1.981   3.004 -0.8735 -0.6565 -0.6007
 3136SOL     OW 9696   2.677   4.261   2.778  0.2983 -0.4129  0.5318
 3136SOL    HW1 9697   2.713   4.239   2.869  0.9510  1.4486  0.7853
 3136SOL    HW2 9698   2.725   4.207   2.709  0.9104 -0.7214  1.1851
 3137SOL     OW 9699   3.512   2.135   4.250 -0.5000 -0.0280 -0.1077
 3137SOL    HW1 9700   3.612   2.132   4.247 -0.4392 -1.5531  1.5096
 3137SOL    HW2 9701   3.476   2.042   4.241 -1.7792  0.4875 -0.5266
 3138SOL     OW 9702   3.113   2.335   3.227 -0.7843  0.4285 -0.5525
 3138SOL    HW1 9703   3.083   2.419   3.183 -0.1522  1.3111  0.6387
 3138SOL    HW2 9704   3.143   2.355   3.320  0.1627 -0.9814 -0.5210
 3139SOL     OW 9705   2.009   2.667   2.136  0.1784  0.1786  0.1277
 3139SOL    HW1 9706   2.082   2.615   2.182 -0.1149  0.6638  1.1732
 3139SOL    HW2 9707   1.976   2.739   2.197 -2.4571 -1.1701  0.4330
 3140SOL     OW 9708   1.572   3.398   3.197 -0.0330 -0.3089 -0.3031
 3140SOL    HW1 9709   1.580   3.354   3.107  0.5970 -0.1892 -0.3101
 3140SOL    HW2 9710   1.477   3.394   3.228 -0.5025  0.7232 -1.5276
 3141SOL     OW 9711   2.204   3.617   3.359 -0.3330  1.3176  0.6776
 3141SOL    HW1 9712   2.234   3.648   3.450 -0.0054 -0.2937  1.1469
 3141SOL    HW2 9713   2.107   3.591   3.364  0.3959 -1.5257  1.3586
 3142SOL     OW 9714   2.952   1.279   1.737 -0.4545 -0.3406  0.0146
 3142SOL    HW1 9715   2.896   1.360   1.721  1.1257  0.8702  0.3368
 3142SOL    HW2 9716   3.040   1.289   1.691 -1.3033 -3.2661 -2.5688
 3143SOL     OW 9717   4.316   1.871   4.697  0.2885  0.1170  0.0092
 3143SOL    HW1 9718   4.378   1.913   4.631  0.7488  0.3767  0.6053
 3143SOL    HW2 9719   4.349   1.887   4.790 -1.5515  1.8001  0.4657
 3144SOL     OW 9720   3.181   1.478   2.820  0.0888 -0.0375 -0.8775
 3144SOL    HW1 9721   3.152   1.384   2.842 -0.5141  0.5028  0.7978
 3144SOL    HW2 9722   3.256   1.504   2.882  0.2410  0.5925 -1.3244
 3145SOL     OW 9723   2.732   1.219   2.601  0.5878 -0.0666 -0.2988
 3145SOL    HW1 9724   2.751   1.200   2.504  0.9374 -1.9103  0.0975
 3145SOL    HW2 9725   2.633   1.231   2.613  0.6542  1.5029 -1.0739
 3146SOL     OW 9726   2.001   4.080   3.147 -0.2373  0.6978  0.1883
 3146SOL    HW1 9727   1.952   4.015   3.205 -0.3281  1.1675  0.6504
 3146SOL    HW2 9728   1.988   4.056   3.051 -0.2122 -0.0023  0.3534
 3147SOL     OW 9729   2.123   3.385   2.108 -0.5109  0.1917 -0.0288
 3147SOL    HW1 9730   2.081   3.390   2.199  0.3897  0.4480  0.3905
 3147SOL    HW2 9731   2.121   3.475   2.065  2.8482  1.1606  1.5374
 3148SOL     OW 9732   2.949   3.536   3.279  0.5385 -0.3350  0.3331
 3148SOL    HW1 9733   3.046   3.526   3.301  0.4461 -1.0370  0.4426
 3148SOL    HW2 9734   2.903   3.449   3.292  0.1493 -0.3495 -1.0748
 3149SOL     OW 9735   2.596   1.996   1.350 -0.3519 -0.0677  0.4668
 3149SOL    HW1 9736   2.683   2.027   1.311 -1.2729 -1.1181 -2.6357
 3149SOL    HW2 9737   2.521   2.030   1.295 -1.8440 -0.8146  1.9615
 3150SOL     OW 9738   2.678   0.153   2.472  0.4418 -0.1280 -0.1142
 3150SOL    HW1 9739   2.623   0.124   2.394 -1.1519  0.7244  0.6404
 3150SOL    HW2 9740   2.745   0.082   2.494  0.4157 -0.7033 -1.7696
 3151SOL     OW 9741   1.840   3.146   2.163  0.3753 -0.2120  0.1869
 3151SOL    HW1 9742   1.779   3.067   2.165  0.3812 -0.2383 -0.6979
 3151SOL    HW2 9743   1.802   3.218   2.222 -0.1832 -0.4705  0.1492
 3152SOL     OW 9744   2.090   1.351   2.662 -0.0136 -0.3969  0.1441
 3152SOL    HW1 9745   2.028   1.425   2.634  0.1121 -0.4534 -0.2981
 3152SOL    HW2 9746   2.184   1.385   2.658  0.0627 -0.6451 -0.2952
 3153SOL     OW 9747   1.588   4.955   2.300 -0.3667  0.2414 -0.1805
 3153SOL    HW1 9748   1.682   4.983   2.315 -0.0447 -1.6900  1.9262
 3153SOL    HW2 9749   1.534   4.972   2.383 -0.5735 -3.2772  0.5918
 3154SOL     OW 9750   2.725   1.433   2.288  0.0252 -1.0330  0.4493
 3154SOL    HW1 9751   2.647   1.459   2.345  2.1743  2.4990  2.1163
 3154SOL    HW2 9752   2.756   1.342   2.314 -1.1471 -0.8965  2.5567
 3155SOL     OW 9753   2.098   4.215   2.678  0.1331 -0.1494  0.5729
 3155SOL    HW1 9754   2.172   4.167   2.725  0.6358  0.9286  0.9051
 3155SOL    HW2 9755   2.020   4.224   2.740 -0.2187 -1.1172  0.2855
 3156SOL     OW 9756   2.094   3.104   2.276  0.0915 -0.0197  0.4057
 3156SOL    HW1 9757   2.005   3.124   2.234 -0.0153 -2.6095 -0.7690
 3156SOL    HW2 9758   2.167   3.126   2.211  0.2634  0.9342  0.9043
 3157SOL     OW 9759   2.230   0.442   1.505  0.1346  0.0966 -0.4561
 3157SOL    HW1 9760   2.213   0.433   1.603  0.6465  0.8536 -0.2937
 3157SOL    HW2 9761   2.209   0.355   1.460  0.3483 -0.4054  0.3898
 3158SOL     OW 9762   3.319   2.148   2.831  0.3029  0.5351 -0.6043
 3158SOL    HW1 9763   3.227   2.176   2.803  1.0053  2.0497 -1.4629
 3158SOL    HW2 9764   3.314   2.058   2.875 -1.8364  1.3451  0.9652
 3159SOL     OW 9765   1.871   2.435   2.111 -0.1108 -0.1973  0.2343
 3159SOL    HW1 9766   1.888   2.393   2.021  0.2733 -2.2176  1.2040
 3159SOL    HW2 9767   1.945   2.500   2.131 -1.4040  2.1415 -1.8702
 3160SOL     OW 9768   2.673   2.154   3.733  0.0633  0.1660  0.4845
 3160SOL    HW1 9769   2.705   2.112   3.648 -2.0025  0.5179 -0.5358
 3160SOL    HW2 9770   2.736   2.133   3.807  0.7404 -2.0526 -0.6504
 3161SOL     OW 9771   2.649   3.385   3.029  0.1698  0.2374  1.0821
 3161SOL    HW1 9772   2.553   3.409   3.019  0.0016 -0.0774  1.9268
 3161SOL    HW2 9773   2.705   3.452   2.979 -0.5074  0.0891  0.0955
 3162SOL     OW 9774   3.191   2.424   3.484  0.1445 -0.0298  0.1177
 3162SOL    HW1 9775   3.281   2.469   3.489  0.3198  0.0079 -2.4041
 3162SOL    HW2 9776   3.170   2.385   3.574  2.3660  0.5206  0.9731
 3163SOL     OW 9777   2.653   3.355   2.585  0.3164 -0.0772  0.3833
 3163SOL    HW1 9778   2.670   3.333   2.681  0.3688 -0.1433  0.3586
 3163SOL    HW2 9779   2.736   3.341   2.532  0.3126  0.0465  0.3429
 3164SOL     OW 9780   3.046   1.729   2.676 -0.3613 -0.5783 -0.4589
 3164SOL    HW1 9781   3.085   1.657   2.733 -0.6058 -1.2235 -1.0919
 3164SOL    HW2 9782   3.007   1.689   2.593 -2.2334  0.0661  0.0573
 3165SOL     OW 9783   3.437   3.794   1.915 -0.2650 -0.4457 -0.3433
 3165SOL    HW1 9784   3.422   3.719   1.980  0.6252  0.7193  1.2953
 3165SOL    HW2 9785   3.377   3.871   1.938 -1.0023 -0.5404 -1.8524
 3166SOL     OW 9786   2.037   2.840   3.503  0.3788  0.2526  0.0035
 3166SOL    HW1 9787   2.064   2.748   3.532 -0.7937  0.2672  1.2504
 3166SOL    HW2 9788   2.118   2.898   3.498  1.1935 -0.9275 -1.2072
 3167SOL     OW 9789   3.002   2.243   2.741 -0.0623  0.6166 -0.4838
 3167SOL    HW1 9790   2.991   2.333   2.783  2.2936  1.3624 -1.3052
 3167SOL    HW2 9791   2.970   2.246   2.646  1.6326  1.1813 -1.0888
 3168SOL     OW 9792   2.245   4.291   1.559 -0.3576  0.0816 -0.6335
 3168SOL    HW1 9793   2.319   4.241   1.515  0.3111  2.2006 -2.0849
 3168SOL    HW2 9794   2.161   4.236   1.554  0.5138 -1.2622 -1.3010
 3169SOL     OW 9795   2.799   3.319   3.269  0.3609 -0.7353 -0.5763
 3169SOL    HW1 9796   2.747   3.253   3.322 -0.2106  0.2831  0.1786
 3169SOL    HW2 9797   2.762   3.325   3.176 -0.3477 -0.6305 -0.2924
 3170SOL     OW 9798   2.316   2.288   1.840  0.1127 -0.5696 -0.4320
 3170SOL    HW1 9799   2.341   2.385   1.833 -0.3605 -0.4259 -0.1842
 3170SOL    HW2 9800   2.291   2.255   1.749  2.5967 -1.1262 -0.9822
 3171SOL     OW 9801   2.499   2.786   2.720 -1.0390 -0.4335  0.0424
 3171SOL    HW1 9802   2.597   2.777   2.701 -0.6347 -1.9037  2.2690
 3171SOL    HW2 9803   2.453   2.828   2.643  1.6237  2.0814 -0.3470
 3172SOL     OW 9804   3.250   1.474   3.642 -0.2730  0.1052 -0.4035
 3172SOL    HW1 9805   3.312   1.531   3.588 -0.4662  1.1521  0.4329
 3172SOL    HW2 9806   3.301   1.435   3.719 -0.7471  1.5231  0.6836
 3173SOL     OW 9807   3.168   2.605   2.319 -0.2149 -0.4512 -1.1238
 3173SOL    HW1 9808   3.095   2.551   2.277 -0.8551 -0.8516  0.4643
 3173SOL    HW2 9809   3.237   2.544   2.358 -0.9124 -0.1869  0.6228
 3174SOL     OW 9810   1.467   3.489   0.818  0.0065  0.8364  0.6013
 3174SOL    HW1 9811   1.435   3.562   0.878 -1.1879  0.1885  0.7832
 3174SOL    HW2 9812   1.563   3.468   0.839  0.0233  1.5734  1.3013
 3175SOL     OW 9813   2.626   0.767   2.397 -0.0754  0.3309  0.2458
 3175SOL    HW1 9814   2.542   0.796   2.443  0.8223  3.0168  0.3452
 3175SOL    HW2 9815   2.697   0.748   2.464 -0.1605 -0.4969  0.1100
 3176SOL     OW 9816   2.856   1.445   2.742 -0.2268 -0.5509 -0.0760
 3176SOL    HW1 9817   2.918   1.413   2.670  0.4147  0.7308 -0.1071
 3176SOL    HW2 9818   2.782   1.497   2.700  0.4600  0.6890  0.2213
 3177SOL     OW 9819   3.736   3.094   3.482 -0.0697  0.1830  0.0544
 3177SOL    HW1 9820   3.754   3.026   3.553 -0.1649  1.3092  1.2020
 3177SOL    HW2 9821   3.647   3.076   3.440 -1.6123  1.3348  2.5421
 3178SOL     OW 9822   2.002   2.202   1.908  0.3730  0.9861  0.5799
 3178SOL    HW1 9823   2.046   2.266   1.846 -2.3032  0.8694 -1.6246
 3178SOL    HW2 9824   1.990   2.114   1.863 -1.2646  0.7562  1.3801
 3179SOL     OW 9825   1.954   3.165   1.909 -0.0485  0.2145 -1.0034
 3179SOL    HW1 9826   2.030   3.100   1.903  0.4889  0.9348 -2.6692
 3179SOL    HW2 9827   1.914   3.161   2.000  0.6386 -1.6867 -0.7414
 3180SOL     OW 9828   3.493   2.483   3.811 -0.3207 -0.4596  0.1597
 3180SOL    HW1 9829   3.444   2.566   3.784  0.6696  0.0717 -0.0611
 3180SOL    HW2 9830   3.503   2.423   3.732  1.2933  0.4354 -0.3613
 3181SOL     OW 9831   1.479   2.815   3.535 -0.3141  0.1668  0.3493
 3181SOL    HW1 9832   1.407   2.795   3.468  0.4978 -0.6957 -0.3007
 3181SOL    HW2 9833   1.568   2.791   3.495  0.1642 -0.6464  1.8408
 3182SOL     OW 9834   1.926   2.971   2.681  0.1815 -0.4691  0.0847
 3182SOL    HW1 9835   1.867   2.938   2.607  1.8091 -1.0409 -1.0102
 3182SOL    HW2 9836   2.004   2.909   2.692  1.2478  0.9245  0.6421
 3183SOL     OW 9837   4.044   1.843   2.268 -0.6877 -0.0155  0.1916
 3183SOL    HW1 9838   3.982   1.796   2.330 -0.5858  1.6506  1.6223
 3183SOL    HW2 9839   4.116   1.779   2.237 -0.2992 -0.7113  2.3867
 3184SOL     OW 9840   2.721   3.239   2.810 -0.2717  0.3455 -0.3488
 3184SOL    HW1 9841   2.789   3.171   2.835 -2.8520 -1.6422  1.9276
 3184SOL    HW2 9842   2.675   3.272   2.892 -2.5192  1.0508 -1.7936
 3185SOL     OW 9843   3.616   2.719   3.047 -0.4405 -0.0396  0.3125
 3185SOL    HW1 9844   3.706   2.675   3.049 -0.5266 -0.4045 -1.7441
 3185SOL    HW2 9845   3.617   2.798   3.108  1.2900 -0.0307  0.3438
 3186SOL     OW 9846   2.208   2.027   2.579 -0.3417 -0.0675 -0.0977
 3186SOL    HW1 9847   2.111   2.016   2.599 -0.0542 -0.3688  1.2906
 3186SOL    HW2 9848   2.258   1.946   2.613  0.2986 -0.3246 -1.5839
 3187SOL     OW 9849   1.608   3.904   2.607  0.6011 -0.2087 -0.4584
 3187SOL    HW1 9850   1.553   3.896   2.690  1.5508  1.2187  0.3513
 3187SOL    HW2 9851   1.633   3.812   2.575 -1.4719 -0.8498 -0.3707
 3188SOL     OW 9852   2.628   1.767   2.200  0.3002 -0.8348  0.8627
 3188SOL    HW1 9853   2.714   1.777   2.150  0.5828  0.1572  1.5153
 3188SOL    HW2 9854   2.618   1.843   2.265 -1.2626 -0.7032  0.5066
 3189SOL     OW 9855   1.905   1.938   2.907 -0.4213  0.0101 -0.5475
 3189SOL    HW1 9856   1.824   1.897   2.949  0.4261 -1.6615 -0.4624
 3189SOL    HW2 9857   1.930   2.021   2.957 -0.9791 -0.5048  0.6384
 3190SOL     OW 9858   0.911   2.178   3.985  0.0905  0.1719  0.0441
 3190SOL    HW1 9859   0.857   2.148   4.064 -0.3190  2.9208  0.9344
 3190SOL    HW2 9860   0.963   2.260   4.010  0.4001  0.7870 -2.3685
 3191SOL     OW 9861   3.676   2.632   3.539 -0.3213  0.4769 -0.3350
 3191SOL    HW1 9862   3.755   2.595   3.588 -1.0767  1.1732  1.4900
 3191SOL    HW2 9863   3.703   2.657   3.446  0.9831 -1.5709 -0.5643
 3192SOL     OW 9864   1.755   2.853   2.498  0.0340 -0.2832  0.1172
 3192SOL    HW1 9865   1.716   2.762   2.480 -0.9450  0.2618 -0.6695
 3192SOL    HW2 9866   1.689   2.923   2.470  0.7389  0.6757  0.7952
 3193SOL     OW 9867   3.616   2.076   2.673 -0.4615  0.2001 -0.0913
 3193SOL    HW1 9868   3.715   2.072   2.687 -0.6187 -1.5984  0.7984
 3193SOL    HW2 9869   3.577   2.146   2.733  0.0418 -0.6533  1.2778
 3194SOL     OW 9870   3.257   4.041   4.253  0.1955 -0.2841  0.0389
 3194SOL    HW1 9871   3.316   4.096   4.313  2.1202 -1.4370 -0.6993
 3194SOL    HW2 9872   3.204   3.977   4.309  1.1616 -0.6116  0.6075
 3195SOL     OW 9873   3.762   3.364   3.597  0.3119  0.1659 -0.0058
 3195SOL    HW1 9874   3.725   3.277   3.565 -1.4484  0.9341 -0.1481
 3195SOL    HW2 9875   3.775   3.426   3.520  1.8884 -0.0476  0.0504
 3196SOL     OW 9876   3.207   1.032   3.429  0.1205  0.4541 -0.4772
 3196SOL    HW1 9877   3.124   0.977   3.416 -0.4965  1.1061  0.4969
 3196SOL    HW2 9878   3.235   1.072   3.342 -0.4194 -0.0211 -0.8744
 3197SOL     OW 9879   3.256   2.399   2.505 -0.0606  0.3069  0.0520
 3197SOL    HW1 9880   3.290   2.457   2.578  0.8519  2.0270 -1.6452
 3197SOL    HW2 9881   3.307   2.313   2.503 -0.5040 -0.0158  1.7630
 3198SOL     OW 9882   2.362   3.047   1.688 -0.1664  0.3241  0.0188
 3198SOL    HW1 9883   2.422   2.972   1.659 -0.3909 -0.5597  1.6908
 3198SOL    HW2 9884   2.280   3.048   1.631  1.2200  1.3601 -2.1072
 3199SOL     OW 9885   1.883   1.965   2.177  0.0041 -0.7426  0.8541
 3199SOL    HW1 9886   1.972   1.989   2.137 -0.3030  0.5594  0.9091
 3199SOL    HW2 9887   1.825   1.924   2.107 -0.1718  0.5846  0.1908
 3200SOL     OW 9888   3.795   1.058   3.855  0.0329 -0.3912  0.6011
 3200SOL    HW1 9889   3.726   1.007   3.804  0.6524 -1.5194  0.8738
 3200SOL    HW2 9890   3.827   1.135   3.799 -0.0572 -0.9860 -0.2970
 3201SOL     OW 9891   2.462   2.024   3.860  0.0552  0.3427 -0.3924
 3201SOL    HW1 9892   2.523   2.077   3.801 -0.0423 -1.0629 -1.8223
 3201SOL    HW2 9893   2.495   1.929   3.865 -0.4915  0.1997  1.0526
 3202SOL     OW 9894   2.435   2.889   2.470  0.3609  0.1931 -0.1966
 3202SOL    HW1 9895   2.439   2.989   2.470  0.9056  0.2026  1.6046
 3202SOL    HW2 9896   2.341   2.860   2.453  0.2018  0.9979 -0.7691
 3203SOL     OW 9897   0.778   3.814   2.222  0.6485  0.0311  0.1391
 3203SOL    HW1 9898   0.686   3.799   2.259 -0.0380  1.0090 -1.0854
 3203SOL    HW2 9899   0.809   3.731   2.176  0.5142 -0.4002  0.8088
 3204SOL     OW 9900   0.890   3.165   2.652  0.0149  0.2543  0.4398
 3204SOL    HW1 9901   0.920   3.083   2.702 -0.9773  0.4630  1.4167
 3204SOL    HW2 9902   0.926   3.246   2.698 -0.2048  0.4190  0.3219
 3205SOL     OW 9903   3.416   2.573   3.501  0.3972 -0.1572  0.3144
 3205SOL    HW1 9904   3.505   2.581   3.545  1.4989 -1.7065 -1.4696
 3205SOL    HW2 9905   3.426   2.586   3.402 -1.3367 -0.4893  0.0521
 3206SOL     OW 9906   0.941   1.242   0.722 -0.2383  0.5195 -0.2561
 3206SOL    HW1 9907   0.912   1.330   0.762 -0.2543  0.2569  0.3249
 3206SOL    HW2 9908   0.909   1.168   0.781 -0.3733  0.1143 -0.8378
 3207SOL     OW 9909   4.459   2.662   3.730  0.4373  0.8991 -0.2378
 3207SOL    HW1 9910   4.550   2.676   3.692  0.3651  0.8408 -0.4358
 3207SOL    HW2 9911   4.459   2.584   3.791  0.7330  1.4622  0.4961
 3208SOL     OW 9912   2.703   3.827   4.543  0.5577 -0.6785  0.5300
 3208SOL    HW1 9913   2.731   3.734   4.522 -2.5855 -1.8767  1.0897
 3208SOL    HW2 9914   2.634   3.826   4.615 -1.2430  1.8637 -0.9868
 3209SOL     OW 9915   2.715   3.206   3.631 -0.4058 -0.1569 -0.1062
 3209SOL    HW1 9916   2.687   3.190   3.536  0.2334  1.5820 -0.6447
 3209SOL    HW2 9917   2.704   3.123   3.684  1.6314 -1.9404 -2.2887
 3210SOL     OW 9918   2.322   2.683   2.895  0.1751  0.1261  0.3592
 3210SOL    HW1 9919   2.382   2.729   2.830  1.3613  1.0034  1.9799
 3210SOL    HW2 9920   2.354   2.702   2.988 -1.3870 -1.1594  1.2063
 3211SOL     OW 9921   2.372   3.403   3.708  0.5896  0.9905 -0.4720
 3211SOL    HW1 9922   2.338   3.494   3.684  0.6937  1.0995 -0.2029
 3211SOL    HW2 9923   2.377   3.347   3.625 -2.1172  0.3440 -0.2966
 3212SOL     OW 9924   3.564   1.433   2.570  0.4580  0.3950  0.1880
 3212SOL    HW1 9925   3.465   1.435   2.572  0.4281  0.2258 -0.7578
 3212SOL    HW2 9926   3.597   1.345   2.604  0.2465  0.1013 -0.3598
 3213SOL     OW 9927   1.720   1.800   3.061 -0.7158 -0.2602  0.6056
 3213SOL    HW1 9928   1.746   1.741   3.137 -0.2946  0.3903  0.9705
 3213SOL    HW2 9929   1.659   1.749   2.999 -0.8032 -0.8949  1.1994
 3214SOL     OW 9930   2.073   3.162   3.392  0.0664  0.9571 -0.6779
 3214SOL    HW1 9931   2.120   3.233   3.340  1.2104 -2.0113 -4.0803
 3214SOL    HW2 9932   2.140   3.096   3.426 -1.2159 -0.4558 -0.7953
 3215SOL     OW 9933   3.539   2.306   2.829  0.7385 -1.1237  0.3020
 3215SOL    HW1 9934   3.502   2.382   2.775 -0.4467 -2.1819 -0.4264
 3215SOL    HW2 9935   3.465   2.244   2.854  1.5769 -1.6686  1.5209
 3216SOL     OW 9936   0.777   3.385   4.722  0.4264 -0.3633  0.3598
 3216SOL    HW1 9937   0.741   3.389   4.815  2.4322  1.0139  1.1626
 3216SOL    HW2 9938   0.702   3.370   4.657 -1.3552  0.9798  1.9906
 3217SOL     OW 9939   2.641   3.128   3.389  0.5263 -0.0620  0.5276
 3217SOL    HW1 9940   2.553   3.168   3.416  0.2598 -0.5593  0.3956
 3217SOL    HW2 9941   2.633   3.029   3.384  1.1470 -0.1283  0.7013
 3218SOL     OW 9942   1.494   1.617   1.567  0.4635  0.2386 -0.1958
 3218SOL    HW1 9943   1.456   1.563   1.492 -0.1080 -0.4439  0.5610
 3218SOL    HW2 9944   1.449   1.591   1.653  0.6794  1.4238  0.2996
 3219SOL     OW 9945   4.064   4.408   3.470 -0.3419  0.3830 -0.1150
 3219SOL    HW1 9946   4.105   4.350   3.399 -1.3428  0.7159 -1.0031
 3219SOL    HW2 9947   4.063   4.503   3.438 -1.8755  0.3741 -0.1824
 3220SOL     OW 9948   3.750   2.325   3.566  0.0813 -0.5282  0.4329
 3220SOL    HW1 9949   3.785   2.329   3.472 -1.1518 -1.3043 -0.0781
 3220SOL    HW2 9950   3.650   2.322   3.564  0.0697 -2.2394  1.7097
 3221SOL     OW 9951   2.287   3.163   2.085 -0.2470 -0.2230  0.3946
 3221SOL    HW1 9952   2.233   3.247   2.084 -0.4944 -0.3754  0.9908
 3221SOL    HW2 9953   2.380   3.184   2.114 -0.2055 -0.0961  0.1747
 3222SOL     OW 9954   2.690   3.681   1.729 -0.0983 -0.2325 -0.2517
 3222SOL    HW1 9955   2.613   3.618   1.723 -1.2189  0.8724  1.6513
 3222SOL    HW2 9956   2.675   3.758   1.667  0.0983 -0.6219 -0.7920
 3223SOL     OW 9957   4.355   2.240   2.279 -0.0119  0.1901  0.1071
 3223SOL    HW1 9958   4.345   2.218   2.376 -0.4287  1.7053  0.4345
 3223SOL    HW2 9959   4.406   2.167   2.233  0.8299 -0.2024  1.6040
 3224SOL     OW 9960   3.670   2.384   1.324 -0.2682  0.2780 -0.0881
 3224SOL    HW1 9961   3.708   2.477   1.326  1.6407 -0.4500 -0.7448
 3224SOL    HW2 9962   3.735   2.321   1.367 -1.6481 -0.7412  0.5620
 3225SOL     OW 9963   1.932   3.557   3.373  0.2385  0.2536  0.1605
 3225SOL    HW1 9964   1.923   3.577   3.470 -2.0729 -0.7728  0.2381
 3225SOL    HW2 9965   1.841   3.557   3.331  1.2388  1.4445 -2.1926
 3226SOL     OW 9966   3.082   1.889   2.367 -0.0324 -0.2118  0.1789
 3226SOL    HW1 9967   3.142   1.898   2.447 -1.6863  0.4281  1.4210
 3226SOL    HW2 9968   3.018   1.813   2.382 -1.3667  0.8683  0.2036
 3227SOL     OW 9969   2.415   2.792   2.114  0.1505 -0.4058 -0.0758
 3227SOL    HW1 9970   2.377   2.699   2.118  3.0201 -1.9780 -3.5118
 3227SOL    HW2 9971   2.490   2.800   2.179 -2.4502  0.9886  3.0051
 3228SOL     OW 9972   3.981   0.821   3.856  0.3258 -0.5487 -0.3912
 3228SOL    HW1 9973   4.059   0.823   3.919  0.1512 -0.0970 -0.1858
 3228SOL    HW2 9974   3.915   0.891   3.883  0.7539  0.4118 -1.7246
 3229SOL     OW 9975   2.802   3.405   1.627 -0.3849 -0.2981  0.2139
 3229SOL    HW1 9976   2.764   3.495   1.648  0.1360  0.2281 -1.0111
 3229SOL    HW2 9977   2.746   3.334   1.670 -0.1952  0.6341  2.1042
 3230SOL     OW 9978   2.348   3.702   3.147 -0.9295  0.0748 -0.3887
 3230SOL    HW1 9979   2.408   3.778   3.171 -0.0257 -0.5658 -0.5509
 3230SOL    HW2 9980   2.294   3.675   3.227 -1.9037  1.4246 -0.5536
 3231SOL     OW 9981   2.639   2.152   3.379 -0.1400  0.0724 -0.1125
 3231SOL    HW1 9982   2.722   2.195   3.344 -0.2017  0.9721  0.7909
 3231SOL    HW2 9983   2.559   2.199   3.341 -0.2734 -1.1274 -1.3991
 3232SOL     OW 9984   2.501   2.320   1.327  0.3837 -0.1262  0.0143
 3232SOL    HW1 9985   2.469   2.238   1.279 -1.2979 -1.2266  2.7702
 3232SOL    HW2 9986   2.598   2.336   1.305  0.7706 -2.8525 -0.6167
 3233SOL     OW 9987   1.717   0.375   2.729  0.8447 -0.5688 -0.2954
 3233SOL    HW1 9988   1.672   0.358   2.641 -1.0173  0.8347  0.3079
 3233SOL    HW2 9989   1.783   0.450   2.719 -0.6961  0.8813 -0.1977
 3234SOL     OW 9990   3.405   3.975   2.630 -0.1337 -0.7488 -0.9976
 3234SOL    HW1 9991   3.345   4.040   2.584  0.3547 -0.5345 -1.3428
 3234SOL    HW2 9992   3.384   3.882   2.601 -1.3372 -0.8391  0.0489
 3235SOL     OW 9993   3.551   4.372   2.992  0.4523  0.9798  0.0748
 3235SOL    HW1 9994   3.555   4.452   2.932 -0.8808  0.7033 -0.4037
 3235SOL    HW2 9995   3.464   4.370   3.041  0.6795  0.0951  0.4794
 3236SOL     OW 9996   2.812   2.409   3.839 -0.3693  0.2662  0.3817
 3236SOL    HW1 9997   2.742   2.362   3.786 -0.3037 -0.5212  0.9654
 3236SOL    HW2 9998   2.885   2.344   3.862 -0.5213  0.5174  1.6395
 3237SOL     OW 9999   2.076   3.166   3.675 -0.7381 -0.4572  0.5157
 3237SOL    HW110000   2.156   3.109   3.697  1.0271  1.9980  0.8898
 3237SOL    HW210001   2.070   3.176   3.576 -0.5370 -0.5990  0.4868
 3238SOL     OW10002   3.542   2.762   2.791  0.3254  0.0974  0.1270
 3238SOL    HW110003   3.450   2.799   2.797 -0.1999 -1.1642  0.1763
 3238SOL    HW210004   3.578   2.748   2.884  0.3363  0.0335  0.1129
 3239SOL     OW10005   2.885   1.553   2.991 -0.1809 -0.0011 -0.2456
 3239SOL    HW110006   2.979   1.564   3.025  0.3492 -2.7308 -0.5902
 3239SOL    HW210007   2.887   1.534   2.893 -0.6692 -3.5415  0.2839
 3240SOL     OW10008   1.475   3.138   3.443  0.1714  0.3621 -0.5616
 3240SOL    HW110009   1.567   3.104   3.423  0.0715 -0.3885  0.1812
 3240SOL    HW210010   1.479   3.199   3.521  0.3980  2.4006 -2.0924
 3241SOL     OW10011   2.933   1.971   2.828  0.7258  0.3568 -0.4270
 3241SOL    HW110012   2.950   2.070   2.823 -0.4482  0.6945  1.4121
 3241SOL    HW210013   2.990   1.924   2.760  0.0893  2.4116 -2.5050
 3242SOL     OW10014   3.671   2.570   2.415 -0.0004  0.2074 -0.6385
 3242SOL    HW110015   3.659   2.517   2.331  2.3168  3.1222 -3.0639
 3242SOL    HW210016   3.612   2.650   2.412 -0.5224 -0.0800  1.0223
 3243SOL     OW10017   2.545   4.200   2.171 -0.3809 -0.1043 -0.3656
 3243SOL    HW110018   2.539   4.299   2.157 -1.7609 -0.0909  0.1666
 3243SOL    HW210019   2.468   4.169   2.228 -0.4077 -1.5972 -1.1512
 3244SOL     OW10020   2.261   4.686   1.329  0.0789  0.6260  0.3757
 3244SOL    HW110021   2.279   4.763   1.268 -2.2212 -0.0405 -1.2765
 3244SOL    HW210022   2.196   4.715   1.400 -0.2968  0.3863  0.1318
 3245SOL     OW10023   1.836   1.485   1.680  0.2079  0.2295 -0.1400
 3245SOL    HW110024   1.831   1.455   1.585 -0.1386  1.2575 -0.4668
 3245SOL    HW210025   1.893   1.423   1.732  1.4943  0.3842 -1.3192
 3246SOL     OW10026   1.739   3.983   3.070  0.8280 -0.2603 -0.9557
 3246SOL    HW110027   1.779   3.952   3.156  0.8681 -0.1732 -0.9431
 3246SOL    HW210028   1.640   3.992   3.080  0.8768  0.1032 -0.8125
 3247SOL     OW10029   2.211   3.713   2.214  0.3397  0.4209 -0.1917
 3247SOL    HW110030   2.158   3.777   2.269 -0.8489 -2.9382  2.9382
 3247SOL    HW210031   2.151   3.671   2.146  0.0806 -0.1827  0.3999
 3248SOL     OW10032   2.389   4.037   3.653  0.3910  0.9530 -0.6214
 3248SOL    HW110033   2.421   4.119   3.700  1.4858  0.8353 -1.1320
 3248SOL    HW210034   2.458   3.965   3.661  0.2302  0.6599 -1.7052
 3249SOL     OW10035   3.557   1.652   4.209  0.0877  0.3683  0.3276
 3249SOL    HW110036   3.573   1.580   4.142 -1.6759  0.5687 -0.3689
 3249SOL    HW210037   3.515   1.613   4.291 -0.7298  0.5452  0.0089
 3250SOL     OW10038   2.716   1.497   2.018 -0.3705 -0.3974 -0.7956
 3250SOL    HW110039   2.737   1.475   2.113  0.3009 -1.0560 -1.0880
 3250SOL    HW210040   2.652   1.430   1.981 -0.3225 -0.3696 -0.9293
 3251SOL     OW10041   2.129   3.518   1.197 -0.0331  0.1711  0.5200
 3251SOL    HW110042   2.174   3.546   1.112 -3.2117  0.6434 -1.1272
 3251SOL    HW210043   2.163   3.427   1.224  1.4468  0.2526 -0.9026
 3252SOL     OW10044   3.687   1.769   3.369 -0.0500  0.1574  0.1338
 3252SOL    HW110045   3.600   1.791   3.413 -0.4689  0.4037 -0.7839
 3252SOL    HW210046   3.677   1.778   3.270  1.7272  2.7909  0.1089
 3253SOL     OW10047   3.166   2.095   4.191  0.2884 -0.1995  0.1775
 3253SOL    HW110048   3.249   2.151   4.195  0.0990  0.0420  0.9062
 3253SOL    HW210049   3.096   2.143   4.138  0.7874 -0.6505 -0.9172
 3254SOL     OW10050   3.091   4.735   2.556 -0.1707  0.4827  0.3486
 3254SOL    HW110051   3.042   4.822   2.549 -1.7160 -0.3242  0.6853
 3254SOL    HW210052   3.061   4.674   2.483  2.9314  1.1119 -1.6560
 3255SOL     OW10053   4.777   1.374   2.515  0.3771  0.3602  0.4161
 3255SOL    HW110054   4.730   1.286   2.519 -0.8918  1.0099  0.1549
 3255SOL    HW210055   4.813   1.396   2.606  0.7890 -0.4626  0.4612
 3256SOL     OW10056   2.921   2.501   2.771 -0.0164  0.5425  0.0762
 3256SOL    HW110057   2.928   2.505   2.671  0.4662 -0.1954  0.0727
 3256SOL    HW210058   2.874   2.583   2.804 -0.2659  0.7483 -0.7604
 3257SOL     OW10059   4.331   1.465   2.786  0.0900  0.1941  0.2837
 3257SOL    HW110060   4.234   1.440   2.793  0.4665 -1.3966  0.0439
 3257SOL    HW210061   4.388   1.388   2.813  1.3162  1.4379  1.4339
 3258SOL     OW10062   1.862   2.679   1.248  0.0317 -0.2563  0.0900
 3258SOL    HW110063   1.771   2.717   1.228  1.0642  3.3075  1.4071
 3258SOL    HW210064   1.921   2.690   1.168  0.6869  2.4925  0.8235
 3259SOL     OW10065   2.113   3.327   1.749  0.1486 -0.2514  0.5236
 3259SOL    HW110066   2.196   3.273   1.764 -0.8615 -1.9090  0.4552
 3259SOL    HW210067   2.042   3.296   1.813 -0.1252  1.8231  1.2725
 3260SOL     OW10068   2.345   1.211   5.430  0.4541 -0.8174 -0.3080
 3260SOL    HW110069   2.406   1.146   5.385  0.1351 -2.6282  1.7469
 3260SOL    HW210070   2.396   1.264   5.497 -0.0034 -1.7192  0.7859
 3261SOL     OW10071   2.034   2.610   5.148 -0.0321  0.4763  0.0495
 3261SOL    HW110072   2.130   2.580   5.149  0.0991  0.8914  0.7530
 3261SOL    HW210073   1.977   2.537   5.111  0.5060  0.0570  0.0306
 3262SOL     OW10074   3.901   4.863   5.598  0.3041  0.6448  0.3237
 3262SOL    HW110075   3.969   4.917   5.647  0.5037 -0.5661  1.4039
 3262SOL    HW210076   3.823   4.846   5.657  0.5750 -0.8997  0.2710
 3263SOL     OW10077   3.341   2.832   3.456  0.0569  0.0216  0.4228
 3263SOL    HW110078   3.393   2.747   3.467  0.8632  0.3845 -0.5104
 3263SOL    HW210079   3.400   2.903   3.419 -0.9545  0.6143 -0.0935
 3264SOL     OW10080   3.986   3.035   4.450  0.4946  1.0314  0.0203
 3264SOL    HW110081   3.963   3.022   4.354 -0.4352  2.7504 -0.0388
 3264SOL    HW210082   4.058   3.104   4.458  1.0485  0.4149  0.5410
 3265SOL     OW10083   1.081   2.850   5.026  0.0852 -0.1017 -0.1033
 3265SOL    HW110084   1.100   2.754   5.004 -1.8757 -0.4905 -0.3395
 3265SOL    HW210085   0.995   2.856   5.077 -0.2622  1.5836 -0.8152
 3266SOL     OW10086   2.886   2.144   5.597 -0.3720 -0.3491  0.0118
 3266SOL    HW110087   2.955   2.132   5.525  1.5879 -0.5781  1.8405
 3266SOL    HW210088   2.863   2.241   5.604  1.1951  0.0166  0.5832
 3267SOL     OW10089   2.387   3.587   4.044  0.3512 -0.0544  0.2029
 3267SOL    HW110090   2.362   3.490   4.050  0.4378 -0.0902  0.0049
 3267SOL    HW210091   2.396   3.625   4.135 -0.9144  0.0842  0.2785
 3268SOL     OW10092   1.362   3.027   0.015 -0.5261  0.2779 -0.4895
 3268SOL    HW110093   1.370   2.933  -0.018  1.6116 -0.0252  0.6531
 3268SOL    HW210094   1.284   3.035   0.077 -0.0119 -1.0863  0.3772
 3269SOL     OW10095   1.194   2.765   3.052 -0.0320 -0.0139  0.3675
 3269SOL    HW110096   1.189   2.731   2.958 -0.4304 -1.6521  0.9453
 3269SOL    HW210097   1.287   2.798   3.070  0.4930 -1.1228 -0.1532
 3270SOL     OW10098   3.046   3.860   5.132  0.2007 -0.0924 -0.3618
 3270SOL    HW110099   2.967   3.878   5.073 -0.7851  0.3836  1.0232
 3270SOL    HW210100   3.097   3.781   5.097 -1.3077 -0.8614 -0.9193
 3271SOL     OW10101   2.343   2.501   5.445  0.1789 -0.1863 -0.2777
 3271SOL    HW110102   2.287   2.467   5.369  0.3805 -0.2051 -0.4213
 3271SOL    HW210103   2.420   2.552   5.408  1.1385 -1.4791 -0.1505
 3272SOL     OW10104   3.522   1.765   3.796  0.4291  0.6173 -0.5989
 3272SOL    HW110105   3.608   1.720   3.770  0.7102 -0.2541  1.6636
 3272SOL    HW210106   3.541   1.839   3.860 -0.5562 -0.0203  0.4455
 3273SOL     OW10107   1.498   2.986   4.965 -0.0566  0.1020  0.2572
 3273SOL    HW110108   1.459   2.915   5.024 -0.2281 -0.2275 -0.2404
 3273SOL    HW210109   1.466   2.971   4.871  2.0199 -0.7670 -0.3639
 3274SOL     OW10110   2.626   2.959   0.369  0.5941  0.7538 -0.4473
 3274SOL    HW110111   2.690   2.961   0.446 -0.0394  1.7538  0.0752
 3274SOL    HW210112   2.677   2.960   0.283  1.2903  0.6307 -0.0435
 3275SOL     OW10113   2.508   3.616   5.124  0.1857 -0.4781  0.1722
 3275SOL    HW110114   2.465   3.610   5.214  0.6810  0.5158  0.4837
 3275SOL    HW210115   2.594   3.666   5.131  0.7407 -1.2699 -0.6876
 3276SOL     OW10116   2.249   1.328   4.621  0.5029 -0.3189 -0.1716
 3276SOL    HW110117   2.229   1.334   4.719  1.6477 -0.4937  0.0810
 3276SOL    HW210118   2.247   1.231   4.593 -0.7456 -0.2100 -0.5382
 3277SOL     OW10119   3.096   3.024   5.160 -0.2807  0.4202 -0.0658
 3277SOL    HW110120   3.074   2.940   5.112 -1.2121  0.2494  0.6386
 3277SOL    HW210121   3.092   3.009   5.258  1.3014  0.8420  0.1068
 3278SOL     OW10122   2.602   2.857   3.959 -0.3917  0.0190  0.4429
 3278SOL    HW110123   2.618   2.787   3.889 -0.3913 -0.1341  0.5949
 3278SOL    HW210124   2.661   2.839   4.038  1.1885  1.4081 -0.3581
 3279SOL     OW10125   3.493   2.350   1.980 -0.0204 -0.2151  0.8236
 3279SOL    HW110126   3.413   2.298   2.011 -0.6067  0.8226  1.1097
 3279SOL    HW210127   3.486   2.368   1.882  0.3169 -0.8789  0.6683
 3280SOL     OW10128   1.335   0.735   5.611  0.0739  0.4149  0.5638
 3280SOL    HW110129   1.317   0.806   5.543  0.9851  0.0623 -0.0568
 3280SOL    HW210130   1.248   0.692   5.637 -0.0738 -1.9665 -3.1448
 3281SOL     OW10131   5.229   2.363   3.587  0.1109  0.4705  0.2818
 3281SOL    HW110132   5.162   2.291   3.570 -0.6797  1.0841  0.6857
 3281SOL    HW210133   5.216   2.399   3.679  1.0936  0.5165  0.4086
 3282SOL     OW10134   1.506   3.387   4.020  0.0296  0.3774 -0.2118
 3282SOL    HW110135   1.462   3.470   4.053  0.5040  1.2746 -1.7015
 3282SOL    HW210136   1.438   3.316   4.004 -0.4368  0.6214  0.6566
 3283SOL     OW10137   2.936   2.953   4.016 -0.2500  0.2918  0.3810
 3283SOL    HW110138   2.958   3.017   4.089 -0.3879  0.1904  0.5138
 3283SOL    HW210139   3.020   2.919   3.974 -0.1979  1.6413 -0.6435
 3284SOL     OW10140   3.586   2.464   4.350 -0.5571  0.0291 -0.0978
 3284SOL    HW110141   3.517   2.399   4.381  0.1928  0.3658  2.5119
 3284SOL    HW210142   3.570   2.553   4.393  0.5718  0.5545 -0.7058
 3285SOL     OW10143   2.673   3.113   4.284  0.0826 -0.3252  0.5510
 3285SOL    HW110144   2.655   3.021   4.318  2.5156 -0.4807  1.5928
 3285SOL    HW210145   2.741   3.157   4.341  1.0033  1.1133 -1.5275
 3286SOL     OW10146   2.472   2.399   5.029 -0.6091  0.4724  0.0769
 3286SOL    HW110147   2.569   2.420   5.040 -0.4622  0.5382 -1.1626
 3286SOL    HW210148   2.456   2.362   4.938 -1.8550  1.1103  0.0048
 3287SOL     OW10149   4.248   3.043   5.827  0.1105  0.3385  0.5817
 3287SOL    HW110150   4.169   3.024   5.885 -1.4604  1.3920 -1.0916
 3287SOL    HW210151   4.245   2.985   5.745 -0.0380  1.6964 -0.4271
 3288SOL     OW10152   3.211   2.286   3.719  0.1203  0.0757 -0.4728
 3288SOL    HW110153   3.140   2.220   3.696 -0.2433  0.3464 -0.1511
 3288SOL    HW210154   3.180   2.342   3.797  1.1164 -0.4961  0.3470
 3289SOL     OW10155   2.072   3.381   4.280  0.2199 -0.2191 -0.3223
 3289SOL    HW110156   2.148   3.324   4.248  0.4564  1.3966 -2.8939
 3289SOL    HW210157   2.030   3.427   4.203 -1.2754  1.5152  1.4244
 3290SOL     OW10158   3.688   2.275   4.008 -0.2052 -0.1676 -0.4306
 3290SOL    HW110159   3.741   2.343   3.957 -1.0781  0.6206 -0.3030
 3290SOL    HW210160   3.746   2.232   4.077  0.0564  1.2983  0.2927
 3291SOL     OW10161   3.491   3.903   4.644  0.2639  0.4630  0.4248
 3291SOL    HW110162   3.565   3.960   4.680  0.0269  0.6941  0.5527
 3291SOL    HW210163   3.411   3.910   4.704  1.0483 -1.9983  1.8871
 3292SOL     OW10164   2.570   2.368   5.415 -0.4217  0.1123 -0.4575
 3292SOL    HW110165   2.471   2.365   5.425 -0.5191 -0.1439 -1.3781
 3292SOL    HW210166   2.601   2.463   5.411 -0.6769  0.1925 -0.5444
 3293SOL     OW10167   3.439   3.288   3.900 -0.2658  0.0015 -0.0226
 3293SOL    HW110168   3.490   3.369   3.872 -2.8258  1.3840 -0.9696
 3293SOL    HW210169   3.503   3.213   3.918  2.1003  1.8535 -0.2559
 3294SOL     OW10170   3.766   3.362   3.969 -0.0621 -0.1213  0.1728
 3294SOL    HW110171   3.733   3.455   3.954 -0.3915 -0.4624 -1.3984
 3294SOL    HW210172   3.862   3.356   3.942 -0.3948 -0.5225 -0.9693
 3295SOL     OW10173   2.372   3.337   4.814  0.1554 -0.2653 -0.0917
 3295SOL    HW110174   2.332   3.245   4.813 -0.7013  0.0995 -0.9599
 3295SOL    HW210175   2.300   3.405   4.800  1.0631  0.4284 -1.6362
 3296SOL     OW10176   3.912   3.243   3.355 -0.2588  0.1363 -0.3395
 3296SOL    HW110177   3.876   3.332   3.328 -0.3909  0.3183  0.4140
 3296SOL    HW210178   3.837   3.183   3.382 -0.1462 -0.1076 -0.5593
 3297SOL     OW10179   2.370   2.134   5.085  0.6864 -0.3680 -0.0111
 3297SOL    HW110180   2.401   2.229   5.089  0.9770 -0.4889  0.7260
 3297SOL    HW210181   2.270   2.131   5.084  0.6657 -0.0842  0.9453
 3298SOL     OW10182   3.203   2.378   5.886  0.1757 -0.5475  0.6682
 3298SOL    HW110183   3.264   2.330   5.823 -0.5655 -0.0276 -0.4730
 3298SOL    HW210184   3.139   2.312   5.926 -0.3899 -0.6431 -0.3609
 3299SOL     OW10185   4.382   3.236   0.135  0.0376  0.2910  0.1006
 3299SOL    HW110186   4.326   3.172   0.187  0.2807  1.8716  2.4463
 3299SOL    HW210187   4.465   3.190   0.104 -1.2707 -1.3563 -1.1249
 3300SOL     OW10188   3.064   1.919   5.957 -0.0054  0.1340 -0.2163
 3300SOL    HW110189   3.142   1.922   6.020  1.6023 -0.7611 -2.0723
 3300SOL    HW210190   3.020   1.829   5.963 -1.7923  1.0323  1.7364
 3301SOL     OW10191   3.257   5.973   3.068  0.1175  0.5783  0.0768
 3301SOL    HW110192   3.318   6.001   2.994  1.2638  2.7573  1.7347
 3301SOL    HW210193   3.162   5.981   3.036  0.5811  1.0259 -1.3011
 3302SOL     OW10194   2.104   3.209   5.240 -0.3059  0.1244  0.3014
 3302SOL    HW110195   2.180   3.173   5.295 -0.4760 -0.9622 -0.1552
 3302SOL    HW210196   2.046   3.134   5.210  0.0523  0.6265 -1.7936
 3303SOL     OW10197   1.922   3.348   5.375 -0.4615 -0.4464  0.7023
 3303SOL    HW110198   1.971   3.267   5.342  1.9636  1.4119 -0.5726
 3303SOL    HW210199   1.854   3.376   5.307  1.7137  1.0200 -0.9722
 3304SOL     OW10200   3.633   1.422   4.077  0.2576 -0.0258  0.1973
 3304SOL    HW110201   3.639   1.323   4.084 -1.8137 -0.1240  1.2638
 3304SOL    HW210202   3.694   1.454   4.004  1.6573 -1.9541  0.4568
 3305SOL     OW10203   3.745   2.107   0.411 -0.4470 -0.1833  0.2948
 3305SOL    HW110204   3.827   2.151   0.448 -1.3912  1.6810  0.3104
 3305SOL    HW210205   3.756   2.008   0.414  1.8001  0.0164  0.2572
 3306SOL     OW10206   3.175   2.447   5.049 -0.1302 -0.3978  0.9218
 3306SOL    HW110207   3.099   2.396   5.009  1.0418 -2.7255  1.4838
 3306SOL    HW210208   3.162   2.455   5.148  0.9887 -2.0687  1.2349
 3307SOL     OW10209   2.256   1.081   4.528  0.0896  0.1100 -0.5293
 3307SOL    HW110210   2.183   1.023   4.564  0.7505 -0.4453 -0.0576
 3307SOL    HW210211   2.335   1.024   4.504  1.5284  0.9590  1.8417
 3308SOL     OW10212   3.073   3.720   3.629  0.0967  0.2302  0.0667
 3308SOL    HW110213   3.066   3.778   3.547  0.4386  2.0281  1.2551
 3308SOL    HW210214   2.981   3.705   3.666 -0.1037 -0.9407 -0.8455
 3309SOL     OW10215   1.992   3.969   4.176 -0.1710 -0.3996 -0.2342
 3309SOL    HW110216   1.929   3.918   4.235 -0.5924 -0.6739 -0.9083
 3309SOL    HW210217   1.954   3.974   4.083  0.1103  0.6955 -0.3046
 3310SOL     OW10218   2.524   2.656   5.777 -0.0707  0.4335 -0.2734
 3310SOL    HW110219   2.426   2.653   5.758  0.1328 -1.3219 -1.2718
 3310SOL    HW210220   2.551   2.573   5.826  0.7231  1.5058  1.1955
 3311SOL     OW10221   4.075   4.027   5.704  0.4410  0.0609  0.6941
 3311SOL    HW110222   3.994   4.084   5.690  0.1137 -0.1109  1.7362
 3311SOL    HW210223   4.065   3.942   5.652  0.6470  0.6838 -0.3673
 3312SOL     OW10224   2.273   3.163   4.166 -0.2300 -0.5814  0.0117
 3312SOL    HW110225   2.297   3.172   4.069  0.5508 -0.4890  0.2057
 3312SOL    HW210226   2.283   3.068   4.194 -0.9617 -0.7004 -0.1259
 3313SOL     OW10227   2.110   2.236   5.369  0.1060 -0.3009  0.1865
 3313SOL    HW110228   2.195   2.219   5.419  0.1401 -0.7670 -0.0238
 3313SOL    HW210229   2.040   2.268   5.432  0.8114  1.4245  0.1577
 3314SOL     OW10230   2.058   2.033   5.930  0.6939 -0.7911 -0.6987
 3314SOL    HW110231   2.140   2.074   5.889  0.9215  0.3034  0.7765
 3314SOL    HW210232   2.052   2.059   6.026  0.0345 -3.0782 -0.0597
 3315SOL     OW10233   2.998   3.692   4.009  0.0143 -0.3555  0.1748
 3315SOL    HW110234   2.932   3.652   4.072  0.1428 -0.0849  0.4873
 3315SOL    HW210235   2.987   3.791   4.008  2.1840  0.0169  2.3393
 3316SOL     OW10236   2.596   1.069   5.317  0.4017 -0.2399  0.1014
 3316SOL    HW110237   2.608   1.036   5.223 -1.5309 -2.0429  0.4196
 3316SOL    HW210238   2.614   1.167   5.320 -1.0432  0.2100 -2.5217
 3317SOL     OW10239   3.378   2.759   3.812 -0.2276  0.2803  0.4778
 3317SOL    HW110240   3.440   2.825   3.768  0.9046 -0.5957  0.7186
 3317SOL    HW210241   3.283   2.791   3.801  0.0422  0.5020 -1.9176
 3318SOL     OW10242   3.141   4.084   4.016 -0.1646 -0.2665  0.1261
 3318SOL    HW110243   3.070   4.015   4.000 -1.4761  0.5575  2.0010
 3318SOL    HW210244   3.206   4.049   4.084 -0.4876  0.0846  0.6253
 3319SOL     OW10245   3.473   2.312   3.601  0.1851  0.4202  0.2800
 3319SOL    HW110246   3.381   2.282   3.623  0.5841 -2.0287 -1.0488
 3319SOL    HW210247   3.477   2.344   3.506  0.4680  1.8270  0.7299
 3320SOL     OW10248   2.820   3.569   4.208 -0.7381 -0.3462  0.1822
 3320SOL    HW110249   2.794   3.503   4.278  0.6229 -0.7233  0.3572
 3320SOL    HW210250   2.744   3.633   4.192 -0.7636  0.3019  2.6190
 3321SOL     OW10251   2.295   3.677   3.655  0.4193 -0.5788 -0.2493
 3321SOL    HW110252   2.368   3.744   3.646  0.0580 -0.2864 -1.0387
 3321SOL    HW210253   2.257   3.682   3.748  0.1662  0.5480 -0.4028
 3322SOL     OW10254   3.280   1.968   1.948  0.1897  0.5331  0.4322
 3322SOL    HW110255   3.209   1.951   1.879  0.8672 -0.9936  0.0869
 3322SOL    HW210256   3.257   1.921   2.032  0.3736  0.7542  0.6073
 3323SOL     OW10257   2.238   0.207   3.541 -0.5411 -0.4214 -0.0168
 3323SOL    HW110258   2.289   0.128   3.508 -0.4083  0.1932 -1.3633
 3323SOL    HW210259   2.193   0.253   3.463  0.0226  1.2647  0.6049
 3324SOL     OW10260   1.178   2.046   4.808 -0.2595 -0.2818 -0.1912
 3324SOL    HW110261   1.160   2.142   4.787  2.6900  0.6793  1.1881
 3324SOL    HW210262   1.092   2.001   4.832 -1.6432  2.1452 -0.2045
 3325SOL     OW10263   2.813   4.577   4.916  0.1233 -0.3348 -0.4116
 3325SOL    HW110264   2.781   4.542   5.004  2.3422 -1.3138  0.0904
 3325SOL    HW210265   2.760   4.535   4.843 -0.2448 -1.3179  0.3865
 3326SOL     OW10266   2.794   2.207   0.448 -0.1870 -0.2320  0.1198
 3326SOL    HW110267   2.786   2.137   0.519  1.2684 -0.4551  0.0930
 3326SOL    HW210268   2.876   2.189   0.393 -0.3508  0.9236 -0.5237
 3327SOL     OW10269   2.293   2.356   4.801  0.2848  0.0203 -0.0872
 3327SOL    HW110270   2.343   2.350   4.715  0.8887 -1.0807  0.3213
 3327SOL    HW210271   2.255   2.448   4.811  0.6128  0.3078 -1.2936
 3328SOL     OW10272   2.881   1.635   4.335  0.1570  0.0445 -0.2056
 3328SOL    HW110273   2.910   1.721   4.376  3.4595 -0.5741 -0.9789
 3328SOL    HW210274   2.923   1.625   4.244  0.1048 -2.4586 -0.0338
 3329SOL     OW10275   3.327   3.114   5.035 -0.2249 -0.0777  0.1262
 3329SOL    HW110276   3.400   3.095   5.100 -0.9150  0.3765  1.0554
 3329SOL    HW210277   3.238   3.105   5.080 -0.7824 -1.0477 -1.0929
 3330SOL     OW10278   3.294   3.047   3.952 -0.6910 -0.2526  0.3145
 3330SOL    HW110279   3.324   3.140   3.933  1.6594 -0.8560  0.8430
 3330SOL    HW210280   3.279   2.998   3.866  0.6239 -0.1447  0.0125
 3331SOL     OW10281   1.713   1.648   3.626  0.3262 -0.1249  0.1226
 3331SOL    HW110282   1.645   1.580   3.650  0.1800 -0.6414 -1.6571
 3331SOL    HW210283   1.799   1.603   3.601  0.9438  0.4661  1.0598
 3332SOL     OW10284   2.648   2.043   0.275 -0.0835 -0.3187 -0.1578
 3332SOL    HW110285   2.682   2.119   0.329 -1.9665  1.4539 -1.3218
 3332SOL    HW210286   2.576   1.995   0.326  0.7921 -1.0793  0.3935
 3333SOL     OW10287   3.562   1.961   5.860  0.7883  0.1167 -0.6455
 3333SOL    HW110288   3.482   2.009   5.896  0.7957  0.0302 -0.5091
 3333SOL    HW210289   3.645   1.998   5.903  0.9203  0.9215 -1.5521
 3334SOL     OW10290   4.261   2.165   4.114 -0.0761  0.4554 -0.1175
 3334SOL    HW110291   4.321   2.149   4.036 -3.6353  1.3096 -3.2694
 3334SOL    HW210292   4.254   2.081   4.168  1.3783 -0.6317 -1.5195
 3335SOL     OW10293   1.678   2.557   5.776 -0.0855  0.3909 -0.1074
 3335SOL    HW110294   1.595   2.611   5.762 -1.1453 -1.1639 -0.1714
 3335SOL    HW210295   1.739   2.605   5.838 -1.6474  0.9803  1.0518
 3336SOL     OW10296   4.121   4.112   4.626  0.6367 -0.3519 -0.4678
 3336SOL    HW110297   4.203   4.158   4.659  0.0752  0.7883 -0.6073
 3336SOL    HW210298   4.114   4.124   4.527 -0.1649  0.3606 -0.3367
 3337SOL     OW10299   3.091   2.806   3.844 -0.4853 -0.3794  1.0079
 3337SOL    HW110300   3.034   2.748   3.902 -0.4730 -1.3902  0.0415
 3337SOL    HW210301   3.084   2.776   3.749  1.1432 -0.1043  0.7685
 3338SOL     OW10302   1.348   2.192   4.425  0.0140 -0.0087 -0.4992
 3338SOL    HW110303   1.285   2.208   4.349  2.0755  0.8898 -2.1400
 3338SOL    HW210304   1.358   2.094   4.440 -0.2688 -0.2184 -1.5748
 3339SOL     OW10305   2.755   1.954   5.193  0.1760 -0.7636 -0.0218
 3339SOL    HW110306   2.730   2.032   5.250  0.9816  0.2492 -1.0099
 3339SOL    HW210307   2.683   1.938   5.126  0.3699 -0.3413 -0.3376
 3340SOL     OW10308   2.073   1.696   5.774 -0.6196 -0.3201 -0.2137
 3340SOL    HW110309   2.087   1.778   5.718  0.8944  0.3088  1.0104
 3340SOL    HW210310   2.120   1.708   5.861 -3.6231 -0.9088  1.5806
 3341SOL     OW10311   4.485   1.409   5.598 -0.1556 -0.3006  0.2107
 3341SOL    HW110312   4.546   1.375   5.526 -0.7453  0.1991 -0.5461
 3341SOL    HW210313   4.398   1.437   5.557  0.3053  2.1600  0.7685
 3342SOL     OW10314   4.296   2.362   5.486  0.5388 -0.4891 -0.8012
 3342SOL    HW110315   4.210   2.356   5.436  0.5364  0.2490 -0.8948
 3342SOL    HW210316   4.348   2.441   5.453 -0.0230  0.7908  1.2040
 3343SOL     OW10317   2.784   2.779   4.173 -0.1064  0.1192  0.3259
 3343SOL    HW110318   2.840   2.723   4.234  0.5453  2.1525  1.6922
 3343SOL    HW210319   2.840   2.852   4.134 -1.1824  0.5433 -0.4750
 3344SOL     OW10320   4.191   1.723   5.380  0.1406  0.0048  0.4647
 3344SOL    HW110321   4.264   1.787   5.404  0.6371  0.5367 -2.2050
 3344SOL    HW210322   4.222   1.661   5.309 -1.7758 -0.2468 -0.2258
 3345SOL     OW10323   1.252   3.247   4.021  0.3065 -0.1108 -0.1959
 3345SOL    HW110324   1.179   3.304   3.982 -0.3812 -0.3261  0.7397
 3345SOL    HW210325   1.230   3.150   4.006  0.3745 -0.1754  0.1102
 3346SOL     OW10326   3.247   3.035   5.518 -0.8242 -0.3994  0.2560
 3346SOL    HW110327   3.170   3.097   5.499  0.1616  0.6407 -0.4994
 3346SOL    HW210328   3.322   3.055   5.455  0.4247 -0.7623  1.5765
 3347SOL     OW10329   3.131   2.692   3.580  0.0914  0.1448  0.5401
 3347SOL    HW110330   3.209   2.742   3.542 -0.4820  1.3916  0.9436
 3347SOL    HW210331   3.128   2.600   3.540  1.7130  0.0932  0.4742
 3348SOL     OW10332   1.998   2.051   3.288  0.1868  0.5415  0.4099
 3348SOL    HW110333   2.046   1.965   3.269 -0.7979 -0.1747  1.0063
 3348SOL    HW210334   2.027   2.121   3.224  1.3903 -0.1009  0.2293
 3349SOL     OW10335   1.909   1.780   5.211 -0.7549  0.5510 -0.8841
 3349SOL    HW110336   1.855   1.729   5.143 -0.0526  0.9431 -1.7546
 3349SOL    HW210337   1.865   1.869   5.228 -1.1207  0.3115 -0.5531
 3350SOL     OW10338   2.510   2.996   4.731 -0.1650  0.2948 -0.5791
 3350SOL    HW110339   2.430   3.052   4.752  0.2788  1.1305 -1.0527
 3350SOL    HW210340   2.496   2.951   4.643  0.3406  1.3537 -1.2222
 3351SOL     OW10341   2.825   3.171   4.655  0.6053 -0.7373  0.0036
 3351SOL    HW110342   2.739   3.218   4.677  1.5256  1.3119 -0.5923
 3351SOL    HW210343   2.871   3.145   4.740  0.9898  1.2264  0.4410
 3352SOL     OW10344   3.084   2.104   5.433 -0.1512 -0.7919  0.1150
 3352SOL    HW110345   3.097   2.142   5.342 -4.1683 -1.8030 -1.0462
 3352SOL    HW210346   3.140   2.022   5.444  2.3803  0.7752 -0.3464
 3353SOL     OW10347   3.871   1.670   5.284  0.6452  0.0769  0.0719
 3353SOL    HW110348   3.772   1.684   5.292  0.6735  0.4848 -0.2846
 3353SOL    HW210349   3.911   1.662   5.375  0.1697 -0.9236  0.2125
 3354SOL     OW10350   2.937   1.236   5.945  0.2724 -0.1011 -0.0310
 3354SOL    HW110351   3.004   1.272   5.879  0.1226  0.2882  0.0286
 3354SOL    HW210352   2.947   1.137   5.951  0.1915 -0.1620 -0.7531
 3355SOL     OW10353   2.678   1.330   5.913  0.1841  0.1707 -0.0463
 3355SOL    HW110354   2.763   1.282   5.888 -0.0925 -0.8427  0.9156
 3355SOL    HW210355   2.693   1.382   5.997 -0.2115 -0.1928  0.2487
 3356SOL     OW10356   2.671   2.634   3.802 -0.0324  0.0857 -0.2637
 3356SOL    HW110357   2.726   2.562   3.846 -0.1273  0.2328  0.0997
 3356SOL    HW210358   2.612   2.592   3.733 -0.0840 -0.1910 -0.0588
 3357SOL     OW10359   1.218   3.080   3.446  0.2908 -0.6419  0.1827
 3357SOL    HW110360   1.194   3.076   3.543 -0.2905  0.6127  0.1096
 3357SOL    HW210361   1.318   3.084   3.437  0.3797 -1.4383  0.6870
 3358SOL     OW10362   4.181   1.261   5.396 -0.2392 -0.1633  0.8324
 3358SOL    HW110363   4.084   1.238   5.384 -0.2316 -0.6417  1.6429
 3358SOL    HW210364   4.224   1.195   5.457  0.7563 -0.3095  0.0031
 3359SOL     OW10365   2.163   3.534   4.483 -0.2051 -0.0114 -0.3955
 3359SOL    HW110366   2.233   3.489   4.539 -0.5282  0.9536  0.8400
 3359SOL    HW210367   2.128   3.470   4.415 -0.5918 -1.6174  1.2233
 3360SOL     OW10368   2.279   2.926   4.349  0.9603 -0.5107 -0.1294
 3360SOL    HW110369   2.350   2.893   4.286  1.9503  0.8852  0.2185
 3360SOL    HW210370   2.312   2.917   4.443  0.2479 -0.8214  0.0906
 3361SOL     OW10371   2.506   1.635   4.655  0.2370  0.0426  0.1120
 3361SOL    HW110372   2.458   1.629   4.742 -1.0487  1.4315 -0.4359
 3361SOL    HW210373   2.507   1.546   4.610 -1.8602 -0.0691  0.1849
 3362SOL     OW10374   4.272   4.229   5.053  0.2429 -0.1065  1.0049
 3362SOL    HW110375   4.283   4.317   5.006  2.7112 -0.2608  1.1761
 3362SOL    HW210376   4.304   4.155   4.994 -0.7146 -0.8027  1.3214
 3363SOL     OW10377   2.707   3.151   5.116  0.1457  0.2695 -1.0344
 3363SOL    HW110378   2.712   3.098   5.032 -1.1108  0.7773 -1.4540
 3363SOL    HW210379   2.676   3.244   5.095  1.2070  0.8458 -0.1720
 3364SOL     OW10380   3.486   1.308   3.456 -0.6504 -0.2013 -0.3391
 3364SOL    HW110381   3.492   1.261   3.544 -0.3446 -1.4209 -1.0050
 3364SOL    HW210382   3.391   1.307   3.424 -0.6018 -0.5769 -0.4697
 3365SOL     OW10383   1.457   3.458   4.660  0.3029  0.4123 -0.4109
 3365SOL    HW110384   1.412   3.546   4.647  1.8657  1.4373  0.7134
 3365SOL    HW210385   1.545   3.458   4.612  0.4499 -0.4315 -0.1566
 3366SOL     OW10386   3.197   1.934   5.010 -0.0336 -0.3342 -0.3680
 3366SOL    HW110387   3.287   1.976   4.997 -0.5548  0.0312 -3.7004
 3366SOL    HW210388   3.208   1.836   5.028  1.0172 -0.3826 -1.1898
 3367SOL     OW10389   2.844   2.752   5.107 -0.0078 -0.4959 -0.1532
 3367SOL    HW110390   2.933   2.764   5.062  0.0378 -1.9749 -0.5111
 3367SOL    HW210391   2.847   2.791   5.199  1.1102 -0.7983 -0.0509
 3368SOL     OW10392   2.502   1.704   5.399  0.0001 -0.7464  0.0069
 3368SOL    HW110393   2.523   1.650   5.481 -1.6817  1.0107  1.7064
 3368SOL    HW210394   2.544   1.794   5.408 -0.0106 -0.6066 -1.2141
 3369SOL     OW10395   1.700   2.596   5.094  0.5433 -0.0496  0.3115
 3369SOL    HW110396   1.697   2.571   5.191  1.8936  0.8095  0.6082
 3369SOL    HW210397   1.760   2.532   5.045  0.1012 -0.3039  0.1005
 3370SOL     OW10398   2.046   2.226   4.443  0.1346 -0.4984  0.4196
 3370SOL    HW110399   2.128   2.173   4.422 -0.3565 -1.3313  0.5606
 3370SOL    HW210400   1.981   2.168   4.492 -2.0338 -0.9579 -2.7415
 3371SOL     OW10401   3.386   2.293   5.346 -0.3062  0.1174 -0.3754
 3371SOL    HW110402   3.296   2.327   5.319 -0.7400  0.9341  1.9148
 3371SOL    HW210403   3.436   2.365   5.395 -0.6621 -1.8985  3.3322
 3372SOL     OW10404   2.717   2.395   4.282  0.1426  0.2424 -0.3145
 3372SOL    HW110405   2.666   2.482   4.281 -1.9586 -0.8774  1.3613
 3372SOL    HW210406   2.770   2.388   4.366 -2.0648 -1.2744  1.0575
 3373SOL     OW10407   3.294   1.605   5.984 -0.1222  0.0245  0.1372
 3373SOL    HW110408   3.277   1.537   6.055  0.2131  0.6755  0.8584
 3373SOL    HW210409   3.247   1.579   5.900 -0.9641 -0.4819  0.7576
 3374SOL     OW10410   2.157   1.845   5.116  0.3812  0.0053  0.1066
 3374SOL    HW110411   2.070   1.803   5.143  1.4282 -1.6216  1.1495
 3374SOL    HW210412   2.167   1.840   5.017 -0.2384 -0.8151  0.0755
 3375SOL     OW10413   2.852   2.064   3.924  0.7085 -0.0613  0.3932
 3375SOL    HW110414   2.795   1.986   3.950 -0.4773  0.9684  0.9858
 3375SOL    HW210415   2.881   2.113   4.005 -0.6578  1.5408 -0.0281
 3376SOL     OW10416   3.626   2.920   5.586  0.0744 -0.0778  0.5987
 3376SOL    HW110417   3.596   3.014   5.596  2.4822  0.9707 -0.9017
 3376SOL    HW210418   3.608   2.869   5.670  0.1443  2.1552  2.0315
 3377SOL     OW10419   3.019   2.092   3.700 -0.1697 -0.0841 -0.2026
 3377SOL    HW110420   2.979   2.060   3.786  2.4116 -0.8448  0.8138
 3377SOL    HW210421   3.018   2.017   3.634  0.9717 -0.6526  0.3800
 3378SOL     OW10422   2.977   2.599   4.290  0.5778 -0.2214  0.0305
 3378SOL    HW110423   2.946   2.549   4.371  0.8137  0.1391  0.3516
 3378SOL    HW210424   3.076   2.612   4.295  0.5382  0.1681 -0.1065
 3379SOL     OW10425   0.644   2.296   5.323 -0.1762 -0.4468  0.4773
 3379SOL    HW110426   0.555   2.269   5.286 -0.4204  0.8502  0.0740
 3379SOL    HW210427   0.640   2.293   5.423 -1.5204  2.0354  0.5641
 3380SOL     OW10428   3.181   4.435   5.465 -0.0320 -0.2367  0.1502
 3380SOL    HW110429   3.252   4.415   5.397 -2.0225 -1.1054 -1.7954
 3380SOL    HW210430   3.175   4.359   5.531  2.7144  1.1360  2.1856
 3381SOL     OW10431   3.304   3.602   5.195 -0.2389  0.6078 -0.0882
 3381SOL    HW110432   3.388   3.549   5.184 -0.0008  1.0500 -0.4509
 3381SOL    HW210433   3.258   3.610   5.106  0.2166  1.7940 -0.2358
 3382SOL     OW10434   1.907   2.682   4.771  0.2730  0.2343 -0.1661
 3382SOL    HW110435   1.943   2.714   4.684 -1.0923  2.0510 -0.1098
 3382SOL    HW210436   1.927   2.749   4.843  0.0080 -0.4808  0.5993
 3383SOL     OW10437   2.801   1.816   4.883  0.1581 -0.0897 -0.0847
 3383SOL    HW110438   2.724   1.830   4.946 -0.6898  0.7727 -1.2643
 3383SOL    HW210439   2.843   1.727   4.901 -0.4508 -0.1358  1.2693
 3384SOL     OW10440   3.429   3.153   3.561  0.1283 -0.6933 -0.1547
 3384SOL    HW110441   3.464   3.100   3.638 -0.0392 -1.0036 -0.2894
 3384SOL    HW210442   3.457   3.110   3.475  2.6360  1.0981 -0.3474
 3385SOL     OW10443   2.914   3.562   4.786 -0.0603 -0.4707 -0.0501
 3385SOL    HW110444   2.867   3.501   4.851  0.2790  0.0565  0.6941
 3385SOL    HW210445   2.859   3.569   4.703 -2.5274  1.8689  1.5949
 3386SOL     OW10446   1.888   1.582   5.395 -0.1387 -0.1271  0.0080
 3386SOL    HW110447   1.789   1.580   5.383 -0.2973  0.4821  1.1037
 3386SOL    HW210448   1.929   1.636   5.322 -0.6442 -0.0820 -0.2470
 3387SOL     OW10449   1.524   2.673   4.454  0.1248 -0.5775 -0.1744
 3387SOL    HW110450   1.563   2.583   4.434  2.8424  0.0560  1.6313
 3387SOL    HW210451   1.591   2.744   4.430 -0.0159  0.6420  2.6856
 3388SOL     OW10452   3.526   1.528   5.403 -0.6979  0.0702  0.4118
 3388SOL    HW110453   3.453   1.492   5.345  0.5365  0.3632 -1.4088
 3388SOL    HW210454   3.491   1.545   5.495 -2.2642 -2.1612  0.3024
 3389SOL     OW10455   2.746   0.799   5.788  0.0375  0.2570  0.6761
 3389SOL    HW110456   2.844   0.782   5.790 -0.0483 -0.3151  0.4327
 3389SOL    HW210457   2.723   0.854   5.707  0.3184  1.5718  1.4653
 3390SOL     OW10458   2.618   3.466   3.583 -0.5411 -0.3328 -0.2574
 3390SOL    HW110459   2.666   3.381   3.605 -2.5936 -1.8051 -1.1772
 3390SOL    HW210460   2.547   3.483   3.652 -1.1526 -0.2041 -0.9109
 3391SOL     OW10461   1.535   3.268   4.308 -0.2851  0.2850  0.5151
 3391SOL    HW110462   1.571   3.310   4.225  0.1298 -0.5086  0.2842
 3391SOL    HW210463   1.530   3.169   4.296  1.0391  0.0065  1.8929
 3392SOL     OW10464   2.577   3.586   3.835 -0.1893  0.3295 -0.1250
 3392SOL    HW110465   2.644   3.518   3.864 -1.3687 -1.3950 -1.1897
 3392SOL    HW210466   2.500   3.585   3.899 -0.3294  0.4683 -0.2916
 3393SOL     OW10467   3.777   2.445   4.621  0.0952  0.0891 -0.2327
 3393SOL    HW110468   3.759   2.351   4.650  0.8022  0.0455  0.1003
 3393SOL    HW210469   3.701   2.504   4.646  0.9335  0.1858  2.3588
 3394SOL     OW10470   1.422   2.386   4.862 -0.2813 -0.4464 -0.1104
 3394SOL    HW110471   1.436   2.296   4.904  2.1617  0.8817  2.2906
 3394SOL    HW210472   1.511   2.430   4.848 -1.4041  2.6985  1.5613
 3395SOL     OW10473   1.468   1.330   5.806 -0.0173  0.2755 -0.3310
 3395SOL    HW110474   1.505   1.260   5.867 -0.4122  0.7708  0.4988
 3395SOL    HW210475   1.493   1.421   5.839  1.0008  0.5480 -1.7314
 3396SOL     OW10476   4.631   1.959   5.095 -0.5926 -0.6382 -0.1305
 3396SOL    HW110477   4.628   2.038   5.155  3.0422  0.8553 -1.6061
 3396SOL    HW210478   4.573   1.974   5.015  0.6578  1.0123 -0.7857
 3397SOL     OW10479   3.025   1.610   3.646 -0.1507  0.1037 -0.2067
 3397SOL    HW110480   2.965   1.560   3.708 -0.2166  1.1821  0.6203
 3397SOL    HW210481   3.109   1.558   3.631  0.3994  0.3631  1.7641
 3398SOL     OW10482   3.960   1.494   5.651 -0.0010 -0.4795 -0.6938
 3398SOL    HW110483   4.048   1.499   5.605 -1.2052  0.0734 -3.1054
 3398SOL    HW210484   3.912   1.410   5.623 -1.4643  0.6938 -1.8967
 3399SOL     OW10485   2.593   3.924   5.304  0.3318 -0.5827 -0.0304
 3399SOL    HW110486   2.640   3.974   5.377 -1.1079  1.4125 -0.3879
 3399SOL    HW210487   2.494   3.938   5.312 -0.0579 -2.6390 -0.7495
 3400SOL     OW10488   2.938   1.886   4.430  0.0393  0.1029 -0.5529
 3400SOL    HW110489   2.845   1.921   4.441  0.1333  0.8011 -1.8997
 3400SOL    HW210490   3.003   1.957   4.455  0.2315 -0.3925  0.4075
 3401SOL     OW10491   2.353   3.707   4.297 -0.3952  0.2522  0.4860
 3401SOL    HW110492   2.314   3.632   4.352  3.3193 -2.0734  0.3080
 3401SOL    HW210493   2.397   3.773   4.358  0.1935 -0.1330  0.4828
 3402SOL     OW10494   1.940   2.723   5.370  0.3052 -0.1097 -0.3586
 3402SOL    HW110495   1.968   2.686   5.281  0.9128 -0.3502 -0.0697
 3402SOL    HW210496   1.886   2.654   5.418  0.0543 -0.0134 -0.5000
 3403SOL     OW10497   1.933   2.987   5.238  0.6185 -0.2346  0.1894
 3403SOL    HW110498   1.921   2.905   5.293  1.8209 -0.3331  0.3330
 3403SOL    HW210499   1.859   2.993   5.170  0.4133 -1.3309  0.2979
 3404SOL     OW10500   3.356   2.314   4.403  0.4924  0.0189 -0.0106
 3404SOL    HW110501   3.390   2.239   4.347  1.8642  1.1216 -0.7152
 3404SOL    HW210502   3.312   2.277   4.485 -1.6825 -1.6619 -1.7736
 3405SOL     OW10503   3.612   4.606   0.080  0.0367  0.3816 -0.1302
 3405SOL    HW110504   3.604   4.696   0.037 -0.1316  1.1458  1.4376
 3405SOL    HW210505   3.613   4.535   0.009  0.2100  1.6082 -1.3941
 3406SOL     OW10506   3.124   3.451   4.445  0.2312  0.4481  0.3536
 3406SOL    HW110507   3.217   3.417   4.432 -0.5792 -0.9513 -2.6570
 3406SOL    HW210508   3.120   3.548   4.420  0.4664 -0.1021 -2.0327
 3407SOL     OW10509   1.269   2.554   4.289  0.2589 -0.0586 -0.1106
 3407SOL    HW110510   1.354   2.505   4.311 -0.2792 -0.8402  0.3074
 3407SOL    HW210511   1.200   2.532   4.358 -0.2918  0.5484 -0.4620
 3408SOL     OW10512   3.913   4.364   0.028  0.6090  0.5700  0.5395
 3408SOL    HW110513   3.905   4.268   0.000  2.1559  0.4714  0.3164
 3408SOL    HW210514   3.940   4.369   0.124  1.7129  0.7286  0.2361
 3409SOL     OW10515   3.869   2.539   3.703 -0.5243 -0.2302  0.1794
 3409SOL    HW110516   3.841   2.467   3.640 -0.5787  0.0311 -0.0963
 3409SOL    HW210517   3.874   2.503   3.796  1.2284 -1.0808 -0.2000
 3410SOL     OW10518   4.822   3.243   2.779  0.1610 -0.2336 -0.0480
 3410SOL    HW110519   4.856   3.286   2.862  0.6311 -2.1971  0.8434
 3410SOL    HW210520   4.767   3.308   2.727  2.4004  2.0122  0.2050
 3411SOL     OW10521   1.502   2.808   5.790 -0.0587  0.0047  0.0555
 3411SOL    HW110522   1.413   2.808   5.743  0.1439  1.4246 -0.3697
 3411SOL    HW210523   1.563   2.874   5.746  0.7815 -0.0135  1.1502
 3412SOL     OW10524   2.931   1.555   4.893  0.1598  0.2583  0.0148
 3412SOL    HW110525   3.023   1.519   4.908 -0.7607 -1.1824  2.8210
 3412SOL    HW210526   2.910   1.552   4.795  2.3150 -1.3181 -0.4833
 3413SOL     OW10527   3.381   2.239   5.746 -0.0124  0.1816 -0.0136
 3413SOL    HW110528   3.459   2.227   5.684 -0.0505 -0.4491  0.0564
 3413SOL    HW210529   3.411   2.224   5.840  0.2171  1.8766  0.2155
 3414SOL     OW10530   2.392   3.227   3.461  0.1802 -0.0946  0.8636
 3414SOL    HW110531   2.353   3.296   3.399  3.1960  0.5736 -0.4632
 3414SOL    HW210532   2.326   3.153   3.474 -1.2134  0.5268 -1.8887
 3415SOL     OW10533   3.008   4.056   5.322 -0.2114  0.0566  0.3904
 3415SOL    HW110534   3.008   4.005   5.236 -2.4721 -1.1664  1.0250
 3415SOL    HW210535   3.103   4.072   5.351  0.5888 -1.3614 -1.2304
 3416SOL     OW10536   4.245   1.719   0.868  0.2661 -0.0934 -0.1108
 3416SOL    HW110537   4.215   1.625   0.886  0.6032  0.0717  1.5073
 3416SOL    HW210538   4.316   1.744   0.934  0.3149  1.2321 -0.6389
 3417SOL     OW10539   1.477   2.765   5.404  0.4811  0.0378  0.4615
 3417SOL    HW110540   1.423   2.845   5.428  1.0777  0.6064 -0.0725
 3417SOL    HW210541   1.455   2.736   5.311 -0.3983 -0.9792  0.9672
 3418SOL     OW10542   2.567   2.936   5.660 -0.1590 -0.3626  0.4716
 3418SOL    HW110543   2.474   2.964   5.638 -0.0232  0.1938  0.5926
 3418SOL    HW210544   2.567   2.840   5.688 -0.4171 -0.9419 -1.4080
 3419SOL     OW10545   2.916   2.193   4.694  0.0400 -0.3392  0.6519
 3419SOL    HW110546   2.933   2.163   4.600 -0.2503 -0.5950  0.6781
 3419SOL    HW210547   2.953   2.125   4.757  0.0156 -0.2887  0.7201
 3420SOL     OW10548   3.472   2.941   5.379  0.6630  0.1109  0.0394
 3420SOL    HW110549   3.484   2.870   5.309  0.2489 -0.6394  0.7252
 3420SOL    HW210550   3.542   2.930   5.450 -0.3647 -0.5921  0.9628
 3421SOL     OW10551   2.056   2.472   4.520 -0.0401 -0.0041  0.0803
 3421SOL    HW110552   2.066   2.385   4.472 -0.1122  0.2109 -0.3339
 3421SOL    HW210553   2.027   2.455   4.614 -1.5290 -0.3730 -0.4093
 3422SOL     OW10554   2.852   2.890   5.328  0.1660 -0.3718  0.3523
 3422SOL    HW110555   2.828   2.985   5.346 -0.9689 -0.2182 -1.6780
 3422SOL    HW210556   2.918   2.859   5.397 -0.6218  1.3688  1.9899
 3423SOL     OW10557   2.475   3.169   0.645  0.2739  0.4348  0.3708
 3423SOL    HW110558   2.377   3.188   0.636  0.5044  0.7765 -2.1016
 3423SOL    HW210559   2.489   3.071   0.655 -0.3767  0.5292  2.7784
 3424SOL     OW10560   3.802   2.231   5.002 -0.5350 -0.0680  0.1319
 3424SOL    HW110561   3.841   2.139   4.991 -0.1456  0.0972  0.1296
 3424SOL    HW210562   3.737   2.230   5.077 -0.3858 -0.3013  0.2594
 3425SOL     OW10563   2.428   2.812   4.537 -0.2885  0.6021  0.4648
 3425SOL    HW110564   2.393   2.718   4.541 -1.0441  0.8967  1.1513
 3425SOL    HW210565   2.506   2.816   4.476 -0.4483 -0.4144  0.1765
 3426SOL     OW10566   3.918   2.656   4.686 -0.9584  0.3664  0.1514
 3426SOL    HW110567   3.868   2.573   4.660  0.5757 -0.4630 -0.3412
 3426SOL    HW210568   3.985   2.633   4.757 -1.0672  1.3765  0.6006
 3427SOL     OW10569   1.617   3.418   4.995  0.1251  0.7592  0.0128
 3427SOL    HW110570   1.537   3.477   5.006  0.7255  1.6829 -0.5308
 3427SOL    HW210571   1.639   3.410   4.898 -0.0047 -0.4592  0.0621
 3428SOL     OW10572   1.963   2.943   5.557  0.1923 -0.7922  0.6168
 3428SOL    HW110573   1.885   2.974   5.502  1.3146  0.3056 -0.4145
 3428SOL    HW210574   1.992   2.852   5.526 -0.8326 -1.3409  1.2073
 3429SOL     OW10575   2.689   0.916   5.546  0.3078  0.5123  0.2088
 3429SOL    HW110576   2.663   0.943   5.454  1.6773  0.1554 -0.3068
 3429SOL    HW210577   2.778   0.870   5.544 -1.1148 -2.5337  1.2703
 3430SOL     OW10578   3.304   3.540   0.065  0.6450  0.8320 -0.0393
 3430SOL    HW110579   3.390   3.562   0.020  1.0014 -0.0259  0.2005
 3430SOL    HW210580   3.230   3.539  -0.002  0.8885  1.1647 -0.3178
 3431SOL     OW10581   5.936   3.045   4.524 -0.6746  0.0221 -0.2385
 3431SOL    HW110582   5.886   2.981   4.582 -1.7605  2.6130  1.8977
 3431SOL    HW210583   6.025   3.065   4.565 -1.9566  2.8536  1.4907
 3432SOL     OW10584   2.451   2.735   4.830 -0.2809 -0.1845  0.4364
 3432SOL    HW110585   2.452   2.807   4.761  0.2444 -0.2686  0.3547
 3432SOL    HW210586   2.533   2.678   4.821  1.0741  1.2649  2.6419
 3433SOL     OW10587   2.246   1.401   3.891 -0.1820  0.8311 -0.3998
 3433SOL    HW110588   2.212   1.428   3.981 -0.8986 -1.5119  0.1064
 3433SOL    HW210589   2.274   1.305   3.894  2.1714  1.3906 -2.0495
 3434SOL     OW10590   4.009   3.406   0.058  0.0283 -0.1142 -0.6208
 3434SOL    HW110591   3.941   3.347   0.102  0.2417 -0.9586 -1.3978
 3434SOL    HW210592   4.040   3.475   0.124 -0.1218 -0.9441  0.3553
 3435SOL     OW10593   2.800   3.407   4.982  0.2950  0.6205 -0.7113
 3435SOL    HW110594   2.877   3.350   5.010 -0.2470  0.1224 -0.1765
 3435SOL    HW210595   2.726   3.397   5.049 -0.6740  0.1788 -1.8168
 3436SOL     OW10596   3.384   2.540   4.863 -0.0336  0.3882 -0.2844
 3436SOL    HW110597   3.332   2.581   4.788  0.7300 -0.6941 -1.4520
 3436SOL    HW210598   3.322   2.520   4.939 -1.2475 -0.3880 -1.4263
 3437SOL     OW10599   2.828   1.620   4.637  0.3771 -0.1516 -0.1499
 3437SOL    HW110600   2.837   1.583   4.545  1.8255  2.6806 -1.2808
 3437SOL    HW210601   2.737   1.660   4.648  0.1546 -0.6123 -0.2844
 3438SOL     OW10602   2.176   1.377   5.293 -0.2069 -0.6293 -0.2484
 3438SOL    HW110603   2.226   1.309   5.347 -2.4391 -1.0581  1.4369
 3438SOL    HW210604   2.209   1.468   5.317  1.5188 -0.9615 -1.1513
 3439SOL     OW10605   4.078   1.527   5.903  0.0553 -0.2518 -0.1806
 3439SOL    HW110606   4.051   1.502   5.810 -0.2555 -0.9975  0.0971
 3439SOL    HW210607   4.006   1.581   5.946  1.3406  2.5246 -1.2881
 3440SOL     OW10608   3.323   2.907   4.553 -0.6662  0.4324 -0.1686
 3440SOL    HW110609   3.278   2.949   4.474  0.4305  1.9845 -0.0106
 3440SOL    HW210610   3.420   2.895   4.533 -0.4294  0.5952  0.8407
 3441SOL     OW10611   2.365   2.977   3.987  0.5583 -0.1953 -0.7588
 3441SOL    HW110612   2.452   2.929   3.979 -0.0705 -1.1978 -2.0083
 3441SOL    HW210613   2.305   2.951   3.911 -0.6417  0.8775 -0.2272
 3442SOL     OW10614   2.238   3.931   4.098  0.4772 -0.3563 -0.0211
 3442SOL    HW110615   2.146   3.942   4.134  1.0687  2.3549  0.9024
 3442SOL    HW210616   2.299   3.899   4.170  0.6348 -0.1952 -0.0813
 3443SOL     OW10617   1.740   2.366   4.561  0.0032  0.0506  0.1853
 3443SOL    HW110618   1.794   2.290   4.596  0.7967  0.6092  0.2039
 3443SOL    HW210619   1.704   2.420   4.638  0.1833  0.2021  0.1642
 3444SOL     OW10620   4.365   3.456   3.229 -0.4362  0.0225 -0.0466
 3444SOL    HW110621   4.300   3.403   3.284 -0.2390 -0.4704 -0.2804
 3444SOL    HW210622   4.321   3.541   3.199 -0.0690  1.0970  2.1816
 3445SOL     OW10623   3.616   2.839   4.180  0.5790 -0.1276 -0.1083
 3445SOL    HW110624   3.529   2.856   4.227  0.3773 -0.3479 -0.3948
 3445SOL    HW210625   3.618   2.745   4.148  1.0300 -0.1941  0.1082
 3446SOL     OW10626   0.794   2.319   4.884  0.0171  0.6163  0.3760
 3446SOL    HW110627   0.710   2.367   4.857  0.6019  1.4362 -0.0315
 3446SOL    HW210628   0.815   2.248   4.818 -0.3935  0.3561  0.5205
 3447SOL     OW10629   1.901   2.454   4.226 -0.0396  0.1343  0.2073
 3447SOL    HW110630   1.895   2.375   4.287 -1.0731 -0.3914 -0.5494
 3447SOL    HW210631   1.917   2.537   4.280 -1.7054 -0.2046  1.2868
 3448SOL     OW10632   2.926   2.678   4.643  0.3802  0.7305 -0.5809
 3448SOL    HW110633   3.026   2.669   4.643  0.5940  2.6147 -1.5138
 3448SOL    HW210634   2.901   2.771   4.618 -1.6072  0.7085  1.0910
 3449SOL     OW10635   5.516   1.614   5.147 -0.3955 -0.2802  0.1749
 3449SOL    HW110636   5.558   1.597   5.058  0.5109  0.6463  0.4123
 3449SOL    HW210637   5.508   1.713   5.161 -0.0658 -0.4127  1.3376
 3450SOL     OW10638   3.339   2.869   4.883 -0.4158 -0.2544 -0.4625
 3450SOL    HW110639   3.349   2.848   4.785 -0.8711 -1.3962 -0.2807
 3450SOL    HW210640   3.312   2.964   4.893  2.7740  0.8750 -1.2843
 3451SOL     OW10641   2.143   1.857   4.850 -0.5688  0.0434  0.5005
 3451SOL    HW110642   2.049   1.825   4.838  0.2252 -2.7273  1.0426
 3451SOL    HW210643   2.156   1.942   4.799 -2.9444 -0.2900 -0.7935
 3452SOL     OW10644   2.849   3.689   3.761 -0.2630 -0.0265 -0.3571
 3452SOL    HW110645   2.773   3.630   3.733  1.2045 -2.1785 -0.0449
 3452SOL    HW210646   2.873   3.671   3.856  1.7801 -0.7755 -0.9566
 3453SOL     OW10647   4.183   1.503   5.527  0.0993 -0.2613  0.1736
 3453SOL    HW110648   4.175   1.428   5.462  2.1602 -0.4811  0.1206
 3453SOL    HW210649   4.193   1.590   5.479  0.1096 -0.2378  0.2173
 3454SOL     OW10650   3.803   1.716   5.640  0.2672 -0.0542  0.0964
 3454SOL    HW110651   3.869   1.763   5.580 -0.6344  2.1983  0.7798
 3454SOL    HW210652   3.846   1.633   5.677  1.6013 -0.3498 -1.9002
 3455SOL     OW10653   2.732   2.955   4.918 -0.2638 -0.1589  0.2734
 3455SOL    HW110654   2.671   2.980   4.843  0.4501 -0.9836 -0.6249
 3455SOL    HW210655   2.745   2.856   4.918  0.6632 -0.0482  0.7658
 3456SOL     OW10656   2.320   4.111   4.640  0.4116  0.0521 -0.4933
 3456SOL    HW110657   2.314   4.112   4.540  1.0185 -0.8001 -0.5443
 3456SOL    HW210658   2.308   4.018   4.674 -2.1147  0.6349  0.4165
 3457SOL     OW10659   4.046   2.832   4.211  0.3539 -0.2412  0.5585
 3457SOL    HW110660   4.013   2.772   4.284 -1.2929  0.7151  0.6740
 3457SOL    HW210661   3.973   2.897   4.187 -0.3526 -2.3035 -3.9593
 3458SOL     OW10662   3.363   2.649   4.061 -0.4061  0.5253  0.1657
 3458SOL    HW110663   3.381   2.698   3.976  0.7048  1.3246  0.8267
 3458SOL    HW210664   3.399   2.556   4.054  0.0096  0.7042 -0.1159
 3459SOL     OW10665   3.641   1.827   4.978  0.1355 -0.2245  0.3716
 3459SOL    HW110666   3.615   1.769   5.055  0.9443  0.4569  1.1803
 3459SOL    HW210667   3.646   1.772   4.894 -0.1513 -1.0942  0.9202
 3460SOL     OW10668   2.767   3.013   3.815  0.0736 -0.4282 -0.5009
 3460SOL    HW110669   2.689   2.965   3.855 -0.1253  0.3631  0.0795
 3460SOL    HW210670   2.852   2.976   3.854 -0.0237 -0.9796 -0.7990
 3461SOL     OW10671   2.349   2.189   0.216  0.2486 -0.4419  0.1368
 3461SOL    HW110672   2.408   2.112   0.191  0.1162 -0.0508 -1.5221
 3461SOL    HW210673   2.376   2.269   0.163 -1.3798 -0.0936 -0.2102
 3462SOL     OW10674   3.143   1.702   5.392  0.4115 -0.9551 -0.1999
 3462SOL    HW110675   3.075   1.670   5.458  0.5604 -1.4738 -0.2936
 3462SOL    HW210676   3.222   1.739   5.441  0.9896 -2.3169 -0.0605
 3463SOL     OW10677   2.875   3.692   0.103 -0.0596 -0.2790 -0.2439
 3463SOL    HW110678   2.776   3.685   0.103 -0.0568 -0.4870 -1.3482
 3463SOL    HW210679   2.912   3.649   0.186 -0.9670  1.5035  1.1774
 3464SOL     OW10680   2.212   2.056   4.712 -0.3624  0.3648  0.3229
 3464SOL    HW110681   2.250   2.027   4.625 -0.4039 -1.1311  0.7767
 3464SOL    HW210682   2.249   2.145   4.737 -0.1705  0.7055 -1.0920
 3465SOL     OW10683   4.024   3.040   5.516 -0.1930  0.3681 -0.5819
 3465SOL    HW110684   3.956   2.971   5.490 -2.2521  1.7370  0.8443
 3465SOL    HW210685   4.106   2.995   5.552 -1.7564 -1.3560  1.0090
 3466SOL     OW10686   2.521   4.915   5.385 -0.2009 -0.1294 -0.5525
 3466SOL    HW110687   2.596   4.978   5.406 -0.6827  0.8398 -1.6455
 3466SOL    HW210688   2.440   4.968   5.357 -0.4206 -1.2336 -2.1188
 3467SOL     OW10689   4.001   2.621   5.563 -0.1257  0.5290 -0.0921
 3467SOL    HW110690   3.952   2.549   5.514  2.7481 -0.7181 -1.3876
 3467SOL    HW210691   4.069   2.579   5.624  2.3355  2.0584 -1.6346
 3468SOL     OW10692   4.621   3.238   5.208 -0.5109  0.1147 -0.0607
 3468SOL    HW110693   4.674   3.171   5.155  0.5807  0.8508  0.0680
 3468SOL    HW210694   4.617   3.210   5.304 -0.3151  0.0778 -0.0630
 3469SOL     OW10695   3.697   2.433   5.813  0.8039 -0.3122 -0.2361
 3469SOL    HW110696   3.691   2.334   5.815 -1.7105 -0.2086  0.2809
 3469SOL    HW210697   3.773   2.463   5.870  0.4008 -1.8852  1.1852
 3470SOL     OW10698   2.641   1.076   0.553  0.3409  0.4024 -0.3456
 3470SOL    HW110699   2.733   1.086   0.517  0.3256 -3.3003 -1.7842
 3470SOL    HW210700   2.629   0.984   0.591 -2.8799  0.6084 -0.5584
 3471SOL     OW10701   0.734   2.125   0.490  0.0825 -0.0148 -0.8246
 3471SOL    HW110702   0.643   2.089   0.511  0.0863 -0.6091 -1.7687
 3471SOL    HW210703   0.782   2.061   0.430  2.1747 -1.0635  1.7858
 3472SOL     OW10704   1.769   2.555   0.770 -0.4697  0.4770 -0.4614
 3472SOL    HW110705   1.708   2.478   0.792  0.3413  0.0088  0.1921
 3472SOL    HW210706   1.754   2.630   0.834 -1.1898  0.8440 -1.0374
 3473SOL     OW10707   2.828   4.708  -0.008  0.3590 -0.2103 -0.1700
 3473SOL    HW110708   2.737   4.665  -0.009  0.2480  0.0174 -1.2065
 3473SOL    HW210709   2.827   4.787   0.052 -0.8254  1.2035 -1.9416
 3474SOL     OW10710   3.287   4.324   0.327  0.0028  0.1359 -0.0385
 3474SOL    HW110711   3.320   4.410   0.288 -0.1280 -0.2565 -1.0634
 3474SOL    HW210712   3.363   4.259   0.334  0.2546  0.5457  1.4102
 3475SOL     OW10713   2.755   3.370   5.631  0.6092 -0.5035  0.1611
 3475SOL    HW110714   2.677   3.361   5.569 -0.7510 -2.1035  1.9726
 3475SOL    HW210715   2.728   3.425   5.710  1.8165  0.1859  0.1132
 3476SOL     OW10716   3.173   1.040   5.845 -0.1407 -0.2652  0.1239
 3476SOL    HW110717   3.088   1.019   5.894  0.4415  0.4391  1.4876
 3476SOL    HW210718   3.211   1.126   5.880  1.0111 -0.4522 -0.6250
 3477SOL     OW10719   3.034   3.375   5.633  0.1713  0.1990  0.6361
 3477SOL    HW110720   2.935   3.370   5.626  0.1331 -1.3833  1.8182
 3477SOL    HW210721   3.075   3.309   5.570  0.5166  1.0110 -0.0236
 3478SOL     OW10722   2.207   1.808   5.984  0.3346 -0.2556  0.6432
 3478SOL    HW110723   2.192   1.892   5.933  0.2937  0.0175  1.1024
 3478SOL    HW210724   2.303   1.781   5.977  0.3402 -0.1898  0.4686
 3479SOL     OW10725   2.803   3.219   5.345  0.2942 -0.4108 -0.5198
 3479SOL    HW110726   2.737   3.292   5.367  0.6997 -0.0750 -0.4104
 3479SOL    HW210727   2.785   3.186   5.252 -0.5702 -0.9153 -0.1804
 3480SOL     OW10728   4.139   2.710   1.538  0.4826 -0.4675 -0.1611
 3480SOL    HW110729   4.089   2.777   1.594 -0.2850  0.1948 -1.5738
 3480SOL    HW210730   4.235   2.707   1.567  0.1988  0.1418  0.9064
 3481SOL     OW10731   2.317   2.119   5.766  0.3609 -0.1634 -0.1555
 3481SOL    HW110732   2.322   2.124   5.666 -1.4461  2.1836 -0.2199
 3481SOL    HW210733   2.400   2.075   5.801  1.8286  0.4320 -2.6009
 3482SOL     OW10734   2.767   3.708   5.638 -0.3283 -0.0140 -0.5833
 3482SOL    HW110735   2.814   3.796   5.623 -0.3387  0.4334  1.6937
 3482SOL    HW210736   2.739   3.671   5.550  0.1330  2.0170 -1.6610
 3483SOL     OW10737   4.142   3.310   5.540  0.3913  0.0963  0.3090
 3483SOL    HW110738   4.084   3.228   5.530 -0.8523  0.7787  1.6518
 3483SOL    HW210739   4.177   3.315   5.633  0.5733  1.0268  0.1946
 3484SOL     OW10740   2.602   3.277   0.358  0.3008  0.2172  0.1762
 3484SOL    HW110741   2.572   3.209   0.425  0.4203  0.2443  0.2583
 3484SOL    HW210742   2.676   3.239   0.303  0.0728  0.1269 -0.0696
 3485SOL     OW10743   2.005   3.128   5.747 -0.6561  0.0361 -0.0059
 3485SOL    HW110744   2.004   3.221   5.710 -0.2009  0.3820  0.8301
 3485SOL    HW210745   1.994   3.062   5.672  0.0603  0.7251 -0.7387
 3486SOL     OW10746   2.897   2.512   5.358 -0.5807 -0.0601  0.2813
 3486SOL    HW110747   2.939   2.597   5.390  1.0451 -0.3948 -0.8107
 3486SOL    HW210748   2.827   2.533   5.290 -0.7965  0.4319  0.6502
 3487SOL     OW10749   2.662   3.331   0.750  0.4965 -0.1415 -0.2591
 3487SOL    HW110750   2.604   3.266   0.700  1.0665 -0.1009 -0.9820
 3487SOL    HW210751   2.741   3.356   0.694  2.0340 -1.3356  1.2681
 3488SOL     OW10752   3.844   0.942   1.197 -0.1677  0.0577 -0.1582
 3488SOL    HW110753   3.790   0.860   1.177 -1.1705  1.1887 -2.5229
 3488SOL    HW210754   3.940   0.917   1.207 -0.4908 -1.4435 -0.5521
 3489SOL     OW10755   2.946   2.546   0.577  0.0155 -0.6546 -0.0195
 3489SOL    HW110756   2.952   2.464   0.633 -2.1725 -0.0735  1.1569
 3489SOL    HW210757   2.894   2.527   0.494  2.4526 -1.2673 -1.5290
 3490SOL     OW10758   2.357   3.909   0.740  0.1433 -0.5363  0.0898
 3490SOL    HW110759   2.374   3.900   0.838  0.4203 -0.2671  0.0680
 3490SOL    HW210760   2.274   3.858   0.715  0.5228 -1.2802  0.3184
 3491SOL     OW10761   2.930   2.293   5.002  0.1970 -0.3337  0.0673
 3491SOL    HW110762   2.943   2.278   4.904  2.3876  0.4451  0.1798
 3491SOL    HW210763   2.941   2.207   5.051  1.7111 -0.3116 -0.1899
 3492SOL     OW10764   1.937   1.978   0.365 -0.4986  0.3057  0.4572
 3492SOL    HW110765   2.009   1.909   0.359 -1.5802 -1.0797  2.3731
 3492SOL    HW210766   1.944   2.040   0.286 -0.1712 -2.6365 -2.0367
 3493SOL     OW10767   4.252   2.226   4.867  0.7018 -0.0867 -0.2047
 3493SOL    HW110768   4.167   2.264   4.904  1.3053  1.6474 -0.5230
 3493SOL    HW210769   4.259   2.249   4.770  0.6479 -1.8701 -0.6580
 3494SOL     OW10770   2.954   2.727   5.531  0.7023  0.2044  0.4429
 3494SOL    HW110771   3.022   2.688   5.593 -0.8472 -1.3573  1.2455
 3494SOL    HW210772   2.911   2.806   5.573 -1.0848 -1.4619  1.9311
 3495SOL     OW10773   2.829   4.673   0.284  0.2517  0.0296 -0.2742
 3495SOL    HW110774   2.901   4.735   0.316  0.4300  0.1443 -0.8889
 3495SOL    HW210775   2.839   4.658   0.186 -0.6390  0.1450 -0.3946
 3496SOL     OW10776   3.242   2.809   5.716 -0.6367 -0.8714  0.4011
 3496SOL    HW110777   3.264   2.898   5.676 -1.4034 -1.5222 -1.6297
 3496SOL    HW210778   3.294   2.796   5.800  1.2120  0.5435 -0.4444
 3497SOL     OW10779   3.689   3.653   5.169  0.2416 -0.4820  0.1554
 3497SOL    HW110780   3.776   3.605   5.164  0.4660  0.0136 -0.9986
 3497SOL    HW210781   3.669   3.675   5.265  0.7447 -1.7212  0.5665
 3498SOL     OW10782   3.213   2.995   0.046  0.0898  0.1715  0.0606
 3498SOL    HW110783   3.223   3.048  -0.038 -3.2476  1.2763  0.2167
 3498SOL    HW210784   3.205   3.056   0.124  0.6114 -0.7590  0.8757
 3499SOL     OW10785   3.009   2.908   0.787 -0.1968 -0.0492 -0.4044
 3499SOL    HW110786   3.015   2.918   0.886  2.2506 -0.5740 -0.4265
 3499SOL    HW210787   3.070   2.974   0.743  1.6939 -2.2524 -1.3223
 3500SOL     OW10788   2.709   2.149   5.359 -0.5261  0.2054  0.4362
 3500SOL    HW110789   2.775   2.144   5.434 -0.0948 -0.3848  0.0295
 3500SOL    HW210790   2.661   2.237   5.362  2.3381  1.9733 -0.9448
 3501SOL     OW10791   2.670   1.397   1.629 -0.4849 -0.3294 -0.2706
 3501SOL    HW110792   2.714   1.442   1.551 -0.2271 -0.0808  0.0112
 3501SOL    HW210793   2.599   1.457   1.667 -0.0614 -0.0969  0.1781
 3502SOL     OW10794   3.044   4.210   4.605 -0.4710  0.1899 -0.4273
 3502SOL    HW110795   3.006   4.239   4.517  0.1913  1.7921 -0.2310
 3502SOL    HW210796   3.143   4.226   4.605  0.0379 -2.4723 -0.3818
 3503SOL     OW10797   3.726   2.973   4.819 -0.2623 -1.1407  0.0710
 3503SOL    HW110798   3.824   2.954   4.806 -0.0648  0.3960 -0.8252
 3503SOL    HW210799   3.715   3.052   4.879 -0.8854 -0.0821 -1.3843
 3504SOL     OW10800   1.833   2.694   5.952 -0.2770 -0.3567 -0.0524
 3504SOL    HW110801   1.778   2.729   6.028  1.2286 -1.3850  1.5828
 3504SOL    HW210802   1.881   2.769   5.908 -2.0148  0.4007 -0.7538
 3505SOL     OW10803   3.685   3.042   0.001  0.0001  0.4081  0.2333
 3505SOL    HW110804   3.677   2.973   0.074  1.2421  1.0816  1.0452
 3505SOL    HW210805   3.620   3.115   0.018 -0.2809  0.1660  0.2114
 3506SOL     OW10806   3.786   1.264   5.743  0.2364  0.1075  0.1798
 3506SOL    HW110807   3.778   1.350   5.793 -0.2285  0.4744 -0.5236
 3506SOL    HW210808   3.808   1.190   5.808  0.7833  0.7679  0.7650
 3507SOL     OW10809   0.745   2.877   4.951  0.0970 -0.4268 -0.2390
 3507SOL    HW110810   0.734   2.952   4.886 -0.8479 -1.1368 -0.9381
 3507SOL    HW210811   0.796   2.909   5.031  0.7877  0.6228 -1.0604
 3508SOL     OW10812   3.660   4.151   5.870  0.5065  0.3148 -0.3498
 3508SOL    HW110813   3.639   4.100   5.787  0.4263  0.2066 -0.2647
 3508SOL    HW210814   3.600   4.230   5.877  0.8999  0.6449 -0.6837
 3509SOL     OW10815   2.416   4.176   0.699  0.0629  0.1916 -0.5413
 3509SOL    HW110816   2.389   4.080   0.696  2.0832 -0.4519 -0.0179
 3509SOL    HW210817   2.484   4.189   0.771  1.1471  1.6316 -1.7551
 3510SOL     OW10818   2.658   4.170   0.893 -0.3539  0.0727  0.7339
 3510SOL    HW110819   2.741   4.224   0.883 -0.7752  0.7489  0.8007
 3510SOL    HW210820   2.628   4.172   0.988  0.2085 -1.1812  0.9694
 3511SOL     OW10821   2.065   4.517   0.775  0.5846 -0.4662  0.1517
 3511SOL    HW110822   2.002   4.461   0.829 -0.5799  1.6688  1.1298
 3511SOL    HW210823   2.094   4.596   0.830 -0.4681  1.6900 -2.2248
 3512SOL     OW10824   2.382   5.640   0.474 -0.1752  0.2993  0.5626
 3512SOL    HW110825   2.478   5.666   0.479  0.0178 -0.2241 -0.1898
 3512SOL    HW210826   2.363   5.566   0.538  0.0214  0.1298  0.4259
 3513SOL     OW10827   2.738   5.231   0.433  0.1123 -0.2566  0.3229
 3513SOL    HW110828   2.837   5.245   0.437  0.0295  2.2866 -2.8143
 3513SOL    HW210829   2.696   5.267   0.517  1.7329 -0.8186  1.4235
 3514SOL     OW10830   2.662   4.119   0.496  0.0403  0.4460 -0.2273
 3514SOL    HW110831   2.694   4.136   0.403 -2.6164  0.1920 -1.2680
 3514SOL    HW210832   2.613   4.199   0.530 -2.8743 -0.9244 -0.8622
 3515SOL     OW10833   3.898   3.112   0.243  0.0102 -0.0852 -0.2512
 3515SOL    HW110834   3.830   3.039   0.235  2.4494 -2.5765  0.4868
 3515SOL    HW210835   3.873   3.171   0.320 -1.2511 -1.0115  0.0888
 3516SOL     OW10836   3.002   5.267   0.487 -0.0435 -0.4662 -0.4393
 3516SOL    HW110837   3.068   5.341   0.476 -0.9263  0.4195  0.0424
 3516SOL    HW210838   3.012   5.226   0.577  0.2327 -0.7260 -0.5865
 3517SOL     OW10839   2.583   3.975   2.015 -0.1707  0.4599  0.9715
 3517SOL    HW110840   2.538   4.046   2.068 -0.5137  0.1558  1.0968
 3517SOL    HW210841   2.519   3.900   1.999  0.3784 -0.1143  1.4101
 3518SOL     OW10842   2.343   5.476   0.678 -0.3475 -0.0176 -0.2262
 3518SOL    HW110843   2.347   5.544   0.752  0.9109 -0.1269 -0.1719
 3518SOL    HW210844   2.252   5.434   0.676 -0.8327  0.9557  0.3761
 3519SOL     OW10845   3.429   5.431   1.481 -0.1547  0.4306  0.0750
 3519SOL    HW110846   3.369   5.453   1.558  0.0861  0.7559  0.1695
 3519SOL    HW210847   3.522   5.460   1.501  0.3647 -1.3817  0.5513
 3520SOL     OW10848   0.752   4.552   0.889 -0.1213 -0.1861 -0.1269
 3520SOL    HW110849   0.849   4.542   0.863  0.2682  0.5913  0.9603
 3520SOL    HW210850   0.724   4.648   0.876 -0.3371 -0.1055  0.8839
 3521SOL     OW10851   4.363   4.832   1.704  0.3684  0.0177 -0.2276
 3521SOL    HW110852   4.329   4.808   1.794  0.1689  0.3911 -0.1991
 3521SOL    HW210853   4.327   4.768   1.636  0.9666 -0.6017  0.0288
 3522SOL     OW10854   2.738   4.519   0.688 -0.5089 -0.0694 -0.0506
 3522SOL    HW110855   2.734   4.454   0.763 -1.0143 -0.7397 -0.6403
 3522SOL    HW210856   2.657   4.507   0.630 -0.0900  0.3800 -0.7399
 3523SOL     OW10857   3.688   3.084   0.937  0.4458 -0.1216 -0.0859
 3523SOL    HW110858   3.766   3.022   0.928  0.0861 -0.7495  0.9685
 3523SOL    HW210859   3.721   3.178   0.941  1.4014 -0.4790  2.6116
 3524SOL     OW10860   3.057   1.027   0.273  0.1101 -0.2512  0.3953
 3524SOL    HW110861   3.011   1.006   0.187 -1.3511  0.8483  0.8737
 3524SOL    HW210862   3.154   1.044   0.255  0.0805 -1.1924 -0.8455
 3525SOL     OW10863   3.572   5.011   2.735 -0.0021  0.2530 -1.0007
 3525SOL    HW110864   3.624   4.951   2.674 -1.1340 -0.2514 -1.4971
 3525SOL    HW210865   3.478   5.017   2.703 -0.1827  1.4034 -0.2988
 3526SOL     OW10866   2.345   5.374   5.196  0.3597 -0.2338 -0.2543
 3526SOL    HW110867   2.285   5.436   5.247 -0.2541 -1.4041  0.4853
 3526SOL    HW210868   2.437   5.411   5.193 -0.4996  2.0586 -2.1430
 3527SOL     OW10869   0.945   4.589   1.914 -0.0471 -0.3075  0.3620
 3527SOL    HW110870   0.915   4.585   2.009  1.5154  0.5003  0.9174
 3527SOL    HW210871   1.038   4.553   1.906 -0.1921 -0.4596 -0.8861
 3528SOL     OW10872   1.909   5.709   1.509 -0.3811  0.1409 -0.0258
 3528SOL    HW110873   1.857   5.794   1.523 -0.4048  0.3345 -1.1933
 3528SOL    HW210874   1.993   5.712   1.562 -1.1685  0.1653  1.2685
 3529SOL     OW10875   1.817   5.166   5.802 -0.1705 -0.0110  0.0285
 3529SOL    HW110876   1.783   5.074   5.824  0.0961 -0.2409 -0.4954
 3529SOL    HW210877   1.907   5.158   5.759  0.1542  0.5396  0.5864
 3530SOL     OW10878   2.887   3.400   0.606  0.0005  0.6099 -0.0154
 3530SOL    HW110879   2.986   3.386   0.600 -0.2915 -2.3528  0.2469
 3530SOL    HW210880   2.868   3.483   0.657  2.3043  3.2655 -3.0887
 3531SOL     OW10881   1.749   5.100   0.387 -0.4742 -0.2731 -0.4550
 3531SOL    HW110882   1.758   5.190   0.430 -1.2076 -0.5852  0.3767
 3531SOL    HW210883   1.662   5.095   0.339  0.6002  0.2979 -2.5872
 3532SOL     OW10884   2.649   5.463   0.206  1.0098  0.2936 -0.4286
 3532SOL    HW110885   2.603   5.377   0.229  1.5243 -0.5704 -2.4352
 3532SOL    HW210886   2.596   5.510   0.135  1.9849  0.4411 -1.0689
 3533SOL     OW10887   1.509   4.832   5.903  0.2774 -0.0593  0.0456
 3533SOL    HW110888   1.506   4.742   5.947 -0.4592 -0.3535 -0.5874
 3533SOL    HW210889   1.597   4.876   5.924  0.8821 -1.1610 -0.0943
 3534SOL     OW10890   2.386   5.187   5.642  0.5828  0.0910 -0.7736
 3534SOL    HW110891   2.446   5.108   5.653 -1.9374 -1.8115  0.3000
 3534SOL    HW210892   2.379   5.236   5.729  0.0795 -0.0831 -0.7144
 3535SOL     OW10893   2.725   5.111   5.425 -0.0476 -0.0082  0.4386
 3535SOL    HW110894   2.760   5.201   5.401 -0.6356  0.9674  2.9321
 3535SOL    HW210895   2.774   5.076   5.505 -1.4541 -0.7982  1.0025
 3536SOL     OW10896   2.510   4.204   1.131 -0.0861 -0.7597  0.1753
 3536SOL    HW110897   2.510   4.195   1.230 -2.1540  0.1472  0.3161
 3536SOL    HW210898   2.416   4.200   1.097  0.5382 -0.5973 -1.7013
 3537SOL     OW10899   2.522   0.053   0.834  0.4655  0.3382 -0.3275
 3537SOL    HW110900   2.483   0.093   0.751  0.0992  1.2769  0.2885
 3537SOL    HW210901   2.575   0.121   0.884  3.1602 -0.9452 -1.2347
 3538SOL     OW10902   3.043   5.222   0.794  0.7210  1.1533 -0.0682
 3538SOL    HW110903   3.091   5.297   0.840  1.0411  0.2456  1.1274
 3538SOL    HW210904   2.945   5.230   0.812  0.8035  1.0264  0.4663
 3539SOL     OW10905   2.157   3.220   1.291  0.1607 -0.9597  0.0707
 3539SOL    HW110906   2.156   3.195   1.388  2.0391  0.6740  0.5757
 3539SOL    HW210907   2.251   3.225   1.259 -0.3001  0.8275 -1.1720
 3540SOL     OW10908   2.152   5.195   0.782 -0.2848  0.0152 -0.3807
 3540SOL    HW110909   2.102   5.246   0.713  1.1563  1.7021 -0.2354
 3540SOL    HW210910   2.199   5.118   0.739 -2.5486 -1.3393 -0.5821
 3541SOL     OW10911   2.315   3.883   5.836 -0.2381  0.0374 -0.1423
 3541SOL    HW110912   2.401   3.929   5.812 -0.0592  0.6458  1.5326
 3541SOL    HW210913   2.316   3.859   5.933 -0.7123 -2.7359 -0.7390
 3542SOL     OW10914   2.501   5.242   0.309  0.2284  0.2764  0.0385
 3542SOL    HW110915   2.593   5.239   0.349  0.0584  1.0853  0.5049
 3542SOL    HW210916   2.442   5.179   0.359  0.3158  0.3909  0.2890
 3543SOL     OW10917   1.810   3.474   2.669  0.3715 -0.2143  0.2561
 3543SOL    HW110918   1.843   3.380   2.682  0.3355 -0.1867  0.5551
 3543SOL    HW210919   1.870   3.537   2.718 -0.0554 -0.1516  0.7004
 3544SOL     OW10920   3.201  -0.007   0.637  0.1079 -0.6095  0.4124
 3544SOL    HW110921   3.136   0.061   0.669 -0.5791  0.0524 -2.1959
 3544SOL    HW210922   3.294   0.030   0.642 -0.0709 -0.2066  0.7706
 3545SOL     OW10923   4.015   5.755   0.606  0.2822  0.2561  0.5328
 3545SOL    HW110924   4.048   5.663   0.630  1.6309  1.0391  1.8612
 3545SOL    HW210925   4.083   5.802   0.551  0.3452  1.0487  1.2702
 3546SOL     OW10926   2.214   5.566   0.265  0.3657  0.4691 -0.1762
 3546SOL    HW110927   2.235   5.473   0.235  0.5413  0.3297  0.3607
 3546SOL    HW210928   2.268   5.587   0.346  0.2099  0.9853 -0.2069
 3547SOL     OW10929   4.204   4.234   1.647  0.0985 -0.7510 -0.0814
 3547SOL    HW110930   4.285   4.288   1.622 -0.5004 -0.6572 -2.0112
 3547SOL    HW210931   4.169   4.265   1.735 -0.2107  2.0709 -1.0953
 3548SOL     OW10932   4.598   3.810   1.074 -0.2638 -0.0054 -0.2398
 3548SOL    HW110933   4.499   3.799   1.084 -0.3962  1.1605 -0.1226
 3548SOL    HW210934   4.620   3.831   0.979 -0.1994  0.3197 -0.1554
 3549SOL     OW10935   2.813   5.788   0.586 -0.5483 -0.2234 -0.1022
 3549SOL    HW110936   2.903   5.769   0.625 -0.0256  1.5051 -0.4191
 3549SOL    HW210937   2.788   5.883   0.603 -2.1786 -0.5810 -0.3146
 3550SOL     OW10938   3.444   4.382   1.760  0.0450 -0.1918  0.0189
 3550SOL    HW110939   3.386   4.385   1.842  1.3714  1.8390  0.9526
 3550SOL    HW210940   3.387   4.391   1.679 -1.0025  2.3540  0.9251
 3551SOL     OW10941   2.603   4.428   1.821  0.3088 -0.3894 -0.3608
 3551SOL    HW110942   2.616   4.465   1.729  0.9595 -1.6290 -0.7842
 3551SOL    HW210943   2.528   4.362   1.820 -0.3577  0.3466  0.2286
 3552SOL     OW10944   2.949   1.665   2.421 -0.0753  0.1151  0.6601
 3552SOL    HW110945   2.992   1.576   2.408 -1.3612 -0.2260 -1.9280
 3552SOL    HW210946   2.850   1.656   2.414 -0.2659  1.6944  0.8848
 3553SOL     OW10947   2.472   4.779   0.629 -0.2789  0.0376  0.1497
 3553SOL    HW110948   2.481   4.768   0.530  0.7741 -0.2543  0.2702
 3553SOL    HW210949   2.558   4.812   0.667 -1.1207  1.5914  0.7907
 3554SOL     OW10950   0.738   5.987   1.734 -0.0122  0.5495  0.1698
 3554SOL    HW110951   0.798   5.912   1.758  0.4029  0.7334 -0.2871
 3554SOL    HW210952   0.706   6.033   1.818  0.7092  0.6326  0.4034
 3555SOL     OW10953   1.640  -0.004   0.444 -0.0854 -0.4102 -0.4255
 3555SOL    HW110954   1.595  -0.005   0.533  0.0607  0.9757 -0.3095
 3555SOL    HW210955   1.654   0.091   0.415 -1.5072 -0.7980 -2.6238
 3556SOL     OW10956   2.955   3.598   0.367 -0.0458  0.6971  0.0513
 3556SOL    HW110957   3.036   3.539   0.368 -1.2568 -1.0710  1.1941
 3556SOL    HW210958   2.946   3.642   0.456  0.0342  1.4436 -0.3078
 3557SOL     OW10959   4.107   3.609   1.475  0.7076 -0.8363  0.2751
 3557SOL    HW110960   4.084   3.557   1.393  0.4424 -0.4319  0.0882
 3557SOL    HW210961   4.046   3.687   1.483  2.3003  0.5552 -0.4957
 3558SOL     OW10962   2.480   4.887   0.311 -0.1908  0.0708  0.1953
 3558SOL    HW110963   2.480   4.789   0.331 -1.0052  0.2759  1.2872
 3558SOL    HW210964   2.567   4.912   0.268 -0.2291 -1.2357 -0.6934
 3559SOL     OW10965   2.617   2.449   5.907  0.2257  0.3096  0.5102
 3559SOL    HW110966   2.670   2.509   5.968  0.7589 -0.0397  0.3967
 3559SOL    HW210967   2.669   2.366   5.888 -1.1665 -0.9532  1.9558
 3560SOL     OW10968   2.351   3.631   5.675  0.3725  0.1463  0.0369
 3560SOL    HW110969   2.327   3.688   5.753  0.9790  1.7630 -0.9099
 3560SOL    HW210970   2.356   3.535   5.704 -1.1994  0.4681  1.5505
 3561SOL     OW10971   2.781   0.035   1.174 -0.3311 -0.1487 -0.4860
 3561SOL    HW110972   2.772   0.046   1.273 -0.9166 -0.1118 -0.5435
 3561SOL    HW210973   2.698  -0.005   1.137  0.9899 -3.1308 -0.5533
 3562SOL     OW10974   3.906   4.847   1.331  0.3939  0.2773 -0.1214
 3562SOL    HW110975   3.911   4.773   1.264 -1.0526  0.8449 -0.8996
 3562SOL    HW210976   3.996   4.891   1.340  0.9218 -0.6588 -0.6838
 3563SOL     OW10977   3.722   1.194   1.453 -0.7672  0.5613  0.0704
 3563SOL    HW110978   3.670   1.119   1.492 -1.2465  1.2988  0.8920
 3563SOL    HW210979   3.818   1.188   1.483 -0.8741  0.4479  0.3918
 3564SOL     OW10980   1.775   4.897   5.917 -0.0746 -0.0379 -0.3889
 3564SOL    HW110981   1.785   4.912   6.016  0.2019  2.0539 -0.7030
 3564SOL    HW210982   1.848   4.836   5.885  0.0928 -0.3851  0.6139
 3565SOL     OW10983   3.602   4.338   0.983  0.2060 -0.1506  0.4228
 3565SOL    HW110984   3.556   4.425   0.966  0.2910 -0.1666  0.1048
 3565SOL    HW210985   3.573   4.271   0.914 -1.2028 -0.8969  1.6613
 3566SOL     OW10986   2.840   4.337   1.939  0.4227  0.2980  0.5952
 3566SOL    HW110987   2.834   4.237   1.937  0.7323  0.2589  1.4661
 3566SOL    HW210988   2.749   4.375   1.923  0.4556 -0.1031 -0.6294
 3567SOL     OW10989   2.963   5.009   0.065 -0.4256 -0.1772  0.0451
 3567SOL    HW110990   3.015   5.006  -0.020  1.5708 -2.4320  1.2021
 3567SOL    HW210991   2.997   5.084   0.122 -1.6301  1.2080 -1.0064
 3568SOL     OW10992   3.109   3.490   1.080  0.3268  0.1030  0.1351
 3568SOL    HW110993   3.055   3.564   1.043  1.5015  0.6106 -0.6294
 3568SOL    HW210994   3.168   3.525   1.153 -0.4745 -0.4730  1.0790
 3569SOL     OW10995   3.242   4.635   1.244  0.8178 -0.3619  0.2024
 3569SOL    HW110996   3.249   4.648   1.343 -0.8422  3.0835  0.0272
 3569SOL    HW210997   3.154   4.594   1.222  0.2785  0.8318  0.0837
 3570SOL     OW10998   3.368   5.326   0.146  0.1056 -0.4761  0.2936
 3570SOL    HW110999   3.438   5.387   0.109  0.0782  1.9398  3.7681
 3570SOL    HW211000   3.284   5.336   0.093  0.6154  1.2614 -0.2535
 3571SOL     OW11001   1.862   5.039   5.426 -0.2735 -0.4343 -0.0413
 3571SOL    HW111002   1.840   4.980   5.504 -0.0160 -1.2369 -0.5603
 3571SOL    HW211003   1.960   5.055   5.422 -0.4606  1.0494  0.7969
 3572SOL     OW11004   1.653   4.684   2.503 -0.3431  0.6646  0.5377
 3572SOL    HW111005   1.631   4.780   2.520  0.7956  0.9870  0.2720
 3572SOL    HW211006   1.691   4.674   2.411  2.0250  0.4184  1.4789
 3573SOL     OW11007   4.020   4.932   0.932 -0.0305 -0.0254  0.2719
 3573SOL    HW111008   3.935   4.880   0.933  0.3044 -0.6309 -0.8622
 3573SOL    HW211009   4.089   4.885   0.987  0.9680 -2.1134 -2.5115
 3574SOL     OW11010   1.035   4.366   0.945  0.1663  0.3833  0.4807
 3574SOL    HW111011   1.111   4.368   1.010 -0.6875 -0.1673  1.5225
 3574SOL    HW211012   1.057   4.303   0.870  0.5904 -0.0680  0.9727
 3575SOL     OW11013   3.014   3.402   1.482 -0.2187  0.1086  0.6187
 3575SOL    HW111014   2.944   3.396   1.553  1.3588  1.6335  2.4150
 3575SOL    HW211015   3.028   3.497   1.455  0.3177 -0.2905 -0.6199
 3576SOL     OW11016   3.057   4.910   5.617 -0.0300  0.1674 -0.5160
 3576SOL    HW111017   3.038   4.937   5.522 -0.2247 -0.2933 -0.6091
 3576SOL    HW211018   3.097   4.818   5.618  2.7159  1.2545 -0.3923
 3577SOL     OW11019   2.209   2.946   1.975  0.6540 -0.1833  0.1708
 3577SOL    HW111020   2.223   2.871   2.039 -3.6397  0.4102  2.1658
 3577SOL    HW211021   2.237   3.032   2.017 -2.2530  0.2184  1.5184
 3578SOL     OW11022   2.867   5.348   1.095 -0.4294 -0.5273  0.9729
 3578SOL    HW111023   2.844   5.264   1.144 -1.6898 -0.4155  0.5941
 3578SOL    HW211024   2.820   5.350   1.007  2.9538 -1.4614 -1.0583
 3579SOL     OW11025   3.642   3.974   0.661 -0.3862 -0.6536  0.3411
 3579SOL    HW111026   3.721   4.003   0.607 -0.4529 -1.1896 -0.0539
 3579SOL    HW211027   3.672   3.913   0.734 -0.3214 -0.0931  0.7893
 3580SOL     OW11028   1.893   5.015   0.639 -0.4902  0.5754 -0.0965
 3580SOL    HW111029   1.913   5.055   0.550  1.5717 -0.4404 -0.1331
 3580SOL    HW211030   1.818   4.949   0.630 -2.9053  3.1581 -0.3063
 3581SOL     OW11031   2.356   4.843   5.829  0.5107 -0.1642  0.2769
 3581SOL    HW111032   2.333   4.844   5.926  0.3652 -0.9577  0.2551
 3581SOL    HW211033   2.398   4.755   5.806  0.9083  0.1701 -0.2968
 3582SOL     OW11034   2.232   3.663   5.437  0.3413  0.3508  0.3536
 3582SOL    HW111035   2.284   3.636   5.518 -1.1318  0.4185  1.3660
 3582SOL    HW211036   2.240   3.592   5.367  1.3089  0.1005  0.7031
 3583SOL     OW11037   1.950   3.656   5.399 -0.1813  0.6403  0.3641
 3583SOL    HW111038   1.919   3.561   5.406 -0.4314  0.2570 -3.5848
 3583SOL    HW211039   2.046   3.662   5.426  0.6504 -1.4119 -1.7399
 3584SOL     OW11040   2.527   3.888   0.523  0.1433 -0.0777  0.3521
 3584SOL    HW111041   2.573   3.976   0.520  0.2905  0.0091  2.8282
 3584SOL    HW211042   2.460   3.888   0.598 -2.0224 -1.0995 -1.4567
 3585SOL     OW11043   2.780   4.922   1.584  0.1034  0.3985 -0.2794
 3585SOL    HW111044   2.687   4.934   1.549  0.7521  0.2251 -2.2235
 3585SOL    HW211045   2.815   5.010   1.617 -0.4363  0.6642 -0.4074
 3586SOL     OW11046   1.775   1.025   0.602 -0.3383 -0.0018 -0.2048
 3586SOL    HW111047   1.699   1.040   0.666 -0.4432  0.5266 -0.4516
 3586SOL    HW211048   1.760   1.079   0.519  0.2791  0.0492 -0.2828
 3587SOL     OW11049   1.674   4.494   0.507  0.5728 -0.1949  0.0127
 3587SOL    HW111050   1.701   4.398   0.514 -2.1349 -1.1888 -1.6080
 3587SOL    HW211051   1.633   4.523   0.594 -0.9259 -1.3696 -0.2557
 3588SOL     OW11052   2.817   5.527   1.285 -0.5013 -0.0789 -0.2362
 3588SOL    HW111053   2.903   5.529   1.336  0.3039  0.9221 -1.5815
 3588SOL    HW211054   2.818   5.451   1.220 -1.1773 -0.8320  0.6031
 3589SOL     OW11055   2.207   4.675   0.229 -0.2669  0.1171 -0.8843
 3589SOL    HW111056   2.188   4.720   0.316  1.1070 -0.0867 -0.4582
 3589SOL    HW211057   2.252   4.587   0.246 -0.0273  0.0589 -1.7936
 3590SOL     OW11058   3.333   4.760   0.372  0.6741 -0.0665  0.3638
 3590SOL    HW111059   3.281   4.722   0.448 -0.9645  1.6121  0.1488
 3590SOL    HW211060   3.347   4.689   0.302 -1.3320 -0.6067  0.4487
 3591SOL     OW11061   2.652   3.890   0.875 -0.1290 -0.1777  0.1580
 3591SOL    HW111062   2.749   3.898   0.852 -0.4072 -0.1414 -1.0695
 3591SOL    HW211063   2.617   3.978   0.905  0.0175  0.0174 -0.2368
 3592SOL     OW11064   2.844   4.391   0.919  0.0818  0.3126  0.1773
 3592SOL    HW111065   2.819   4.446   0.998  0.8132 -1.7705  1.9609
 3592SOL    HW211066   2.940   4.364   0.927 -0.0420 -0.5609 -1.0267
 3593SOL     OW11067   2.195   4.043   0.394  0.2555  0.2359  0.5276
 3593SOL    HW111068   2.108   4.079   0.426 -1.0197 -0.0597 -2.2960
 3593SOL    HW211069   2.189   3.943   0.385  1.0735  0.1492  0.8355
 3594SOL     OW11070   3.217   3.967   4.705 -0.0914 -0.0901 -0.1983
 3594SOL    HW111071   3.127   3.927   4.716  0.0900 -0.3293  0.4392
 3594SOL    HW211072   3.215   4.064   4.730  0.4023 -0.7075  2.5133
 3595SOL     OW11073   2.572   3.644   0.754 -0.0814  0.3559 -0.5268
 3595SOL    HW111074   2.477   3.638   0.723 -0.2879 -1.5780  0.3234
 3595SOL    HW211075   2.592   3.738   0.782 -1.2948  1.1052 -2.0112
 3596SOL     OW11076   4.086   3.490   1.242  0.2907 -0.1651  0.5431
 3596SOL    HW111077   4.026   3.410   1.241  0.1483 -0.0563 -0.1442
 3596SOL    HW211078   4.095   3.526   1.149  1.7813 -0.4528  0.5477
 3597SOL     OW11079   3.007   5.943   1.592 -0.3981 -0.3803 -0.1462
 3597SOL    HW111080   2.987   5.994   1.675 -1.6557 -1.6136  0.3599
 3597SOL    HW211081   3.105   5.927   1.585 -0.0970  1.1751  0.1996
 3598SOL     OW11082   1.899   4.904   0.228  0.0827  0.8319  0.2121
 3598SOL    HW111083   1.884   4.811   0.263  0.2405  0.4747 -0.6289
 3598SOL    HW211084   1.823   4.963   0.256 -1.4829 -0.2289 -1.5089
 3599SOL     OW11085   2.117   5.249   1.038 -0.3291 -0.3877  0.5516
 3599SOL    HW111086   2.185   5.250   1.111 -0.9475  0.1096  1.1385
 3599SOL    HW211087   2.161   5.265   0.950  0.6461 -2.5151  0.6101
 3600SOL     OW11088   1.729   3.702   1.136  0.8803 -0.2919  0.2993
 3600SOL    HW111089   1.728   3.672   1.231 -1.2011 -0.1262  0.3738
 3600SOL    HW211090   1.719   3.801   1.132  0.9775 -0.2960 -0.0946
 3601SOL     OW11091   4.365   3.763   1.787 -0.0854 -0.1178 -0.1131
 3601SOL    HW111092   4.319   3.681   1.754  0.2399 -0.5812  0.5766
 3601SOL    HW211093   4.317   3.798   1.867 -0.2349  0.3827 -0.4147
 3602SOL     OW11094   3.306   3.759   1.069  0.3921  0.0093 -0.2384
 3602SOL    HW111095   3.264   3.719   1.151  1.5606 -0.7597  0.0100
 3602SOL    HW211096   3.405   3.762   1.081  0.4173  2.0972 -0.6778
 3603SOL     OW11097   4.200   5.527   2.466 -0.4954  0.4696 -0.1362
 3603SOL    HW111098   4.177   5.565   2.556 -1.0976 -1.5890  0.6158
 3603SOL    HW211099   4.119   5.527   2.408 -1.6500 -3.2538  1.2353
 3604SOL     OW11100   3.862   4.093   0.566 -0.3446 -0.2730  0.1018
 3604SOL    HW111101   3.927   4.154   0.612  0.9596 -2.2166  0.9705
 3604SOL    HW211102   3.870   4.104   0.467  3.2180 -2.1624  0.0206
 3605SOL     OW11103   3.548   3.725   1.158 -0.4271 -0.0967 -0.2991
 3605SOL    HW111104   3.584   3.801   1.211 -1.8500 -1.0414  2.1679
 3605SOL    HW211105   3.612   3.648   1.161  1.9016  1.3594 -4.2892
 3606SOL     OW11106   3.967   3.874   1.503  0.2090  0.0969  0.0698
 3606SOL    HW111107   3.984   3.833   1.592 -0.2340  1.4608  0.8203
 3606SOL    HW211108   3.994   3.970   1.505  0.9839 -0.0536 -1.5361
 3607SOL     OW11109   2.549   4.488   1.111  0.4064 -0.1463  0.3790
 3607SOL    HW111110   2.564   4.390   1.104 -0.0785 -0.1502 -1.1059
 3607SOL    HW211111   2.470   4.514   1.054  1.8255  1.3813 -1.0051
 3608SOL     OW11112   3.403   5.037   0.449  0.5391 -0.1097  0.2830
 3608SOL    HW111113   3.361   5.061   0.537  1.2198 -1.0837  0.8888
 3608SOL    HW211114   3.375   4.945   0.423  0.8459 -0.0637 -0.2141
 3609SOL     OW11115   1.925   5.388   1.175  0.2242  0.0044  0.3541
 3609SOL    HW111116   1.860   5.435   1.116  0.2758 -1.4535 -0.9220
 3609SOL    HW211117   1.973   5.317   1.123  2.5251  0.7220  1.3595
 3610SOL     OW11118   3.163   3.352   0.605 -0.5949 -0.0922 -0.2424
 3610SOL    HW111119   3.212   3.394   0.528  0.1183 -0.9538 -0.2842
 3610SOL    HW211120   3.194   3.393   0.690  0.7212 -1.0414 -0.2150
 3611SOL     OW11121   2.186   5.634   2.490 -0.2188  0.1168 -0.3420
 3611SOL    HW111122   2.187   5.646   2.391  0.4496 -0.4090 -0.3997
 3611SOL    HW211123   2.128   5.556   2.513 -1.6522  1.1874 -0.2019
 3612SOL     OW11124   2.000   4.501   4.794 -0.1247 -0.4857  0.1019
 3612SOL    HW111125   2.076   4.437   4.784 -0.0625 -0.8008  2.2894
 3612SOL    HW211126   1.916   4.452   4.816 -0.6701 -0.0125 -0.8392
 3613SOL     OW11127   2.787   5.255   0.842  0.4344  0.2203 -0.5098
 3613SOL    HW111128   2.743   5.176   0.883  0.3549  0.3356 -0.3740
 3613SOL    HW211129   2.726   5.297   0.774 -0.5390  1.6352  1.1545
 3614SOL     OW11130   3.759   5.075   1.334  0.1978 -0.1793 -0.4552
 3614SOL    HW111131   3.818   5.133   1.278 -0.7373  0.7368 -0.5312
 3614SOL    HW211132   3.782   4.979   1.318  1.8656  0.1534 -0.2269
 3615SOL     OW11133   4.142   5.726   2.153  0.6040 -0.0224  0.2159
 3615SOL    HW111134   4.075   5.706   2.225  1.0399  1.4479  1.0590
 3615SOL    HW211135   4.112   5.683   2.067 -1.9505  1.3825  0.3096
 3616SOL     OW11136   3.269   4.395   5.826 -0.0710 -0.2550 -0.1703
 3616SOL    HW111137   3.266   4.364   5.731  2.1698 -2.3105  0.3045
 3616SOL    HW211138   3.231   4.324   5.885  0.0416  0.2934  0.5694
 3617SOL     OW11139   3.146   5.330   0.031  0.5551  0.1275 -0.5958
 3617SOL    HW111140   3.131   5.275  -0.052  2.1910 -1.7555  0.2699
 3617SOL    HW211141   3.059   5.372   0.059 -1.1338 -3.0351 -0.6287
 3618SOL     OW11142   3.013   4.758   1.527 -1.0301  0.1687  0.1914
 3618SOL    HW111143   3.023   4.820   1.450  0.6711  1.7562  1.6061
 3618SOL    HW211144   2.923   4.769   1.568 -1.4156  0.3423 -0.6916
 3619SOL     OW11145   3.658   5.551   1.566  0.3017  0.1697  0.0664
 3619SOL    HW111146   3.676   5.642   1.603  0.0058  0.3323 -0.1857
 3619SOL    HW211147   3.731   5.525   1.504  0.7584 -0.0686  0.6873
 3620SOL     OW11148   1.876   4.667   0.355  0.2342 -0.6074 -0.0313
 3620SOL    HW111149   1.953   4.609   0.384 -1.2701 -1.3212  2.8527
 3620SOL    HW211150   1.793   4.611   0.349 -0.7917  0.8159  0.5571
 3621SOL     OW11151   2.615   3.542   2.044 -0.6169 -0.0811 -0.1731
 3621SOL    HW111152   2.704   3.586   2.035 -0.3354 -0.5658  0.1735
 3621SOL    HW211153   2.627   3.443   2.048 -1.3151 -0.3129 -2.2751
 3622SOL     OW11154   0.465   4.628   1.293 -0.8665 -0.1616 -0.2587
 3622SOL    HW111155   0.439   4.535   1.265 -0.5136 -0.1958 -0.4808
 3622SOL    HW211156   0.440   4.693   1.222 -0.2222 -0.2136 -0.5435
 3623SOL     OW11157   2.418   5.391   5.477 -0.3027 -0.1151 -0.5720
 3623SOL    HW111158   2.400   5.319   5.544 -2.0250  1.0542  0.3022
 3623SOL    HW211159   2.443   5.350   5.390  4.0131 -1.7325  1.1379
 3624SOL     OW11160   2.317   2.987   5.605  0.8693  0.0096 -0.5394
 3624SOL    HW111161   2.305   3.044   5.686  1.8517 -0.2838 -0.1595
 3624SOL    HW211162   2.260   2.905   5.613  2.3034 -0.9231  0.7692
 3625SOL     OW11163   2.274   4.617   1.942  0.1631  0.5028  0.0795
 3625SOL    HW111164   2.298   4.621   1.845  1.2156 -3.0170  0.0230
 3625SOL    HW211165   2.181   4.582   1.952  0.0124  0.9771  0.3425
 3626SOL     OW11166   2.144   4.829   0.452  0.4091  0.6338 -0.1241
 3626SOL    HW111167   2.081   4.876   0.390 -0.2145  0.9586  0.7318
 3626SOL    HW211168   2.157   4.884   0.535  1.8482  0.5743 -0.2927
 3627SOL     OW11169   1.636   3.544   1.861  0.6477  0.2353 -0.1249
 3627SOL    HW111170   1.637   3.454   1.817  1.6356  0.6332 -0.9631
 3627SOL    HW211171   1.591   3.610   1.801  0.2708  0.3884  0.3198
 3628SOL     OW11172   3.557   4.564   2.380 -0.3027 -0.0718  0.2812
 3628SOL    HW111173   3.613   4.624   2.323 -0.9257 -0.3385 -0.6428
 3628SOL    HW211174   3.503   4.619   2.443 -0.6952  0.3383 -0.3983
 3629SOL     OW11175   1.228   3.679   5.713  0.2561  0.3258  0.1848
 3629SOL    HW111176   1.295   3.625   5.660  0.1878  0.8936 -0.4906
 3629SOL    HW211177   1.248   3.669   5.811  0.9338 -0.0296  0.0201
 3630SOL     OW11178   4.273   4.646   1.495 -0.0739 -0.0673  0.1228
 3630SOL    HW111179   4.177   4.627   1.476 -0.0574 -0.4672  0.4426
 3630SOL    HW211180   4.315   4.568   1.540  0.8958 -0.6851 -1.7217
 3631SOL     OW11181   0.780   4.949   1.581 -0.0391 -0.0016 -0.4515
 3631SOL    HW111182   0.864   4.966   1.528  0.0143 -1.4919 -0.8874
 3631SOL    HW211183   0.793   4.868   1.639 -0.9036  0.2402  0.0976
 3632SOL     OW11184   1.643   4.851   1.348 -0.1461 -0.3988 -0.1077
 3632SOL    HW111185   1.699   4.774   1.318  0.3724  0.9575 -2.9861
 3632SOL    HW211186   1.549   4.839   1.314 -0.2371 -0.1097  0.0372
 3633SOL     OW11187   4.542   5.374   2.036  0.0982 -0.2894 -0.2914
 3633SOL    HW111188   4.602   5.432   1.981  0.7414 -1.6939 -1.1365
 3633SOL    HW211189   4.570   5.379   2.132  1.0457 -0.2706 -0.5517
 3634SOL     OW11190   3.291   5.037   1.471 -0.3042  0.2953 -0.7696
 3634SOL    HW111191   3.226   5.067   1.400 -1.3053  1.3888  0.5505
 3634SOL    HW211192   3.374   5.093   1.465 -1.3985  2.1856  0.4552
 3635SOL     OW11193   3.333   4.677   5.805  0.1783 -0.0323  0.5292
 3635SOL    HW111194   3.412   4.699   5.749 -1.1223  0.3930 -1.2388
 3635SOL    HW211195   3.347   4.588   5.849  1.2164 -0.4353 -0.5613
 3636SOL     OW11196   4.743   5.212   5.820 -0.1550 -0.5892 -0.3358
 3636SOL    HW111197   4.833   5.247   5.846 -0.3544  0.2980 -0.7751
 3636SOL    HW211198   4.678   5.288   5.817 -0.0676 -0.4969 -3.7416
 3637SOL     OW11199   2.969   4.982   5.383 -0.4608  0.1844  0.2222
 3637SOL    HW111200   2.932   5.072   5.356  1.3005  1.1495  0.8476
 3637SOL    HW211201   2.951   4.916   5.311 -3.3928  0.5484  0.5073
 3638SOL     OW11202   2.289   4.920   0.129 -0.0759 -0.0115 -0.3643
 3638SOL    HW111203   2.233   4.843   0.160  0.2980 -0.4438 -0.7510
 3638SOL    HW211204   2.368   4.931   0.190 -0.9489  1.0557  0.6121
 3639SOL     OW11205   2.884   4.281   5.432 -0.1972  0.6861  0.3969
 3639SOL    HW111206   2.902   4.208   5.366 -2.0449 -0.7688  1.3978
 3639SOL    HW211207   2.855   4.364   5.383  0.0767  0.1728 -0.6750
 3640SOL     OW11208   2.314   3.799   1.764 -0.2064  0.2440 -0.5779
 3640SOL    HW111209   2.341   3.768   1.855 -1.3013  0.2454 -0.2408
 3640SOL    HW211210   2.225   3.760   1.740 -0.2274  0.7565 -1.3844
 3641SOL     OW11211   2.358   3.152   5.386  0.0710 -0.2547 -0.0897
 3641SOL    HW111212   2.414   3.106   5.316 -0.2181 -0.1843 -0.3730
 3641SOL    HW211213   2.333   3.086   5.457  3.4055  0.4608  1.9349
 3642SOL     OW11214   2.717   0.062   0.644 -0.0938  0.5127  0.1890
 3642SOL    HW111215   2.717   0.161   0.628  0.8406  0.5822  0.5135
 3642SOL    HW211216   2.653   0.040   0.717 -1.2026  0.7155 -0.6846
 3643SOL     OW11217   1.739   4.790   1.612 -0.4724 -0.1658  0.1674
 3643SOL    HW111218   1.815   4.853   1.631 -1.9913  0.6000  5.1609
 3643SOL    HW211219   1.686   4.824   1.535  1.6036  1.8068 -0.5076
 3644SOL     OW11220   1.807   4.672   1.238  0.2662 -0.1616 -0.1308
 3644SOL    HW111221   1.845   4.580   1.230 -0.9525 -0.5508 -2.1936
 3644SOL    HW211222   1.840   4.729   1.162 -1.1597  0.2457 -0.4842
 3645SOL     OW11223   1.702   5.224   1.057  0.2120  0.2505 -0.7159
 3645SOL    HW111224   1.792   5.199   1.020  0.1826 -2.4142  0.7657
 3645SOL    HW211225   1.633   5.166   1.016 -0.6108  1.0729 -0.5249
 3646SOL     OW11226   1.790   4.517   1.678 -0.7476 -0.4053  0.2039
 3646SOL    HW111227   1.732   4.496   1.757  2.0029 -1.4027  2.0863
 3646SOL    HW211228   1.770   4.610   1.646 -1.1597  0.4893  2.8328
 3647SOL     OW11229   3.590   4.638   1.522 -0.2247 -0.5775  0.3393
 3647SOL    HW111230   3.491   4.649   1.537 -0.3180  0.7505 -1.0251
 3647SOL    HW211231   3.607   4.554   1.470 -0.7620 -0.2200 -0.4367
 3648SOL     OW11232   3.515   5.098   0.177  0.0234  0.5417  0.6256
 3648SOL    HW111233   3.509   5.062   0.270 -0.2976 -1.6642 -0.1835
 3648SOL    HW211234   3.453   5.177   0.167 -1.1424 -0.1804  1.8569
 3649SOL     OW11235   3.150   3.356   1.814 -0.4318  0.0340  0.3685
 3649SOL    HW111236   3.129   3.452   1.832 -1.9368 -0.3318  0.7749
 3649SOL    HW211237   3.067   3.302   1.827  0.2316 -1.2388 -0.5239
 3650SOL     OW11238   1.523   4.798   2.901  0.0964  0.2104 -0.0677
 3650SOL    HW111239   1.612   4.842   2.904  0.1174  0.2470 -0.9784
 3650SOL    HW211240   1.456   4.859   2.859  0.1200 -0.5890 -1.3311
 3651SOL     OW11241   2.993   4.853   1.076 -0.8346 -0.1358 -0.2050
 3651SOL    HW111242   2.905   4.868   1.031  1.2200 -1.0251 -5.1933
 3651SOL    HW211243   2.998   4.758   1.108 -1.2484 -0.4924 -1.1562
 3652SOL     OW11244   3.798   0.226   1.192 -0.0106  0.0605  0.5710
 3652SOL    HW111245   3.787   0.323   1.215 -0.8111 -0.4442  2.4137
 3652SOL    HW211246   3.880   0.190   1.237  0.3442 -0.1181 -0.1964
 3653SOL     OW11247   1.759   4.955   5.165  0.5096 -0.3118  0.0905
 3653SOL    HW111248   1.801   4.979   5.253  1.9639 -2.2520 -0.0000
 3653SOL    HW211249   1.777   5.027   5.098  2.0632 -0.1927  0.5937
 3654SOL     OW11250   2.312   5.381   1.919 -0.1251 -0.4292  0.8542
 3654SOL    HW111251   2.228   5.402   1.969 -0.8825 -2.9190  0.7839
 3654SOL    HW211252   2.360   5.307   1.966  0.2541 -1.3638 -0.9200
 3655SOL     OW11253   2.804   4.032   1.131 -0.0557  0.3523  0.5297
 3655SOL    HW111254   2.813   4.026   1.031  0.2518  2.5146  0.3832
 3655SOL    HW211255   2.764   3.947   1.166 -0.2657 -0.4125 -1.4350
 3656SOL     OW11256   3.059   5.138   5.791 -0.5872  0.4963  0.2390
 3656SOL    HW111257   2.963   5.163   5.796 -0.3268  1.9502 -1.4218
 3656SOL    HW211258   3.068   5.050   5.743 -1.1004  0.0194  0.9871
 3657SOL     OW11259   3.933   4.677   1.946  0.3538 -0.7120  0.1634
 3657SOL    HW111260   3.959   4.625   1.865  1.7353 -0.7334  0.5813
 3657SOL    HW211261   3.963   4.627   2.028  3.7304  1.6092  0.5592
 3658SOL     OW11262   1.931   0.101   0.715 -0.0571  0.6937 -0.1641
 3658SOL    HW111263   1.920   0.073   0.619 -1.7113  0.2551  0.1354
 3658SOL    HW211264   1.948   0.199   0.719 -2.0921  1.1208 -0.8262
 3659SOL     OW11265   1.727   4.231   2.136  0.1130  0.1606  0.0755
 3659SOL    HW111266   1.748   4.160   2.203  1.9249 -0.7198 -1.3388
 3659SOL    HW211267   1.765   4.318   2.166 -2.0064  0.5895  1.7581
 3660SOL     OW11268   3.084   5.917   2.596 -0.0036  0.4452  0.2432
 3660SOL    HW111269   3.060   5.860   2.674 -1.1048  0.5437 -0.0085
 3660SOL    HW211270   3.165   5.972   2.619 -0.5796  0.8133  1.4786
 3661SOL     OW11271   2.387   2.791   0.759 -0.1368  0.4650 -0.3092
 3661SOL    HW111272   2.315   2.755   0.699 -1.0424  0.7851  0.5694
 3661SOL    HW211273   2.385   2.742   0.846  1.7859 -0.6489 -0.8335
 3662SOL     OW11274   2.147   4.891   5.644 -0.3069 -0.5730 -0.1338
 3662SOL    HW111275   2.102   4.808   5.609 -0.3946 -0.3669 -0.5182
 3662SOL    HW211276   2.234   4.865   5.687 -0.9639 -1.0097  0.9483
 3663SOL     OW11277   2.849   0.198   4.910  0.3773 -0.3731  0.0454
 3663SOL    HW111278   2.770   0.202   4.850 -0.8036 -2.4154  1.3671
 3663SOL    HW211279   2.881   0.104   4.917  1.9702  0.1840  0.7800
 3664SOL     OW11280   2.008   4.457   2.596  0.1353 -0.4432  0.2079
 3664SOL    HW111281   2.049   4.371   2.627 -0.3060 -0.2538  1.3679
 3664SOL    HW211282   1.908   4.450   2.598  0.0905 -0.4213 -1.2211
 3665SOL     OW11283   2.536   4.691   5.213  0.4583 -0.6264 -0.2780
 3665SOL    HW111284   2.445   4.677   5.174  0.5853 -1.1548 -0.3941
 3665SOL    HW211285   2.537   4.776   5.266 -0.1239 -0.6628 -0.2029
 3666SOL     OW11286   2.997   4.563   1.976  0.3583 -0.0748 -0.1479
 3666SOL    HW111287   2.935   4.493   1.940  0.5981 -0.7084  0.6474
 3666SOL    HW211288   2.949   4.618   2.044  0.6748 -0.6351  0.5484
 3667SOL     OW11289   2.174   5.879   0.817 -0.2227  0.6193  0.0478
 3667SOL    HW111290   2.098   5.840   0.765 -0.5311 -0.4307  1.2483
 3667SOL    HW211291   2.141   5.915   0.904  0.8264 -1.2151  1.2654
 3668SOL     OW11292   4.819   5.463   1.451 -0.4685 -0.1942  0.0466
 3668SOL    HW111293   4.772   5.449   1.364 -0.9139  0.9731  0.0843
 3668SOL    HW211294   4.766   5.525   1.508  0.2002 -0.3427  0.8477
 3669SOL     OW11295   4.578   4.023   2.249  0.1629  0.0461  0.1847
 3669SOL    HW111296   4.669   3.998   2.284  0.3670 -1.0697 -1.0798
 3669SOL    HW211297   4.555   3.966   2.171 -0.9473  1.4361 -0.5551
 3670SOL     OW11298   2.322   4.417   0.956  0.6531  0.3747 -0.3161
 3670SOL    HW111299   2.251   4.459   1.012  0.6880 -0.2957  0.2478
 3670SOL    HW211300   2.282   4.347   0.897  0.8616 -0.1711  0.1720
 3671SOL     OW11301   2.381   4.544   5.870  0.0656 -0.2144 -0.0189
 3671SOL    HW111302   2.422   4.506   5.787  3.5753  0.8744  1.0341
 3671SOL    HW211303   2.286   4.569   5.852  0.4201 -0.8693 -3.4095
 3672SOL     OW11304   1.519   5.646   0.588 -0.0377  0.3293 -0.4595
 3672SOL    HW111305   1.581   5.592   0.531 -1.4727 -1.5582 -0.3455
 3672SOL    HW211306   1.469   5.585   0.649 -0.7763  1.9831  0.6403
 3673SOL     OW11307   1.020   4.103   5.905 -0.2675  0.4197  0.1665
 3673SOL    HW111308   1.012   4.014   5.859  1.2514  0.0073  0.6243
 3673SOL    HW211309   0.937   4.121   5.957  0.5746 -2.3109  2.7133
 3674SOL     OW11310   2.345   5.065   0.453  0.6197  0.1474 -0.3786
 3674SOL    HW111311   2.317   5.030   0.542  1.5194  0.8897  0.2230
 3674SOL    HW211312   2.390   4.992   0.401 -0.2809 -0.4008 -0.4052
 3675SOL     OW11313   2.110   4.740   0.922 -0.0412 -0.2077  0.2187
 3675SOL    HW111314   2.016   4.755   0.951 -0.8231  0.5732 -2.3855
 3675SOL    HW211315   2.172   4.789   0.982 -1.4643  0.9827  0.7870
 3676SOL     OW11316   4.158   4.272   1.950 -0.1186  0.7487 -0.3918
 3676SOL    HW111317   4.195   4.366   1.950 -1.2907  1.2444  0.6593
 3676SOL    HW211318   4.063   4.274   1.981 -0.5166 -0.6878 -1.4299
 3677SOL     OW11319   2.729   4.705   1.135 -0.1861 -0.0723  0.2413
 3677SOL    HW111320   2.658   4.637   1.115 -1.7976  1.7721 -0.7027
 3677SOL    HW211321   2.815   4.658   1.157 -1.6697 -2.4137  1.5506
 3678SOL     OW11322   2.486   4.038   0.266 -0.1808 -0.1415 -0.4895
 3678SOL    HW111323   2.429   4.085   0.334 -1.5210 -1.2877 -0.7683
 3678SOL    HW211324   2.515   3.949   0.303  0.3620 -0.1119 -0.8407
 3679SOL     OW11325   2.349   5.657   0.876 -0.4431 -0.4976 -0.1924
 3679SOL    HW111326   2.281   5.624   0.941  0.8787 -1.6986  0.6302
 3679SOL    HW211327   2.315   5.740   0.832 -1.1616  0.7270  2.4608
 3680SOL     OW11328   3.036   4.491   1.497 -0.3280 -0.2258 -0.4492
 3680SOL    HW111329   2.969   4.442   1.553 -0.3479 -0.7771 -0.9504
 3680SOL    HW211330   3.028   4.589   1.515  0.0506 -0.4310  0.9389
 3681SOL     OW11331   1.937   5.635   0.186  0.2114 -0.3340 -0.2877
 3681SOL    HW111332   2.032   5.616   0.211  1.0725  0.0538 -2.9230
 3681SOL    HW211333   1.918   5.597   0.095 -2.2351 -0.5454  0.2327
 3682SOL     OW11334   2.834   5.817   1.438  0.0051  0.2146 -0.4932
 3682SOL    HW111335   2.908   5.858   1.490  0.5031 -0.9536 -0.2450
 3682SOL    HW211336   2.871   5.774   1.355 -0.3015 -0.8163 -0.1166
 3683SOL     OW11337   2.886   4.231   1.273  0.0122 -0.5520  0.1015
 3683SOL    HW111338   2.964   4.195   1.324  0.1231  0.0086  0.3335
 3683SOL    HW211339   2.853   4.161   1.209  0.5298 -0.8878  0.1945
 3684SOL     OW11340   2.363   2.945   0.329 -0.0467 -0.4136  0.6135
 3684SOL    HW111341   2.459   2.933   0.353 -0.4951 -2.2388  1.7419
 3684SOL    HW211342   2.355   2.995   0.243  1.9103 -0.4137  0.4042
 3685SOL     OW11343   3.454   3.653   1.686 -0.0549 -0.1329  0.3197
 3685SOL    HW111344   3.552   3.633   1.681 -0.0286 -0.4151  1.6451
 3685SOL    HW211345   3.438   3.721   1.757 -0.7377  0.5737 -0.4913
 3686SOL     OW11346   2.904   2.263   1.023  0.1940  0.4293  0.1203
 3686SOL    HW111347   2.906   2.350   1.072  0.1366 -0.6350  2.1355
 3686SOL    HW211348   2.810   2.241   0.997  0.0862  0.5730  0.3860
 3687SOL     OW11349   1.467   4.325   5.559  0.2469 -0.6524  0.2817
 3687SOL    HW111350   1.381   4.294   5.599 -0.4325 -0.1917 -0.7632
 3687SOL    HW211351   1.455   4.340   5.461  1.2197  0.4564  0.2971
 3688SOL     OW11352   1.153   4.958   1.878  0.3438 -0.1427 -0.0212
 3688SOL    HW111353   1.090   5.036   1.873 -1.2796 -1.4339 -0.8361
 3688SOL    HW211354   1.140   4.910   1.965  0.9909  0.2043  0.2720
 3689SOL     OW11355   3.540   4.642   5.621  0.4344  0.1892 -0.4334
 3689SOL    HW111356   3.576   4.558   5.581  0.8916  0.3300 -0.3194
 3689SOL    HW211357   3.610   4.684   5.678  0.1288  0.5295 -0.3088
 3690SOL     OW11358   3.190   5.033   1.003 -0.6214  0.0390  0.0669
 3690SOL    HW111359   3.112   4.979   1.035 -0.4604 -0.5932 -0.5648
 3690SOL    HW211360   3.177   5.057   0.907  1.0030 -2.1487 -0.7983
 3691SOL     OW11361   1.752   5.094   1.565  0.2250  0.2541 -0.0798
 3691SOL    HW111362   1.836   5.141   1.594 -0.9481  2.3642  0.0353
 3691SOL    HW211363   1.752   5.084   1.465  0.9089 -0.3901 -0.0251
 3692SOL     OW11364   3.257   0.218   1.021  0.0993  0.1084 -0.1484
 3692SOL    HW111365   3.179   0.160   1.043  1.3542 -1.9972 -0.8883
 3692SOL    HW211366   3.301   0.184   0.937 -1.2948  4.4494 -2.9824
 3693SOL     OW11367   3.514   4.633   2.074 -0.1819 -0.4447  0.0419
 3693SOL    HW111368   3.418   4.624   2.047 -0.6898 -1.2233  1.9001
 3693SOL    HW211369   3.571   4.576   2.015 -1.1326 -1.5484  0.1618
 3694SOL     OW11370   3.388   3.759   0.354 -0.1524 -0.1181  0.2751
 3694SOL    HW111371   3.368   3.831   0.420  0.1711  0.0762  0.1638
 3694SOL    HW211372   3.335   3.677   0.377  0.5975 -0.3374  1.2873
 3695SOL     OW11373   1.539   5.305   1.271  0.0629  0.0361 -0.4743
 3695SOL    HW111374   1.610   5.278   1.205  0.0627 -1.0209 -0.0466
 3695SOL    HW211375   1.578   5.307   1.363 -0.2022  0.4909 -0.3679
 3696SOL     OW11376   2.962   3.789   0.576  0.0580 -0.4877  0.6097
 3696SOL    HW111377   2.912   3.734   0.643  0.0641  0.5249  1.4717
 3696SOL    HW211378   2.934   3.884   0.584  0.0814 -0.3356 -0.8308
 3697SOL     OW11379   3.704   4.305   1.683 -0.2979  0.1688 -0.0308
 3697SOL    HW111380   3.610   4.333   1.705 -0.0618  0.8368  0.1631
 3697SOL    HW211381   3.726   4.220   1.729  0.0786  1.3510  2.1100
 3698SOL     OW11382   2.205   5.665   1.459  0.3610  0.3661 -0.1430
 3698SOL    HW111383   2.214   5.747   1.403  0.0244  0.5348  0.0447
 3698SOL    HW211384   2.290   5.650   1.511  1.3740 -0.7899 -2.0022
 3699SOL     OW11385   2.308   5.314   0.148  0.1696  0.4943  0.3163
 3699SOL    HW111386   2.253   5.231   0.151 -0.2223  0.7204 -0.3950
 3699SOL    HW211387   2.396   5.298   0.193 -0.5038  0.1612  1.5446
 3700SOL     OW11388   3.392   4.546   0.222 -0.4444 -0.1836 -0.7593
 3700SOL    HW111389   3.480   4.541   0.174  0.2761  1.5790  0.2954
 3700SOL    HW211390   3.320   4.572   0.157  0.3305  1.1684 -1.1106
 3701SOL     OW11391   3.832   5.066   5.876 -0.4263  0.3855  0.0512
 3701SOL    HW111392   3.781   5.089   5.793  0.6903  0.1795 -0.7147
 3701SOL    HW211393   3.809   5.131   5.949 -1.8078  0.2551 -0.2497
 3702SOL     OW11394   2.905   5.135   1.740 -0.1471  0.1559 -0.0621
 3702SOL    HW111395   2.885   5.167   1.833  0.1233  1.9881 -0.6001
 3702SOL    HW211396   2.991   5.084   1.740  2.2115  3.8171  0.0746
 3703SOL     OW11397   1.810   4.937   1.942  0.7212 -0.1898  0.1252
 3703SOL    HW111398   1.843   4.849   1.975 -0.5038 -0.2998  1.1711
 3703SOL    HW211399   1.874   4.975   1.876  2.6564 -0.5779  1.6966
 3704SOL     OW11400   1.890   4.492   0.060 -0.3077 -0.1437 -0.4577
 3704SOL    HW111401   1.941   4.532   0.136  0.0052 -1.2940 -0.0412
 3704SOL    HW211402   1.954   4.452  -0.006 -0.4385  2.6371 -2.4464
 3705SOL     OW11403   2.980   0.312   1.359 -0.0727  0.4218  0.2309
 3705SOL    HW111404   2.950   0.328   1.265 -0.7112  0.4132  0.4263
 3705SOL    HW211405   3.080   0.308   1.362 -0.0632 -0.1662 -0.5377
 3706SOL     OW11406   3.437   4.416   1.302  0.1435 -0.4112 -0.3606
 3706SOL    HW111407   3.446   4.350   1.228  1.5368 -1.8820  1.0427
 3706SOL    HW211408   3.386   4.496   1.270 -0.4237 -1.5650 -2.4936
 3707SOL     OW11409   2.051   4.802   5.965 -0.2453  0.2915 -0.3507
 3707SOL    HW111410   2.099   4.725   5.924  0.6637  0.4196  0.4456
 3707SOL    HW211411   2.059   4.798   6.065 -0.7688  1.0435 -0.2635
 3708SOL     OW11412   3.254   4.182   0.960  0.2057 -0.1364 -0.3813
 3708SOL    HW111413   3.284   4.194   1.055 -0.3297 -1.0895 -0.0843
 3708SOL    HW211414   3.328   4.210   0.898  0.5559  0.5007  0.3045
 3709SOL     OW11415   2.287   5.310   5.878 -0.3604 -0.3898 -0.1706
 3709SOL    HW111416   2.214   5.241   5.879 -0.6427 -0.0938  0.6583
 3709SOL    HW211417   2.308   5.337   5.972  1.5614 -1.2209 -0.3068
 3710SOL     OW11418   1.980   0.330   0.451  0.0704 -0.1348 -0.1444
 3710SOL    HW111419   1.890   0.292   0.428  1.4828 -1.7006 -3.9276
 3710SOL    HW211420   2.051   0.274   0.409  2.8440  1.5730  1.9279
 3711SOL     OW11421   4.670   3.934   0.839  0.0288 -0.0588 -0.9774
 3711SOL    HW111422   4.695   3.840   0.819 -0.6621 -0.5939  0.5210
 3711SOL    HW211423   4.737   3.996   0.798  0.8467 -1.2202 -1.4404
 3712SOL     OW11424   3.860   2.816   0.891 -0.0508  0.4004  0.6112
 3712SOL    HW111425   3.855   2.797   0.989  1.5855 -0.9810  0.4906
 3712SOL    HW211426   3.949   2.785   0.856 -0.9124  0.0775 -1.4664
 3713SOL     OW11427   2.241   4.885   0.706  0.0587 -0.3296 -0.1301
 3713SOL    HW111428   2.328   4.840   0.690  0.2840 -0.4160  1.2189
 3713SOL    HW211429   2.187   4.832   0.771 -0.2865  0.5787  0.3466
 3714SOL     OW11430   1.645   5.206   0.756  0.0252  0.2404  0.3186
 3714SOL    HW111431   1.697   5.291   0.761  1.4415 -0.5853  0.4221
 3714SOL    HW211432   1.702   5.134   0.716 -0.8699 -0.8430  0.9054
 3715SOL     OW11433   3.815   4.303   4.992  0.3924  0.4834  0.3782
 3715SOL    HW111434   3.847   4.294   4.898 -0.5505  1.5213 -0.0657
 3715SOL    HW211435   3.746   4.234   5.010  1.3304 -0.4013  0.6653
 3716SOL     OW11436   2.661   3.820   1.211  0.1013  0.0716  0.4073
 3716SOL    HW111437   2.622   3.728   1.196 -0.1011  0.4839 -2.0146
 3716SOL    HW211438   2.601   3.872   1.271 -0.0533 -1.2085  1.3963
 3717SOL     OW11439   4.198   4.552   0.984  0.1784  0.2354 -0.4764
 3717SOL    HW111440   4.153   4.464   0.996 -0.2955  0.4646 -0.5395
 3717SOL    HW211441   4.159   4.618   1.048  0.3874  0.4537 -0.5727
 3718SOL     OW11442   1.521   4.624   0.272  0.0320 -0.2304  0.2690
 3718SOL    HW111443   1.539   4.582   0.361  1.1407  0.3383  0.3303
 3718SOL    HW211444   1.504   4.722   0.284 -1.4684 -0.4283  0.0116
 3719SOL     OW11445   3.693   5.519   0.871  0.0388 -0.4250 -0.1009
 3719SOL    HW111446   3.697   5.617   0.888  3.0226 -0.2020 -1.4244
 3719SOL    HW211447   3.632   5.500   0.794  0.1844  0.4991 -0.4496
 3720SOL     OW11448   1.524   4.863   2.065  0.6359  0.5381  0.3165
 3720SOL    HW111449   1.584   4.917   2.006  1.9925  2.0519  2.9158
 3720SOL    HW211450   1.540   4.888   2.160 -0.1664 -3.0210  1.5273
 3721SOL     OW11451   1.662   2.822   3.068 -0.3365  0.7336  0.0902
 3721SOL    HW111452   1.620   2.763   3.000  0.2767 -1.9519  1.8687
 3721SOL    HW211453   1.741   2.868   3.029 -2.3945  2.6614 -2.1220
 3722SOL     OW11454   2.029   3.445   2.402  0.2153  0.5094 -0.4056
 3722SOL    HW111455   2.118   3.404   2.423  0.2793  1.2436  0.9105
 3722SOL    HW211456   2.010   3.517   2.469 -1.2890  0.4943 -0.7897
 3723SOL     OW11457   1.075   5.800   2.761 -0.1660  0.3238  0.3169
 3723SOL    HW111458   1.013   5.725   2.780  0.4923  0.1697  2.0195
 3723SOL    HW211459   1.144   5.771   2.695  0.0224 -0.5521  0.8869
 3724SOL     OW11460   4.504   4.550   3.268 -0.2662 -0.0901  0.1626
 3724SOL    HW111461   4.486   4.507   3.180 -0.9856  0.7249 -0.1067
 3724SOL    HW211462   4.536   4.481   3.333 -1.8652 -1.1420 -0.1041
 3725SOL     OW11463   3.866   3.742   3.316 -0.1556 -0.0889  0.0880
 3725SOL    HW111464   3.805   3.815   3.346 -1.3517 -1.5492  1.3600
 3725SOL    HW211465   3.895   3.760   3.222 -0.5218  1.9290  0.3211
 3726SOL     OW11466   3.821   4.085   1.781 -0.0477  0.6102  0.2264
 3726SOL    HW111467   3.889   4.079   1.854  1.5674 -1.9009 -1.3496
 3726SOL    HW211468   3.769   4.000   1.777 -1.0859  1.2647 -0.6739
 3727SOL     OW11469   2.178   5.057   3.276  0.1766 -0.0326 -0.5195
 3727SOL    HW111470   2.250   5.075   3.342  0.3674  0.8353 -0.9379
 3727SOL    HW211471   2.199   5.105   3.190 -0.6228 -0.2061 -0.8246
 3728SOL     OW11472   2.436   4.270   3.818  0.1747  0.5157 -0.5822
 3728SOL    HW111473   2.364   4.338   3.827 -0.5368 -0.1683 -1.0049
 3728SOL    HW211474   2.505   4.303   3.753  0.6694  1.5086  0.4145
 3729SOL     OW11475   3.022   3.882   2.494  0.6559 -0.2533 -0.0053
 3729SOL    HW111476   2.972   3.833   2.423  0.1352 -1.3774  1.0823
 3729SOL    HW211477   3.118   3.851   2.494  0.3420 -1.2892  0.6397
 3730SOL     OW11478   3.521   4.841   3.871 -0.1356 -0.3042  0.0011
 3730SOL    HW111479   3.460   4.768   3.840 -1.7709  1.4274 -1.0953
 3730SOL    HW211480   3.615   4.821   3.842 -1.0257 -0.4682 -3.1924
 3731SOL     OW11481   2.736   5.065   2.410  0.5197  0.5035 -0.0890
 3731SOL    HW111482   2.683   5.046   2.493 -1.6883  1.8514 -1.0851
 3731SOL    HW211483   2.773   5.158   2.415 -1.1009  1.2686 -1.2500
 3732SOL     OW11484   3.885   5.782   2.807 -0.2176  0.0286  0.0056
 3732SOL    HW111485   3.805   5.756   2.862  1.2376 -1.0292  1.7241
 3732SOL    HW211486   3.949   5.833   2.864  1.1317 -0.6888 -0.8259
 3733SOL     OW11487   1.618   4.395   4.421  0.2793  0.1134 -0.1369
 3733SOL    HW111488   1.640   4.355   4.332 -0.3431 -1.4926  0.4018
 3733SOL    HW211489   1.595   4.322   4.486  0.5638  1.2641  1.3075
 3734SOL     OW11490   3.408   4.698   3.432 -0.1002 -0.4261 -0.1166
 3734SOL    HW111491   3.456   4.611   3.445  0.3227  0.0221  1.6609
 3734SOL    HW211492   3.350   4.715   3.511  0.4472  1.2873 -0.0404
 3735SOL     OW11493   2.885   5.659   2.128  0.1617  0.3576  0.4845
 3735SOL    HW111494   2.955   5.695   2.191  0.0845  0.6999  0.3768
 3735SOL    HW211495   2.930   5.608   2.055  0.2536 -0.0330  0.8060
 3736SOL     OW11496   2.394   5.307   3.650 -0.0693 -0.0509 -0.3798
 3736SOL    HW111497   2.386   5.220   3.699 -0.0444 -0.5458 -1.2375
 3736SOL    HW211498   2.479   5.352   3.676 -0.9311  0.6258  1.4683
 3737SOL     OW11499   1.376   4.834   1.327 -0.2304  0.6693 -0.3584
 3737SOL    HW111500   1.367   4.794   1.236 -0.1859  0.0592 -0.1049
 3737SOL    HW211501   1.349   4.930   1.325 -0.0734  0.6991 -1.0444
 3738SOL     OW11502   2.500   4.813   2.339  0.2459 -0.2979  0.0644
 3738SOL    HW111503   2.469   4.896   2.386 -1.0719 -1.6814  1.7915
 3738SOL    HW211504   2.458   4.809   2.248  0.9592  1.2843 -0.3633
 3739SOL     OW11505   1.928   5.510   2.789  0.0656  0.7032 -0.0775
 3739SOL    HW111506   1.994   5.580   2.816 -0.3243  0.3450  1.8999
 3739SOL    HW211507   1.850   5.512   2.851 -1.3413  0.4498 -1.7761
 3740SOL     OW11508   2.173   3.224   2.517 -0.2270 -0.4050 -0.0431
 3740SOL    HW111509   2.096   3.256   2.573 -0.1946 -0.2745 -0.0721
 3740SOL    HW211510   2.138   3.179   2.435 -0.2772  0.5298 -0.5527
 3741SOL     OW11511   3.054   4.158   2.807 -0.0373  0.4715  0.3309
 3741SOL    HW111512   3.000   4.124   2.884  0.0638  0.2848  0.3192
 3741SOL    HW211513   3.104   4.240   2.835 -0.6821  0.9146  0.2122
 3742SOL     OW11514   1.557   4.189   1.919 -0.1373  0.1781 -0.3639
 3742SOL    HW111515   1.609   4.191   2.004 -1.0269  1.1727  0.1902
 3742SOL    HW211516   1.596   4.121   1.857  1.1747  0.1853  0.4175
 3743SOL     OW11517   3.967   5.634   2.338 -0.4912 -0.1078 -0.1220
 3743SOL    HW111518   3.917   5.714   2.373 -0.5407  0.2053 -0.8956
 3743SOL    HW211519   3.902   5.561   2.317 -0.3215 -0.9858  2.1295
 3744SOL     OW11520   2.404   5.140   1.220  0.2597  0.2691 -0.5554
 3744SOL    HW111521   2.410   5.240   1.223  2.4745  0.1969 -0.6569
 3744SOL    HW211522   2.418   5.109   1.126  0.4728 -0.1679 -0.3803
 3745SOL     OW11523   3.320   4.737   2.996 -0.4138  0.2323  0.2228
 3745SOL    HW111524   3.259   4.728   2.917  2.0314  2.2852 -2.0812
 3745SOL    HW211525   3.281   4.686   3.073 -3.4827 -1.0008 -1.9033
 3746SOL     OW11526   4.885   5.075   1.788  0.5656 -0.6438 -0.7463
 3746SOL    HW111527   4.860   5.113   1.699  0.4161  0.0489 -0.4160
 3746SOL    HW211528   4.846   5.132   1.860  0.0756 -1.6093 -0.2306
 3747SOL     OW11529   2.634   3.309   4.777 -0.2518  0.0758  0.1063
 3747SOL    HW111530   2.680   3.350   4.856 -0.6676  0.8897 -0.0727
 3747SOL    HW211531   2.535   3.308   4.792 -0.3865  0.8432 -0.6858
 3748SOL     OW11532   1.755   4.922   2.938 -0.2300 -0.0086 -0.0319
 3748SOL    HW111533   1.842   4.878   2.913  0.0972  0.4732  0.2592
 3748SOL    HW211534   1.766   5.021   2.937  0.2289  0.0949  3.3778
 3749SOL     OW11535   3.406   4.161   1.235 -0.3612 -0.2433  0.1585
 3749SOL    HW111536   3.482   4.115   1.189 -0.1318  0.2428  0.0452
 3749SOL    HW211537   3.399   4.129   1.329  0.1794 -0.0603  0.2632
 3750SOL     OW11538   3.020   4.322   2.461 -0.0221 -0.0576  0.1204
 3750SOL    HW111539   3.110   4.292   2.429  0.8334 -0.0996  2.4186
 3750SOL    HW211540   2.977   4.248   2.512 -0.1557  0.8561  1.3764
 3751SOL     OW11541   3.212   4.035   3.291  0.5160  0.4578  0.5450
 3751SOL    HW111542   3.301   3.990   3.296 -0.1909 -0.9400  0.9341
 3751SOL    HW211543   3.198   4.073   3.200  2.1680  2.1351  0.9350
 3752SOL     OW11544   3.212   4.126   2.543  0.0890 -0.0688  0.0446
 3752SOL    HW111545   3.228   4.209   2.597 -1.4777  1.2862 -1.4318
 3752SOL    HW211546   3.149   4.066   2.593  0.9776 -0.2566  0.9821
 3753SOL     OW11547   2.332   5.378   1.637  0.1208  0.2390 -0.9127
 3753SOL    HW111548   2.315   5.380   1.735  0.3810  0.7651 -0.8759
 3753SOL    HW211549   2.385   5.459   1.610 -0.7182  0.5596 -1.6324
 3754SOL     OW11550   2.525   5.046   4.955 -0.6346 -0.3586  0.4806
 3754SOL    HW111551   2.595   5.000   5.010  0.7027  1.0934  0.0662
 3754SOL    HW211552   2.435   5.009   4.977  0.2008 -1.8993  1.4298
 3755SOL     OW11553   4.596   5.914   3.246 -0.5601 -0.2848 -0.1875
 3755SOL    HW111554   4.580   5.975   3.323  1.4265  0.7641 -0.5435
 3755SOL    HW211555   4.545   5.946   3.166 -0.2131  0.4046 -0.1340
 3756SOL     OW11556   3.094   4.428   2.874  0.2090  0.2184  0.2239
 3756SOL    HW111557   3.110   4.517   2.831 -1.0510  0.3463 -0.0440
 3756SOL    HW211558   2.995   4.416   2.888  0.2996 -1.4207 -0.3646
 3757SOL     OW11559   1.634   4.597   2.150  0.5746 -0.2243  0.0477
 3757SOL    HW111560   1.584   4.671   2.104  0.2479  0.4917  1.4949
 3757SOL    HW211561   1.570   4.536   2.196  0.9569  0.5627  1.7199
 3758SOL     OW11562   3.649   4.884   3.221 -0.1728  0.3768 -0.4052
 3758SOL    HW111563   3.614   4.894   3.128  0.0791 -0.1503 -0.5566
 3758SOL    HW211564   3.585   4.927   3.285 -0.7719 -0.0084 -0.7384
 3759SOL     OW11565   3.311   5.480   2.314 -0.3786  0.2073  0.2284
 3759SOL    HW111566   3.312   5.394   2.263  0.7321  0.0488  0.4930
 3759SOL    HW211567   3.394   5.487   2.370 -0.3617  1.5280  0.0810
 3760SOL     OW11568   3.032   4.569   3.712 -0.2322 -0.0746 -0.3049
 3760SOL    HW111569   2.975   4.645   3.743  1.0940  0.2487  1.5220
 3760SOL    HW211570   3.012   4.488   3.766  0.2014 -0.2774 -0.4437
 3761SOL     OW11571   3.852   5.582   3.170 -0.0277 -0.6755 -0.4645
 3761SOL    HW111572   3.831   5.506   3.108 -1.1244 -0.8118  0.0484
 3761SOL    HW211573   3.865   5.548   3.263  1.3149 -0.4340 -0.5366
 3762SOL     OW11574   2.328   4.758   4.570 -0.2602 -0.4745 -0.2702
 3762SOL    HW111575   2.400   4.825   4.586 -0.7864 -0.1105  0.6220
 3762SOL    HW211576   2.241   4.805   4.556 -1.1348 -0.9475  2.8154
 3763SOL     OW11577   4.116   3.113   3.032  0.4971  0.5603  0.3967
 3763SOL    HW111578   4.029   3.079   3.068 -1.3745  2.3586 -2.0475
 3763SOL    HW211579   4.132   3.205   3.067  1.2252  0.3912  0.5113
 3764SOL     OW11580   1.915   3.898   2.652 -0.4824  0.0506 -0.2307
 3764SOL    HW111581   1.821   3.898   2.621 -0.2476 -0.5960 -0.9699
 3764SOL    HW211582   1.974   3.937   2.582 -0.0867 -0.4070 -0.1606
 3765SOL     OW11583   3.069   5.128   3.444  0.6514  0.5947  0.3117
 3765SOL    HW111584   3.050   5.049   3.502  1.2862  1.1780  1.3312
 3765SOL    HW211585   2.985   5.178   3.427  0.6631  1.1821  1.8747
 3766SOL     OW11586   2.376   4.910   2.880 -0.0225  0.5515 -0.2103
 3766SOL    HW111587   2.385   4.817   2.915  2.3617  0.9051  0.3062
 3766SOL    HW211588   2.331   4.909   2.791  1.7572 -1.3615 -1.1794
 3767SOL     OW11589   3.334   4.783   1.031 -0.3686 -0.1658 -0.6474
 3767SOL    HW111590   3.257   4.840   1.004 -1.0988 -0.0270  1.5981
 3767SOL    HW211591   3.305   4.717   1.100  1.2157 -1.1050 -0.8159
 3768SOL     OW11592   3.540   4.432   3.795 -0.2503 -0.1495 -0.0869
 3768SOL    HW111593   3.630   4.463   3.828 -0.8388  1.6199  0.0021
 3768SOL    HW211594   3.502   4.366   3.860  1.5880 -2.1102 -0.8893
 3769SOL     OW11595   3.254   5.042   2.597  0.6492 -0.5541  0.5933
 3769SOL    HW111596   3.312   4.993   2.533  0.6871  0.6404 -0.3336
 3769SOL    HW211597   3.158   5.033   2.570  0.6994  0.3209  0.0695
 3770SOL     OW11598   2.168   4.510   1.146 -0.1790 -0.3000  0.5437
 3770SOL    HW111599   2.203   4.585   1.203 -1.6242  0.3875  0.5850
 3770SOL    HW211600   2.070   4.498   1.164 -0.5429 -0.4601 -1.3819
 3771SOL     OW11601   3.265   0.468   2.164  0.4478 -0.3218 -0.0693
 3771SOL    HW111602   3.244   0.540   2.230  2.0263  1.7586 -1.6816
 3771SOL    HW211603   3.243   0.379   2.203  1.9933  0.7101  3.5515
 3772SOL     OW11604   3.116   4.696   2.815 -0.9779  0.2921  0.1054
 3772SOL    HW111605   3.117   4.723   2.719 -1.1182 -1.5038 -0.4257
 3772SOL    HW211606   3.039   4.740   2.861 -1.2078  0.7686 -0.7165
 3773SOL     OW11607   3.065   5.320   2.147 -0.5281  0.4765 -0.0210
 3773SOL    HW111608   3.038   5.348   2.239 -1.6938  1.0392 -0.5244
 3773SOL    HW211609   3.150   5.266   2.152 -0.1926  1.1005  1.3005
 3774SOL     OW11610   2.903   5.901   3.323 -0.8339 -0.1817 -0.6438
 3774SOL    HW111611   2.856   5.947   3.398  0.8813  1.0193 -0.2421
 3774SOL    HW211612   3.000   5.924   3.326 -0.3312 -1.9389 -1.8974
 3775SOL     OW11613   2.979   3.908   3.428  0.0971  0.3078 -0.2445
 3775SOL    HW111614   3.055   3.962   3.391 -0.4136  0.6690 -0.7900
 3775SOL    HW211615   2.925   3.870   3.352  0.6508 -1.2763  0.1251
 3776SOL     OW11616   4.355   4.116   2.903 -0.4801 -0.2068 -0.1544
 3776SOL    HW111617   4.259   4.141   2.908 -0.5998 -0.8441  1.1773
 3776SOL    HW211618   4.364   4.017   2.897  0.0827 -0.1449 -0.3890
 3777SOL     OW11619   2.031   4.432   4.344  0.2561  0.0292  0.3829
 3777SOL    HW111620   1.968   4.452   4.269  1.6644  0.8035 -0.6552
 3777SOL    HW211621   2.072   4.342   4.329 -2.3686 -1.6518  2.3980
 3778SOL     OW11622   2.070   3.759   1.293  0.6021  0.5724  0.0958
 3778SOL    HW111623   2.109   3.672   1.262 -0.3817  0.8867 -2.1992
 3778SOL    HW211624   2.104   3.833   1.235 -2.0121  1.0694 -0.9262
 3779SOL     OW11625   2.827   3.946   3.656  0.1041 -0.3178 -0.1285
 3779SOL    HW111626   2.890   3.935   3.580  0.1810  1.9640 -0.4573
 3779SOL    HW211627   2.818   3.859   3.705  2.1124 -1.1425 -1.1259
 3780SOL     OW11628   4.314   5.117   1.685 -0.2142  0.1025  0.7385
 3780SOL    HW111629   4.272   5.132   1.775  1.7279  0.5164  1.6251
 3780SOL    HW211630   4.311   5.019   1.663 -1.8289  0.1506  0.6478
 3781SOL     OW11631   2.531   5.520   1.900 -0.1466  0.2649 -0.0793
 3781SOL    HW111632   2.437   5.485   1.897 -1.1226  2.6818 -2.7617
 3781SOL    HW211633   2.594   5.447   1.871 -1.5319 -0.6170 -1.0083
 3782SOL     OW11634   1.391   5.777   2.008  0.1149  0.5206 -0.6788
 3782SOL    HW111635   1.432   5.867   1.995 -1.0470  1.1500 -0.1259
 3782SOL    HW211636   1.296   5.787   2.037  0.4781 -0.8575  1.2002
 3783SOL     OW11637   2.709   5.537   2.335  0.2027 -0.0585  0.0754
 3783SOL    HW111638   2.677   5.602   2.403  2.1076 -0.2720  1.2622
 3783SOL    HW211639   2.752   5.586   2.260 -1.2391  0.1452 -0.6533
 3784SOL     OW11640   3.150   4.727   0.564  0.7168  0.1927  0.2194
 3784SOL    HW111641   3.089   4.651   0.585  1.6682 -0.6501  0.0263
 3784SOL    HW211642   3.100   4.813   0.568 -1.0035 -0.6224 -1.9460
 3785SOL     OW11643   3.378   3.423   4.128 -0.1048 -0.2988  1.0981
 3785SOL    HW111644   3.457   3.464   4.174 -0.0549 -1.1666  1.8142
 3785SOL    HW211645   3.410   3.355   4.062 -0.2185  0.0062  0.7323
 3786SOL     OW11646   1.745   4.447   2.626 -0.4519  0.1909 -0.2059
 3786SOL    HW111647   1.710   4.532   2.586 -0.5680  0.5418  0.6194
 3786SOL    HW211648   1.709   4.437   2.719  0.0293 -0.4679 -0.0859
 3787SOL     OW11649   3.217   4.147   3.047 -0.0785 -0.1761 -0.5487
 3787SOL    HW111650   3.243   4.243   3.061 -0.4939 -0.2048  0.5602
 3787SOL    HW211651   3.293   4.098   3.005  0.9021  0.2018  0.7106
 3788SOL     OW11652   2.799   5.711   3.708 -0.5171 -0.1998 -0.4252
 3788SOL    HW111653   2.891   5.703   3.746 -0.3898  1.0700 -0.4143
 3788SOL    HW211654   2.732   5.698   3.781 -0.2720  2.6312  0.4461
 3789SOL     OW11655   2.714   4.456   1.324 -0.1173  0.3313 -0.7829
 3789SOL    HW111656   2.644   4.488   1.261  0.6219  1.7518 -0.9297
 3789SOL    HW211657   2.747   4.367   1.295 -3.0466 -1.2169  0.2779
 3790SOL     OW11658   2.631   5.419   3.715 -0.0125  0.0419  0.1271
 3790SOL    HW111659   2.729   5.406   3.731  0.3013  0.7256 -1.2010
 3790SOL    HW211660   2.613   5.513   3.687 -1.0903 -0.0104  0.5940
 3791SOL     OW11661   2.430   3.576   2.323  0.4216  0.7187  0.3172
 3791SOL    HW111662   2.501   3.604   2.258 -0.1237 -0.1139 -0.6662
 3791SOL    HW211663   2.342   3.614   2.295  0.1633  0.2496  0.4864
 3792SOL     OW11664   2.194   4.182   2.273  0.0054  0.2993 -0.9048
 3792SOL    HW111665   2.114   4.171   2.332 -0.7027 -0.5754 -1.9797
 3792SOL    HW211666   2.267   4.228   2.323 -0.9674  0.5926  0.2803
 3793SOL     OW11667   3.106   5.270   3.826  0.6208 -0.7017 -0.2884
 3793SOL    HW111668   3.108   5.324   3.910 -1.8118 -1.6734  0.5030
 3793SOL    HW211669   3.173   5.196   3.833  0.1053 -1.0711  1.0373
 3794SOL     OW11670   2.255   3.530   2.746  0.3839  1.0409 -0.0607
 3794SOL    HW111671   2.333   3.531   2.684  0.9252  2.1350  0.6121
 3794SOL    HW211672   2.171   3.547   2.693  0.8954  2.5778 -0.4585
 3795SOL     OW11673   2.645   4.516   1.569 -0.6589 -0.9642 -0.7983
 3795SOL    HW111674   2.699   4.495   1.488  0.3750 -0.4306 -0.2816
 3795SOL    HW211675   2.581   4.591   1.549  0.2648 -0.1752 -0.8823
 3796SOL     OW11676   4.284   4.726   3.532  0.0789  0.4263 -0.0371
 3796SOL    HW111677   4.188   4.720   3.504  0.3712  0.6698 -1.1479
 3796SOL    HW211678   4.328   4.802   3.483  0.6118  0.9266  1.1643
 3797SOL     OW11679   2.634   5.577   2.853 -0.2566  0.3848 -0.4488
 3797SOL    HW111680   2.583   5.663   2.847 -0.2099  0.6098  1.7120
 3797SOL    HW211681   2.665   5.563   2.947  0.1744 -1.7716 -0.8636
 3798SOL     OW11682   2.155   4.629   2.751  0.1890  0.2546 -0.9447
 3798SOL    HW111683   2.142   4.726   2.728  0.1618  0.0945 -1.6160
 3798SOL    HW211684   2.085   4.574   2.707  0.3991 -0.1075 -0.8303
 3799SOL     OW11685   2.475   5.165   2.029 -0.3431  0.1956 -0.2238
 3799SOL    HW111686   2.553   5.137   1.972 -1.3647 -2.5047 -0.4348
 3799SOL    HW211687   2.509   5.203   2.115  1.1871  0.4142 -0.8831
 3800SOL     OW11688   1.514   3.613   0.419  0.1962 -0.0384  0.6374
 3800SOL    HW111689   1.450   3.578   0.488  0.4588 -2.1078 -0.1018
 3800SOL    HW211690   1.606   3.577   0.438  0.3878 -0.1526 -0.4630
 3801SOL     OW11691   3.424   3.781   3.336  0.4251 -0.2104 -0.1709
 3801SOL    HW111692   3.489   3.803   3.409  0.4546  1.4774 -0.6527
 3801SOL    HW211693   3.461   3.811   3.248 -1.1297  1.1595 -0.4173
 3802SOL     OW11694   1.899   2.921   2.963 -0.0679  0.3138  0.3290
 3802SOL    HW111695   1.946   2.834   2.955  0.3016  0.4948  0.5285
 3802SOL    HW211696   1.893   2.964   2.873  1.0916  0.7827  0.4653
 3803SOL     OW11697   1.132   3.905   2.670 -0.2006 -0.5676 -0.0822
 3803SOL    HW111698   1.170   3.997   2.665  2.3255 -1.5728 -0.8634
 3803SOL    HW211699   1.066   3.900   2.745  2.3355  0.9500  2.4159
 3804SOL     OW11700   2.631   4.598   2.434 -0.3720  0.7272  0.0468
 3804SOL    HW111701   2.694   4.561   2.365  2.6569  2.3853  1.7239
 3804SOL    HW211702   2.573   4.667   2.393  0.8155  1.1147 -1.0368
 3805SOL     OW11703   3.890   5.514   1.747 -0.0065 -0.0895 -0.0441
 3805SOL    HW111704   3.809   5.460   1.770 -1.3250  1.5115 -0.8148
 3805SOL    HW211705   3.941   5.467   1.675 -0.0240 -1.2832  0.6905
 3806SOL     OW11706   2.846   4.110   2.635  0.3192  0.3273 -0.1871
 3806SOL    HW111707   2.924   4.149   2.686  0.9834  0.2985 -1.1481
 3806SOL    HW211708   2.875   4.025   2.591 -0.2806  0.2762 -0.4844
 3807SOL     OW11709   3.804   4.474   2.819  0.2075  0.2900 -0.2631
 3807SOL    HW111710   3.714   4.431   2.816  0.7731 -0.9895  0.4872
 3807SOL    HW211711   3.836   4.479   2.914  0.9432  0.6964 -0.5219
 3808SOL     OW11712   2.219   4.902   1.178  0.4081  0.1015 -0.2260
 3808SOL    HW111713   2.279   4.982   1.174 -1.3676  1.4763 -0.8603
 3808SOL    HW211714   2.131   4.929   1.218 -0.4662 -1.3810 -1.0761
 3809SOL     OW11715   3.994   4.109   1.248  0.0333  0.0964 -0.0003
 3809SOL    HW111716   4.000   4.112   1.348  0.3773 -1.1655  0.0366
 3809SOL    HW211717   3.911   4.155   1.218 -0.4777 -0.1906  0.9292
 3810SOL     OW11718   3.147   3.792   1.630  0.2246 -0.6761 -0.3799
 3810SOL    HW111719   3.159   3.724   1.702 -1.1933 -1.4429 -0.8220
 3810SOL    HW211720   3.233   3.802   1.579  0.1219 -3.2577 -1.2180
 3811SOL     OW11721   2.857   3.648   1.961  0.5294 -0.3654 -0.2091
 3811SOL    HW111722   2.814   3.665   1.873 -1.1513  2.0326  0.9513
 3811SOL    HW211723   2.922   3.722   1.982  2.2600 -1.8310 -0.1548
 3812SOL     OW11724   3.064   4.949   2.252  0.6022 -1.0651 -0.4541
 3812SOL    HW111725   2.975   4.966   2.210  0.1759  0.6426  1.0072
 3812SOL    HW211726   3.055   4.950   2.351  2.4691  0.8305 -0.2243
 3813SOL     OW11727   1.995   5.616   3.730  0.2005 -0.8695  0.1205
 3813SOL    HW111728   1.966   5.676   3.655 -0.2361 -0.6699  0.4419
 3813SOL    HW211729   2.073   5.562   3.701  1.0962  0.4089  0.0755
 3814SOL     OW11730   3.723   5.777   1.981 -0.5630  0.0526 -0.2721
 3814SOL    HW111731   3.752   5.827   2.063  0.0948  0.6372 -0.8527
 3814SOL    HW211732   3.632   5.809   1.954 -0.0243  1.1840 -0.8118
 3815SOL     OW11733   3.659   0.642   3.234  0.2102 -0.1303  0.3565
 3815SOL    HW111734   3.614   0.560   3.269  0.3071 -0.8588 -1.1465
 3815SOL    HW211735   3.757   0.624   3.221  0.0149 -0.2577 -1.2124
 3816SOL     OW11736   2.719   4.232   3.642  0.3874 -0.2299  0.0765
 3816SOL    HW111737   2.750   4.149   3.687 -0.0460  0.1388  1.0822
 3816SOL    HW211738   2.780   4.308   3.666 -0.0021  0.0260  0.2604
 3817SOL     OW11739   3.188   3.556   3.461  0.4941 -0.5607  0.7357
 3817SOL    HW111740   3.259   3.621   3.434 -0.1477 -0.4886 -0.9318
 3817SOL    HW211741   3.131   3.595   3.532 -0.3846  1.0807 -0.7974
 3818SOL     OW11742   2.322   4.117   4.370  0.2629  0.0442  0.2414
 3818SOL    HW111743   2.227   4.148   4.360  0.4075  0.8785  1.2800
 3818SOL    HW211744   2.375   4.147   4.291 -0.3667 -0.5927 -0.4426
 3819SOL     OW11745   3.720   4.617   0.349 -0.1521 -0.2967 -0.1657
 3819SOL    HW111746   3.733   4.716   0.350  0.8912 -0.4206 -0.4690
 3819SOL    HW211747   3.671   4.590   0.266 -2.3013  0.1609  0.8975
 3820SOL     OW11748   2.428   5.220   0.968 -0.4859 -0.0406  0.0616
 3820SOL    HW111749   2.453   5.315   0.986 -0.7541  0.3927 -1.6774
 3820SOL    HW211750   2.499   5.177   0.912  0.1599 -1.2312  1.6848
 3821SOL     OW11751   3.098   4.357   4.192 -0.0377 -0.3081 -0.1019
 3821SOL    HW111752   3.149   4.276   4.163 -0.4628 -0.4012 -0.6123
 3821SOL    HW211753   3.051   4.339   4.278  0.6974 -0.2578  0.3143
 3822SOL     OW11754   2.076   4.845   4.266  0.2237  0.4996 -0.4129
 3822SOL    HW111755   1.986   4.884   4.249 -0.1861 -0.9889 -1.8947
 3822SOL    HW211756   2.077   4.800   4.355 -0.5645  0.4000 -0.4466
 3823SOL     OW11757   2.803   5.349   2.777 -0.2615  0.2931 -0.5269
 3823SOL    HW111758   2.713   5.327   2.816 -0.2889  0.2916 -0.5914
 3823SOL    HW211759   2.818   5.447   2.782  0.2698  0.1726  0.6553
 3824SOL     OW11760   4.386   5.811   1.970  0.6181 -0.6145 -0.0269
 3824SOL    HW111761   4.298   5.859   1.975 -0.2706 -2.1190 -0.5868
 3824SOL    HW211762   4.405   5.770   2.060  0.8129 -0.1913  0.1276
 3825SOL     OW11763   3.575   4.935   2.148 -0.0820 -0.0736 -0.3337
 3825SOL    HW111764   3.625   4.883   2.079  0.3490  0.0504 -0.1161
 3825SOL    HW211765   3.482   4.898   2.156 -0.2068  0.0372 -1.1181
 3826SOL     OW11766   4.352   1.456   3.498 -0.1026  0.6688 -0.5029
 3826SOL    HW111767   4.381   1.445   3.593 -0.5422  1.6365 -0.2394
 3826SOL    HW211768   4.402   1.392   3.440 -1.2531 -1.3133  0.6246
 3827SOL     OW11769   1.207   3.318   4.298 -0.2283  0.0191 -0.1273
 3827SOL    HW111770   1.216   3.243   4.362 -3.4435 -1.4165 -1.1007
 3827SOL    HW211771   1.225   3.285   4.205 -1.8250  0.3104 -0.5829
 3828SOL     OW11772   2.992   3.581   2.657 -0.0469 -0.1757 -0.2095
 3828SOL    HW111773   2.985   3.654   2.590 -1.1763 -0.0147  0.0763
 3828SOL    HW211774   3.078   3.590   2.707  0.2872  0.3519 -0.8630
 3829SOL     OW11775   2.654   4.125   2.453 -0.0831  0.3759 -0.0788
 3829SOL    HW111776   2.723   4.132   2.525  0.4158 -0.1298 -0.5008
 3829SOL    HW211777   2.589   4.201   2.461  1.0840  1.4167 -0.2698
 3830SOL     OW11778   2.791   3.962   3.054  0.2672  0.4445 -0.1410
 3830SOL    HW111779   2.821   4.053   3.080  0.0547  0.7544 -0.9370
 3830SOL    HW211780   2.861   3.895   3.078 -0.1902  0.5974  1.8102
 3831SOL     OW11781   1.570   3.045   1.404  0.1553  0.2085  0.3679
 3831SOL    HW111782   1.562   3.060   1.502  0.5103 -0.7642  0.5555
 3831SOL    HW211783   1.585   3.133   1.358  2.0257  0.4893  1.3861
 3832SOL     OW11784   3.901   5.271   1.577  0.1662 -0.4053 -0.0875
 3832SOL    HW111785   3.869   5.220   1.498  0.8268 -0.2730 -0.4494
 3832SOL    HW211786   4.001   5.279   1.574  0.0198  1.8291 -0.6427
 3833SOL     OW11787   2.798   4.984   4.243 -0.2538  0.3801 -0.4629
 3833SOL    HW111788   2.716   4.979   4.300 -0.0197  1.3384 -0.0385
 3833SOL    HW211789   2.776   4.951   4.151 -0.4493 -1.9477  0.3318
 3834SOL     OW11790   2.072   4.217   3.630  0.0785 -0.1436  0.3924
 3834SOL    HW111791   2.102   4.306   3.594 -2.6436  1.0669  0.8441
 3834SOL    HW211792   2.083   4.215   3.729 -0.0980 -0.2115  0.4111
 3835SOL     OW11793   2.614   3.756   3.026 -0.5456  0.6316  0.4416
 3835SOL    HW111794   2.664   3.672   3.003 -0.6929  0.3664  1.0513
 3835SOL    HW211795   2.679   3.831   3.037 -0.5687  1.1157 -2.1582
 3836SOL     OW11796   3.130   5.401   1.034  0.3135 -0.2505  0.1623
 3836SOL    HW111797   3.198   5.407   1.107  1.3877  0.2534 -0.8463
 3836SOL    HW211798   3.042   5.375   1.073  1.0456 -0.8062  1.5180
 3837SOL     OW11799   2.208   4.468   3.772  0.1134 -0.0091 -0.4846
 3837SOL    HW111800   2.157   4.554   3.772 -1.6435 -0.9454 -2.3257
 3837SOL    HW211801   2.219   4.436   3.678 -0.5107 -2.4373  0.1929
 3838SOL     OW11802   2.749   5.589   3.114  0.8406  0.5622 -0.3452
 3838SOL    HW111803   2.731   5.524   3.188 -0.2255 -1.0880 -1.9804
 3838SOL    HW211804   2.846   5.612   3.113  0.9228  0.4531  1.3869
 3839SOL     OW11805   1.815   3.053   4.068  0.2042  0.4911  0.2074
 3839SOL    HW111806   1.808   3.152   4.082 -0.2722  0.7631 -1.7304
 3839SOL    HW211807   1.885   3.034   4.000 -0.9949 -0.3570 -0.8339
 3840SOL     OW11808   3.585   3.816   3.544 -0.7374  0.1169 -0.1117
 3840SOL    HW111809   3.554   3.898   3.591  0.7629  1.4724 -1.3770
 3840SOL    HW211810   3.630   3.755   3.610 -1.7354  0.3602  0.8133
 3841SOL     OW11811   4.066   5.304   3.490  0.1301  0.4104 -0.0388
 3841SOL    HW111812   4.139   5.286   3.424  0.4446 -1.5779  0.7947
 3841SOL    HW211813   4.086   5.259   3.577 -0.4609  2.6617  1.3531
 3842SOL     OW11814   3.163   4.995   4.079 -0.0469  0.1960 -0.2428
 3842SOL    HW111815   3.210   5.052   4.147 -0.0309 -1.2781  1.0266
 3842SOL    HW211816   3.100   4.932   4.125  0.1424 -1.0147 -1.5576
 3843SOL     OW11817   2.537   4.421   3.548 -0.2165 -0.5237 -0.5868
 3843SOL    HW111818   2.592   4.339   3.528  0.8895  0.2368 -0.7812
 3843SOL    HW211819   2.447   4.411   3.506  1.3010  0.1022 -4.4101
 3844SOL     OW11820   1.832   4.199   2.866  0.0473  0.4060 -0.1598
 3844SOL    HW111821   1.815   4.284   2.915 -0.6506  0.7404 -0.9485
 3844SOL    HW211822   1.811   4.122   2.926 -2.0123  0.8059 -0.2941
 3845SOL     OW11823   2.697   4.903   3.936  0.3811  0.2006  0.1143
 3845SOL    HW111824   2.650   4.840   3.999 -0.5145  0.5251 -0.2226
 3845SOL    HW211825   2.795   4.882   3.936  0.3879  0.1143  1.5260
 3846SOL     OW11826   1.984   4.708   2.993  0.2710  0.5993  0.6365
 3846SOL    HW111827   2.045   4.673   2.922  2.1879  0.6334  2.2059
 3846SOL    HW211828   2.013   4.800   3.019 -0.7287  0.7849  1.1387
 3847SOL     OW11829   1.778   3.852   1.583  0.6327 -0.2633  0.2053
 3847SOL    HW111830   1.872   3.818   1.586  0.1830 -1.9590 -2.1538
 3847SOL    HW211831   1.764   3.902   1.498 -0.5624  0.1408  0.6304
 3848SOL     OW11832   3.332   3.539   3.066  0.0093  0.1676 -0.6648
 3848SOL    HW111833   3.308   3.477   3.139  0.1102  1.5735  0.6116
 3848SOL    HW211834   3.425   3.573   3.080 -0.8605  2.4641  0.0987
 3849SOL     OW11835   3.419   4.179   3.905 -0.1024  0.3658 -0.0316
 3849SOL    HW111836   3.329   4.142   3.928 -1.0054  1.9626 -0.8854
 3849SOL    HW211837   3.468   4.202   3.989 -1.1045  0.9050  0.4141
 3850SOL     OW11838   3.122   4.069   2.282 -0.1306 -0.2467 -0.1227
 3850SOL    HW111839   3.023   4.075   2.270  0.1322  1.6969 -1.9113
 3850SOL    HW211840   3.143   4.033   2.373 -2.4587  0.1265  0.6240
 3851SOL     OW11841   2.673   5.281   1.849 -0.6024 -0.0945  0.4530
 3851SOL    HW111842   2.755   5.275   1.906 -0.9494 -0.0734  0.9610
 3851SOL    HW211843   2.688   5.231   1.764  0.8254  1.8848 -0.5617
 3852SOL     OW11844   3.503   4.929   3.014 -0.0096  0.1079  0.3289
 3852SOL    HW111845   3.530   4.956   2.921  0.1387  1.4039  0.7326
 3852SOL    HW211846   3.431   4.861   3.008 -0.5201  0.7074 -0.7612
 3853SOL     OW11847   3.580   4.030   1.483  0.0682  0.2953  0.4351
 3853SOL    HW111848   3.611   3.967   1.412  1.7986  1.8887 -0.3272
 3853SOL    HW211849   3.601   3.992   1.573  1.1880 -0.1881 -0.0084
 3854SOL     OW11850   2.664   3.774   4.102  0.1750  0.2327 -0.4396
 3854SOL    HW111851   2.672   3.872   4.122  0.4209  0.2077 -0.4188
 3854SOL    HW211852   2.609   3.762   4.020  0.4444  0.4044 -0.6478
 3855SOL     OW11853   2.624   5.291   3.964 -0.4390 -0.1510  0.1950
 3855SOL    HW111854   2.624   5.329   3.871 -1.5427 -0.2555  0.1375
 3855SOL    HW211855   2.700   5.330   4.016  0.0894  0.0365 -0.7014
 3856SOL     OW11856   2.734   4.579   3.474 -0.1268  0.0081 -0.0798
 3856SOL    HW111857   2.672   4.513   3.516 -1.2773  0.0953 -1.5222
 3856SOL    HW211858   2.805   4.531   3.423  0.2184 -0.0995  0.4989
 3857SOL     OW11859   3.307   4.369   2.683 -0.2670  0.2498 -0.4163
 3857SOL    HW111860   3.217   4.391   2.718 -0.0005  0.3318  0.2194
 3857SOL    HW211861   3.376   4.423   2.731  0.1894 -0.3775 -0.3547
 3858SOL     OW11862   3.803   4.491   3.879  0.1170 -0.3297 -0.1226
 3858SOL    HW111863   3.808   4.424   3.953  0.6702  0.0917  0.2333
 3858SOL    HW211864   3.850   4.455   3.798  1.7566  0.2121  0.5445
 3859SOL     OW11865   1.552   5.162   4.175  0.3351 -0.0475 -0.4955
 3859SOL    HW111866   1.635   5.206   4.143  0.8166 -0.2929  0.3703
 3859SOL    HW211867   1.477   5.180   4.111  0.7296  1.2641 -0.6210
 3860SOL     OW11868   2.400   3.314   3.950 -0.2184  0.0372  0.6698
 3860SOL    HW111869   2.373   3.334   3.856 -1.8827  0.0050  1.1079
 3860SOL    HW211870   2.473   3.245   3.950 -1.1230 -0.9624 -0.5692
 3861SOL     OW11871   3.286   5.481   3.730 -0.2768 -0.6219 -0.1473
 3861SOL    HW111872   3.251   5.493   3.637 -2.3748 -1.6303  0.4560
 3861SOL    HW211873   3.262   5.390   3.763 -0.6098  0.1247  1.8048
 3862SOL     OW11874   2.294   4.669   1.676  0.1018  0.0461  0.0878
 3862SOL    HW111875   2.367   4.706   1.620  0.4800  0.4393  0.8202
 3862SOL    HW211876   2.210   4.664   1.622  0.6939 -0.5377 -0.7921
 3863SOL     OW11877   1.822   5.152   3.346  0.5342  0.2309  0.0401
 3863SOL    HW111878   1.883   5.144   3.424  0.3763 -1.4107  0.0258
 3863SOL    HW211879   1.733   5.113   3.368  0.4478 -0.1430 -0.9180
 3864SOL     OW11880   2.816   4.967   2.146 -0.6032  0.1134  0.0136
 3864SOL    HW111881   2.774   5.010   2.226 -0.7722 -0.3962  0.2067
 3864SOL    HW211882   2.810   4.867   2.155  0.5585  0.0334 -0.0143
 3865SOL     OW11883   1.606   4.224   1.306 -0.0261 -0.2331 -0.5354
 3865SOL    HW111884   1.637   4.176   1.224 -1.1117 -0.0820 -1.0504
 3865SOL    HW211885   1.584   4.318   1.283  0.5787  0.0876  0.1452
 3866SOL     OW11886   3.366   5.851   2.618 -0.4217 -0.6814  0.2167
 3866SOL    HW111887   3.375   5.812   2.709  2.5407  0.3982  0.4922
 3866SOL    HW211888   3.425   5.802   2.554 -1.3920 -0.5315 -0.8407
 3867SOL     OW11889   3.283   4.411   3.082 -0.1863  0.5410  0.2755
 3867SOL    HW111890   3.219   4.405   3.006 -2.3800 -1.2025  2.1034
 3867SOL    HW211891   3.259   4.490   3.140  1.9748  2.3599 -1.1276
 3868SOL     OW11892   2.626   4.606   2.769 -0.3476 -0.0570  0.2207
 3868SOL    HW111893   2.598   4.578   2.677 -0.2562 -0.6678  0.3797
 3868SOL    HW211894   2.551   4.594   2.833  0.5969 -2.9527  0.9141
 3869SOL     OW11895   2.322   4.486   4.055  0.2239  0.1208  0.1285
 3869SOL    HW111896   2.400   4.465   4.114 -0.3439 -0.2827  0.7641
 3869SOL    HW211897   2.265   4.404   4.045  0.8953 -0.1373 -1.9289
 3870SOL     OW11898   4.365   0.371   2.711 -0.3577  0.3074  0.4012
 3870SOL    HW111899   4.464   0.380   2.724 -0.3712  2.4936 -0.5531
 3870SOL    HW211900   4.347   0.311   2.632  0.1845 -0.0579  0.5502
 3871SOL     OW11901   1.590   5.030   3.322  0.1350  1.0032 -0.5165
 3871SOL    HW111902   1.564   5.082   3.241  0.5023 -0.4964 -1.6510
 3871SOL    HW211903   1.508   4.994   3.367 -0.0145  0.6474 -1.0641
 3872SOL     OW11904   2.873   5.201   2.003  0.3871  0.1944 -0.1597
 3872SOL    HW111905   2.860   5.106   2.032  0.5366  0.0488 -0.5744
 3872SOL    HW211906   2.934   5.247   2.068  0.5403 -0.0701 -0.1153
 3873SOL     OW11907   2.535   4.867   3.740  0.4285 -0.8268  0.5987
 3873SOL    HW111908   2.598   4.886   3.816  2.5082  0.1883 -1.2595
 3873SOL    HW211909   2.507   4.771   3.743  2.0239 -1.3063  1.5501
 3874SOL     OW11910   2.431   5.062   1.670  0.2837 -0.1932  0.0470
 3874SOL    HW111911   2.405   5.159   1.664  1.2750 -0.0031 -1.8386
 3874SOL    HW211912   2.369   5.016   1.734 -0.8614  1.4572  0.2203
 3875SOL     OW11913   3.956   0.290   2.047  0.7929  0.2113 -0.0448
 3875SOL    HW111914   3.888   0.318   2.115  0.5159 -0.8634  0.1487
 3875SOL    HW211915   3.921   0.213   1.994  1.4775  0.2708 -0.6021
 3876SOL     OW11916   1.999   4.095   2.449  0.6213 -0.2578 -0.1003
 3876SOL    HW111917   2.033   4.141   2.530 -1.5653  2.5551 -0.6277
 3876SOL    HW211918   1.904   4.121   2.432  0.2152 -2.6339 -2.2582
 3877SOL     OW11919   5.046   5.508   1.300  0.6010  0.0724 -0.3506
 3877SOL    HW111920   5.016   5.580   1.238 -1.7526  0.5373  1.1856
 3877SOL    HW211921   4.975   5.491   1.368  2.1831 -1.8989  0.9341
 3878SOL     OW11922   3.491   4.969   3.446  0.1397 -0.7694 -0.1540
 3878SOL    HW111923   3.465   4.872   3.445  0.8148 -0.9960  1.2652
 3878SOL    HW211924   3.563   4.983   3.514  0.7659  0.5666 -1.0493
 3879SOL     OW11925   1.926   3.552   2.920 -0.3582  0.3569  0.0796
 3879SOL    HW111926   1.928   3.466   2.971  1.6882  0.5379  0.4219
 3879SOL    HW211927   2.010   3.604   2.940  0.4665  0.5552 -3.2771
 3880SOL     OW11928   3.598   5.926   2.263 -0.4314  0.0269 -0.2853
 3880SOL    HW111929   3.503   5.958   2.263 -0.3678  0.2210  0.4804
 3880SOL    HW211930   3.615   5.870   2.344  0.4792  1.1488  0.3362
 3881SOL     OW11931   2.741   4.083   4.432  0.3335 -0.0610 -0.2315
 3881SOL    HW111932   2.700   4.153   4.491  0.0714  0.0181 -0.5092
 3881SOL    HW211933   2.757   4.000   4.486  1.6550  0.5633  0.3809
 3882SOL     OW11934   3.734   4.843   2.564 -0.4020 -0.2606 -0.6217
 3882SOL    HW111935   3.809   4.791   2.605  0.2877  0.8207 -0.5002
 3882SOL    HW211936   3.713   4.805   2.473  0.3954 -0.4668 -0.7261
 3883SOL     OW11937   3.600   5.090   2.387  0.1882 -0.3448 -0.0099
 3883SOL    HW111938   3.625   5.065   2.293  1.6185  0.7376  0.0455
 3883SOL    HW211939   3.683   5.112   2.439 -0.6445 -0.1398  1.2804
 3884SOL     OW11940   2.782   3.585   2.906  0.1767  0.1773  0.5788
 3884SOL    HW111941   2.784   3.634   2.820  0.1424 -0.2113  0.3522
 3884SOL    HW211942   2.872   3.589   2.950 -0.0864  1.2726  1.0438
 3885SOL     OW11943   2.233   5.200   1.445  0.5061 -0.4146 -0.0750
 3885SOL    HW111944   2.271   5.275   1.499  2.6346 -0.9010 -0.8057
 3885SOL    HW211945   2.295   5.179   1.369 -0.1939 -2.7111 -0.0725
 3886SOL     OW11946   3.209   3.796   3.022  0.4381 -0.1456  0.8199
 3886SOL    HW111947   3.259   3.714   3.049 -0.0338 -1.1126 -1.0649
 3886SOL    HW211948   3.273   3.863   2.982  0.9046  0.6846  2.8236
 3887SOL     OW11949   3.379   5.075   1.955 -0.2280 -0.9986  0.1252
 3887SOL    HW111950   3.359   4.977   1.948 -0.8547 -0.7633 -1.8296
 3887SOL    HW211951   3.423   5.106   1.871  1.0549  0.1840  1.1933
 3888SOL     OW11952   2.757   4.846   3.514 -0.2937  0.1273  0.4438
 3888SOL    HW111953   2.678   4.868   3.572 -2.3375 -0.4299 -1.9448
 3888SOL    HW211954   2.762   4.746   3.502  0.5209  0.1878  0.2209
 3889SOL     OW11955   3.747   3.851   3.875  0.4259  0.1118  0.4504
 3889SOL    HW111956   3.773   3.773   3.819 -0.7097 -0.5311  0.7841
 3889SOL    HW211957   3.647   3.858   3.878  0.4952  0.8954  1.3565
 3890SOL     OW11958   3.394   3.559   2.080 -0.9118  0.6421  0.0685
 3890SOL    HW111959   3.386   3.465   2.048  0.3010  0.8487 -0.9571
 3890SOL    HW211960   3.447   3.561   2.165  1.3586  0.5430 -1.2456
 3891SOL     OW11961   2.534   3.875   3.268 -0.9674  0.1368  0.1108
 3891SOL    HW111962   2.567   3.866   3.174 -0.3313  0.6392  0.2758
 3891SOL    HW211963   2.572   3.802   3.324  2.5953  2.4156  1.0166
 3892SOL     OW11964   3.816   4.438   0.821  0.0396  0.1659 -0.1433
 3892SOL    HW111965   3.742   4.399   0.876 -1.2619  1.7024 -0.7374
 3892SOL    HW211966   3.792   4.530   0.793  1.5813  0.1777 -1.5837
 3893SOL     OW11967   3.471   4.564   0.931 -0.0979  0.3680 -0.1664
 3893SOL    HW111968   3.459   4.645   0.987 -0.8662 -1.4637  2.5415
 3893SOL    HW211969   3.389   4.548   0.876 -0.1732  1.0991 -0.2642
 3894SOL     OW11970   3.229   4.631   3.229  0.2518 -0.7134 -0.0478
 3894SOL    HW111971   3.150   4.691   3.225 -0.0278 -1.1008 -3.3521
 3894SOL    HW211972   3.292   4.663   3.300 -0.6428  2.4586 -0.5258
 3895SOL     OW11973   3.342   0.083   1.860 -0.0403  0.0005  0.4997
 3895SOL    HW111974   3.390   0.162   1.898 -1.5940  1.2535 -0.0202
 3895SOL    HW211975   3.277   0.048   1.928  0.7696 -0.9736  0.7937
 3896SOL     OW11976   2.472   4.604   3.754 -0.7573  0.2238 -0.2767
 3896SOL    HW111977   2.451   4.538   3.681 -0.2683  2.5311 -2.6425
 3896SOL    HW211978   2.403   4.596   3.826 -2.2845 -0.9962 -1.7805
 3897SOL     OW11979   2.958   4.368   3.565  0.0665  0.3117 -0.2127
 3897SOL    HW111980   2.967   4.465   3.587  1.2868  0.0347  0.6580
 3897SOL    HW211981   3.049   4.330   3.545 -0.4716 -0.5122 -1.1792
 3898SOL     OW11982   1.647   4.516   3.710 -0.2113  0.1894  0.2612
 3898SOL    HW111983   1.619   4.612   3.715  0.7857  0.5102 -0.0196
 3898SOL    HW211984   1.629   4.481   3.618  0.0860  0.3234  0.1513
 3899SOL     OW11985   2.642   4.141   3.367  0.2742 -0.9308 -0.8284
 3899SOL    HW111986   2.673   4.128   3.461  0.9366 -1.1061 -1.0616
 3899SOL    HW211987   2.627   4.052   3.324  0.4579 -0.8629 -1.0376
 3900SOL     OW11988   2.326   4.047   3.376  0.0757 -0.1649  0.1400
 3900SOL    HW111989   2.385   3.978   3.334 -0.2852  0.0047 -0.6823
 3900SOL    HW211990   2.349   4.057   3.473  1.1229 -0.3698 -0.0761
 3901SOL     OW11991   2.950   3.782   3.167 -0.0167  0.0883  0.4393
 3901SOL    HW111992   3.031   3.780   3.108 -0.2066  1.7910  0.0877
 3901SOL    HW211993   2.931   3.689   3.199  0.7493 -0.7056 -1.2707
 3902SOL     OW11994   2.827   4.326   3.307  0.5011  0.0066 -0.6756
 3902SOL    HW111995   2.752   4.259   3.306  1.1282 -0.7056 -0.7826
 3902SOL    HW211996   2.880   4.315   3.390  0.2137  0.8321 -0.3762
 3903SOL     OW11997   3.260   4.858   3.606 -0.2494  0.0640 -0.2478
 3903SOL    HW111998   3.270   4.786   3.675 -1.4409 -0.4852 -0.6139
 3903SOL    HW211999   3.285   4.946   3.645  0.1339 -0.3878  0.5502
 3904SOL     OW12000   3.392   4.832   1.762  0.1795  0.1469  0.2177
 3904SOL    HW112001   3.475   4.885   1.748  0.4842 -0.6769 -1.2473
 3904SOL    HW212002   3.364   4.789   1.676 -1.5513  0.0927  0.7564
 3905SOL     OW12003   2.396   5.790   2.577 -0.0432 -0.1971  0.5662
 3905SOL    HW112004   2.384   5.887   2.554 -1.0246 -0.2042  0.9623
 3905SOL    HW212005   2.317   5.738   2.543  2.1228 -1.5071 -2.8963
 3906SOL     OW12006   2.432   4.323   3.248  0.2525 -0.7003  0.5689
 3906SOL    HW112007   2.479   4.253   3.303  0.3613 -0.2694  1.0318
 3906SOL    HW212008   2.336   4.297   3.236 -0.1774 -0.0501  2.2990
 3907SOL     OW12009   3.170   4.207   1.806 -0.4226 -0.6272  0.7921
 3907SOL    HW112010   3.081   4.170   1.778 -0.1920 -1.2274  0.8421
 3907SOL    HW212011   3.215   4.247   1.726 -0.6153 -0.5734  0.7077
 3908SOL     OW12012   4.181   5.555   2.996  0.0696 -0.0688 -0.2770
 3908SOL    HW112013   4.275   5.585   2.982  0.2111 -0.1143  0.5409
 3908SOL    HW212014   4.141   5.602   3.075 -0.3018 -0.6849 -0.0816
 3909SOL     OW12015   1.439   5.461   3.192  0.1785 -0.3219  0.0106
 3909SOL    HW112016   1.428   5.536   3.258 -0.1276  0.0108 -0.4164
 3909SOL    HW212017   1.434   5.497   3.099  0.3816 -0.8254 -0.1981
 3910SOL     OW12018   2.858   4.337   1.666  0.4360 -0.0489  0.1939
 3910SOL    HW112019   2.794   4.407   1.635  1.1218  0.4882 -0.0287
 3910SOL    HW212020   2.875   4.347   1.764  1.2114  0.6545 -0.0074
 3911SOL     OW12021   1.547   4.746   3.185 -0.2670 -0.5288  0.1783
 3911SOL    HW112022   1.634   4.774   3.226 -0.5533  0.4110  0.1618
 3911SOL    HW212023   1.537   4.788   3.095 -1.5358  0.8926  0.9268
 3912SOL     OW12024   3.007   3.897   2.091 -0.1010  0.3279  0.0732
 3912SOL    HW112025   2.943   3.967   2.060 -1.0753 -0.7552 -0.4405
 3912SOL    HW212026   3.058   3.931   2.170 -1.6089  1.0556  0.7707
 3913SOL     OW12027   1.883   4.685   2.055 -0.0653  0.3151 -0.1158
 3913SOL    HW112028   1.946   4.711   2.128  0.9027 -2.5090  0.1458
 3913SOL    HW212029   1.805   4.636   2.094  1.2349 -2.6403 -0.9732
 3914SOL     OW12030   4.626   4.207   3.146 -0.6453  0.0220 -0.1320
 3914SOL    HW112031   4.672   4.171   3.065  0.1516 -0.0376  0.3290
 3914SOL    HW212032   4.569   4.284   3.121 -1.2368 -0.6504 -0.9128
 3915SOL     OW12033   1.942   3.178   4.408 -0.8574  0.0113  0.2070
 3915SOL    HW112034   1.959   3.269   4.371 -0.7875  0.7803  2.0328
 3915SOL    HW212035   1.889   3.124   4.342  0.4443  0.8105 -1.5554
 3916SOL     OW12036   1.664   0.136   3.489  0.1129  0.3630  0.7167
 3916SOL    HW112037   1.720   0.203   3.442 -0.7181  0.5931  0.0139
 3916SOL    HW212038   1.707   0.109   3.575  0.3714  1.9187  1.0946
 3917SOL     OW12039   0.755   5.416   3.474 -0.5010 -0.7481 -0.0504
 3917SOL    HW112040   0.693   5.340   3.495 -0.0886 -1.2457 -0.5965
 3917SOL    HW212041   0.711   5.502   3.499 -0.7559 -1.1869  1.1186
 3918SOL     OW12042   3.385   4.672   2.581 -0.5824 -0.3070 -0.2486
 3918SOL    HW112043   3.287   4.659   2.599 -0.5893 -0.9742 -0.7322
 3918SOL    HW212044   3.397   4.742   2.511 -0.8126 -1.4089 -1.4292
 3919SOL     OW12045   2.472   4.709   1.498 -0.3758  0.0003 -0.1614
 3919SOL    HW112046   2.516   4.797   1.480  1.5671 -1.1509 -1.3622
 3919SOL    HW212047   2.406   4.689   1.426  1.1078 -0.6827 -1.3741
 3920SOL     OW12048   2.007   5.930   3.347 -0.4824  0.4438  0.4181
 3920SOL    HW112049   1.938   5.994   3.314 -2.3437 -1.5820  0.1290
 3920SOL    HW212050   1.972   5.881   3.427 -1.2733 -3.4872 -2.0323
 3921SOL     OW12051   3.294   3.743   2.524 -0.2308 -0.4042 -0.1672
 3921SOL    HW112052   3.287   3.671   2.455 -0.7387 -1.8088  1.2904
 3921SOL    HW212053   3.270   3.706   2.614  0.4907  1.3439  0.8008
 3922SOL     OW12054   2.393   5.322   2.527  0.4185 -0.5829 -0.2056
 3922SOL    HW112055   2.333   5.402   2.517 -1.1317 -1.4383  1.7683
 3922SOL    HW212056   2.439   5.325   2.615 -1.3225 -2.8863  0.8714
 3923SOL     OW12057   3.241   3.612   2.758  0.5940  0.1121  0.0277
 3923SOL    HW112058   3.297   3.529   2.756  2.0205  1.0376 -0.1530
 3923SOL    HW212059   3.224   3.639   2.853 -1.1914 -1.1936  0.1317
 3924SOL     OW12060   0.476   4.820   2.182 -0.4257 -0.2244 -0.2308
 3924SOL    HW112061   0.463   4.759   2.104  1.7850 -0.6264 -0.3653
 3924SOL    HW212062   0.513   4.769   2.259  0.6071  0.7498 -0.0493
 3925SOL     OW12063   4.374   5.468   2.271 -0.9441  0.2547 -0.2613
 3925SOL    HW112064   4.302   5.437   2.209 -1.3054 -0.1595  0.3472
 3925SOL    HW212065   4.335   5.482   2.362  0.0610 -1.5964  0.5018
 3926SOL     OW12066   0.210   5.512   4.340  0.1719  0.1506 -0.0755
 3926SOL    HW112067   0.180   5.417   4.346  0.5329  0.0924  0.9198
 3926SOL    HW212068   0.214   5.552   4.432 -0.4105  1.2651 -0.5104
 3927SOL     OW12069   1.393   4.702   4.592  0.1922 -0.5662  0.2400
 3927SOL    HW112070   1.331   4.764   4.544 -1.1210 -1.2839  0.9416
 3927SOL    HW212071   1.449   4.753   4.657  0.9126  0.1973 -0.9272
 3928SOL     OW12072   0.190   3.587   2.729  0.0214  0.0865 -0.7470
 3928SOL    HW112073   0.210   3.543   2.817  1.9302 -0.5714 -1.4672
 3928SOL    HW212074   0.201   3.520   2.655 -2.6986  0.3005 -1.4754
 3929SOL     OW12075   2.080   4.345   5.858  0.2563  0.3356 -0.8749
 3929SOL    HW112076   2.163   4.298   5.888  0.5878  2.1506  1.2953
 3929SOL    HW212077   2.006   4.278   5.850  1.4946 -1.0561 -1.1675
 3930SOL     OW12078   5.988   5.129   5.065 -0.1267  0.1583  0.0460
 3930SOL    HW112079   5.974   5.040   5.107  0.0599  0.3575  0.5375
 3930SOL    HW212080   5.899   5.175   5.055 -0.1956  0.0203  0.0144
 3931SOL     OW12081   2.731   4.599   3.787 -0.3280 -0.2924  0.1818
 3931SOL    HW112082   2.774   4.608   3.698  1.2824 -2.6903  0.6150
 3931SOL    HW212083   2.631   4.602   3.777 -0.2065 -1.4088 -1.8307
 3932SOL     OW12084   3.400   4.867   4.364  0.6156  0.2621  0.0694
 3932SOL    HW112085   3.335   4.818   4.421  1.4902  0.7229  1.5100
 3932SOL    HW212086   3.436   4.805   4.294 -0.8233 -0.1787 -0.3028
 3933SOL     OW12087   2.630   4.352   0.178 -0.7929 -0.0079 -0.2106
 3933SOL    HW112088   2.728   4.336   0.183 -0.5243  1.7609  1.5938
 3933SOL    HW212089   2.589   4.292   0.109  0.8517 -3.8373  1.8543
 3934SOL     OW12090   2.703   5.256   4.939  0.5102  0.2027 -0.3810
 3934SOL    HW112091   2.632   5.313   4.980  0.1177  0.7192 -1.7292
 3934SOL    HW212092   2.661   5.173   4.900  0.6256  0.5126 -1.1915
 3935SOL     OW12093   3.184   0.272   5.112  0.0854  0.3939 -0.3803
 3935SOL    HW112094   3.089   0.254   5.086  0.2913 -1.4100 -0.0614
 3935SOL    HW212095   3.192   0.269   5.212  0.8094 -1.6118 -0.4582
 3936SOL     OW12096   3.411   5.303   5.664  0.5761  0.2104 -0.0111
 3936SOL    HW112097   3.403   5.208   5.692  1.0483  0.1896  0.0513
 3936SOL    HW212098   3.485   5.347   5.714  0.8004  0.4297 -0.5309
 3937SOL     OW12099   1.834   4.709   4.906 -0.1875  1.1785 -0.0949
 3937SOL    HW112100   1.901   4.741   4.972 -0.3109  1.2379  0.0018
 3937SOL    HW212101   1.858   4.617   4.876 -0.8236  0.6444  0.9791
 3938SOL     OW12102   4.709   4.572   5.762 -0.1309 -0.0352  0.1937
 3938SOL    HW112103   4.756   4.525   5.686  1.3231  1.1991  0.2788
 3938SOL    HW212104   4.766   4.567   5.844 -0.6437  0.5818  0.5950
 3939SOL     OW12105   2.182   3.358   5.045  0.0228 -0.0599 -0.3475
 3939SOL    HW112106   2.115   3.394   4.979 -0.3839 -0.8280 -0.3650
 3939SOL    HW212107   2.136   3.297   5.109  0.6659 -0.4184 -0.2178
 3940SOL     OW12108   2.570   4.469   5.676 -0.0867  0.2800  0.0441
 3940SOL    HW112109   2.572   4.567   5.656 -0.4272  0.3461  0.3184
 3940SOL    HW212110   2.657   4.441   5.717 -0.2300  0.6030  0.5790
 3941SOL     OW12111   2.666   5.521   4.502 -0.5506 -0.5020 -0.0911
 3941SOL    HW112112   2.676   5.542   4.404  1.2639  0.9702  0.3389
 3941SOL    HW212113   2.717   5.589   4.555 -2.8636 -0.2868  1.9913
 3942SOL     OW12114   3.382   5.107   4.766  0.4180 -0.3830  0.1447
 3942SOL    HW112115   3.395   5.191   4.713  0.6537  0.3015  1.2654
 3942SOL    HW212116   3.442   5.107   4.846 -0.2430 -1.1972  0.6649
 3943SOL     OW12117   1.096   4.775   3.604 -0.0188  0.4282 -0.0813
 3943SOL    HW112118   1.081   4.781   3.505 -0.4568 -0.0647 -0.0532
 3943SOL    HW212119   1.008   4.760   3.649  0.0043  1.8968  0.4961
 3944SOL     OW12120   2.834   4.230   5.899  0.6477 -0.4525 -0.0377
 3944SOL    HW112121   2.822   4.300   5.828  0.3232 -1.4147 -0.9562
 3944SOL    HW212122   2.803   4.266   5.987 -0.6417  0.1493 -0.7226
 3945SOL     OW12123   2.169   5.321   4.934  0.2171  0.1857  0.0191
 3945SOL    HW112124   2.223   5.342   5.015  0.4344 -1.3372  0.2857
 3945SOL    HW212125   2.225   5.273   4.867 -0.4771 -0.3638 -0.1876
 3946SOL     OW12126   2.400   4.323   2.398 -0.5071 -0.3191 -0.0480
 3946SOL    HW112127   2.389   4.316   2.497  2.0669 -1.7835  0.2182
 3946SOL    HW212128   2.412   4.419   2.372 -0.6213  0.0189  1.1078
 3947SOL     OW12129   3.154   4.294   4.909 -0.0380 -0.1736  0.1008
 3947SOL    HW112130   3.076   4.347   4.874 -0.0130 -0.7816 -0.9180
 3947SOL    HW212131   3.121   4.209   4.949 -0.2538  1.3278  3.3859
 3948SOL     OW12132   0.871   4.134   4.880 -0.1856 -0.3848  0.3032
 3948SOL    HW112133   0.816   4.081   4.816  1.3898 -1.0072 -0.5944
 3948SOL    HW212134   0.815   4.205   4.922 -0.6189  2.2478 -4.1633
 3949SOL     OW12135   3.572   0.721   4.322 -0.0996  0.3508 -0.3485
 3949SOL    HW112136   3.671   0.712   4.316  0.1057  0.2333  2.1525
 3949SOL    HW212137   3.531   0.630   4.335 -0.1468  0.6588  2.1391
 3950SOL     OW12138   1.769   5.484  -0.010 -0.4180 -0.5656  0.3391
 3950SOL    HW112139   1.701   5.499   0.062 -0.0537  0.4172  0.4957
 3950SOL    HW212140   1.830   5.409   0.017 -0.9045 -0.8815  0.5822
 3951SOL     OW12141   3.188   3.793   3.865  0.1009  0.0614 -0.1154
 3951SOL    HW112142   3.176   3.742   3.780  3.6234  0.3682 -0.9573
 3951SOL    HW212143   3.128   3.755   3.935 -0.3178 -2.6061 -1.7700
 3952SOL     OW12144   3.773   5.024   3.973  0.2652 -0.4828 -0.8645
 3952SOL    HW112145   3.713   5.101   3.953 -1.6140 -1.1830  1.6191
 3952SOL    HW212146   3.858   5.034   3.920 -0.3104  2.7007 -1.4090
 3953SOL     OW12147   2.578   4.639   0.378 -0.1867 -1.0234 -0.1154
 3953SOL    HW112148   2.578   4.545   0.412  0.8108 -1.4954 -1.3345
 3953SOL    HW212149   2.666   4.658   0.334 -0.5693  0.3197 -0.3329
 3954SOL     OW12150   1.510   5.717   5.287  0.2926  0.4639 -0.3250
 3954SOL    HW112151   1.456   5.634   5.296  0.0831  0.7511  1.4886
 3954SOL    HW212152   1.490   5.778   5.364  1.4454  1.6013 -0.8913
 3955SOL     OW12153   3.043   5.785   5.435 -0.3455 -0.0094 -0.4513
 3955SOL    HW112154   3.001   5.715   5.378 -0.1148 -0.8702  0.3999
 3955SOL    HW212155   2.981   5.809   5.510  0.5303 -1.1009  0.6645
 3956SOL     OW12156   2.867   4.009   4.962  0.1845 -0.2306  0.2820
 3956SOL    HW112157   2.916   3.966   4.886 -1.3641  0.9412 -1.4682
 3956SOL    HW212158   2.842   4.102   4.938 -1.0960 -0.0979  1.9081
 3957SOL     OW12159   1.352   4.216   5.828 -0.0008  0.3504  0.2996
 3957SOL    HW112160   1.303   4.302   5.818 -1.4377 -0.5817 -1.2934
 3957SOL    HW212161   1.317   4.167   5.908 -0.0822  0.6709  0.4627
 3958SOL     OW12162   3.616   5.418   4.123 -0.0145 -0.2605  0.2079
 3958SOL    HW112163   3.604   5.517   4.127 -0.5342 -0.3287  0.5087
 3958SOL    HW212164   3.676   5.394   4.048 -1.1395  0.1805 -0.8646
 3959SOL     OW12165   2.465   0.152   5.165  0.0379 -0.0281 -0.0798
 3959SOL    HW112166   2.482   0.124   5.259  1.7450 -2.0183 -0.8926
 3959SOL    HW212167   2.547   0.194   5.127  0.0451 -1.0050 -1.2144
 3960SOL     OW12168   2.690   3.823   5.073 -0.7083 -0.2789  0.0041
 3960SOL    HW112169   2.761   3.878   5.028  0.5270 -0.2652  1.8698
 3960SOL    HW212170   2.647   3.876   5.145 -1.1240 -1.0035  0.3038
 3961SOL     OW12171   1.896   5.030   3.974 -0.2375 -0.5605  0.2946
 3961SOL    HW112172   1.866   5.036   4.069 -0.2595 -0.2148  0.2654
 3961SOL    HW212173   1.983   5.077   3.963 -1.2883  1.3641 -0.3045
 3962SOL     OW12174   4.203   5.225   4.476 -0.0773  0.3965  0.1531
 3962SOL    HW112175   4.149   5.172   4.411 -0.7293  0.6903  0.4472
 3962SOL    HW212176   4.195   5.186   4.567  0.4377  0.2761  0.1498
 3963SOL     OW12177   1.121   3.126   4.805  0.3882  0.7302  0.4158
 3963SOL    HW112178   1.101   3.088   4.895 -0.4856  1.5265  0.5691
 3963SOL    HW212179   1.177   3.208   4.815  0.0488  0.9824  0.2520
 3964SOL     OW12180   3.877   4.284   4.047  0.1787  0.7276 -0.6600
 3964SOL    HW112181   3.893   4.207   3.986  0.4509 -1.0480  1.5262
 3964SOL    HW212182   3.964   4.314   4.086 -0.1230  1.0354 -0.2089
 3965SOL     OW12183   4.332   5.691   5.032  0.2382 -0.3042  0.2764
 3965SOL    HW112184   4.378   5.617   4.983 -1.3982  0.0493 -1.9367
 3965SOL    HW212185   4.233   5.685   5.016 -0.0801  1.4929  1.2956
 3966SOL     OW12186   1.810   5.412   5.196 -0.1039  0.2135  0.0934
 3966SOL    HW112187   1.879   5.484   5.191  0.7098 -0.5680 -0.2098
 3966SOL    HW212188   1.722   5.449   5.166 -0.0583  1.4823  1.3770
 3967SOL     OW12189   2.867   4.382   5.680 -0.6348 -0.2605  0.1475
 3967SOL    HW112190   2.935   4.455   5.686 -0.3326 -0.5938  0.8904
 3967SOL    HW212191   2.867   4.345   5.587  0.0769 -0.1375  0.0910
 3968SOL     OW12192   2.292   4.907   5.029 -0.5285  0.0731  0.3828
 3968SOL    HW112193   2.209   4.862   4.995  0.7294 -2.6235  0.6164
 3968SOL    HW212194   2.272   4.951   5.117 -1.9781  0.5316 -0.1458
 3969SOL     OW12195   2.740   3.558   4.541  0.0349 -0.2914  0.5320
 3969SOL    HW112196   2.646   3.531   4.519 -0.0463  2.2250 -3.1066
 3969SOL    HW212197   2.800   3.479   4.528 -1.2199 -1.1371 -0.3952
 3970SOL     OW12198   3.583   3.949   4.398  0.1428 -0.2112 -0.7570
 3970SOL    HW112199   3.675   3.910   4.410 -0.1387 -0.7808 -0.4383
 3970SOL    HW212200   3.535   3.948   4.486 -0.5122 -0.7797 -1.1184
 3971SOL     OW12201   1.062   3.528   5.442  0.1098 -0.1764 -0.6806
 3971SOL    HW112202   1.057   3.483   5.353 -1.2430  0.9261 -1.1750
 3971SOL    HW212203   1.118   3.610   5.435  2.4960 -1.6035  0.2048
 3972SOL     OW12204   1.487   5.054   4.669 -0.1099 -0.2646  0.3345
 3972SOL    HW112205   1.500   5.057   4.570 -0.8029  1.2107  0.2628
 3972SOL    HW212206   1.567   5.012   4.712  0.7988  0.3135 -0.7491
 3973SOL     OW12207   3.633   4.544   4.259 -0.0633  0.3469 -0.5284
 3973SOL    HW112208   3.691   4.566   4.338  0.0145 -0.3492 -0.3864
 3973SOL    HW212209   3.604   4.629   4.215 -0.2012  0.7582  0.3182
 3974SOL     OW12210   2.568   5.006   5.785  0.4740  0.7432  0.6512
 3974SOL    HW112211   2.487   4.958   5.817 -0.0718  1.1850 -0.0412
 3974SOL    HW212212   2.643   4.941   5.773 -0.1673  0.1089  0.0251
 3975SOL     OW12213   2.786   3.913   5.893 -0.2983  0.7662  0.3722
 3975SOL    HW112214   2.821   3.877   5.980  0.9220  1.7225  0.3089
 3975SOL    HW212215   2.817   4.008   5.882  0.5812  0.2943 -1.6510
 3976SOL     OW12216   1.830   3.868   4.350 -0.2078 -0.0148 -0.1556
 3976SOL    HW112217   1.739   3.873   4.310  0.6323  0.7602 -2.0768
 3976SOL    HW212218   1.835   3.789   4.412 -1.1257 -2.3192 -2.8322
 3977SOL     OW12219   4.234   0.143   4.242  0.3555  0.1058  0.0155
 3977SOL    HW112220   4.138   0.119   4.227 -0.8088  4.0743  0.0847
 3977SOL    HW212221   4.261   0.117   4.334 -1.0445  0.0392  0.4304
 3978SOL     OW12222   2.503   5.484   4.927 -0.1659  0.1788  0.3402
 3978SOL    HW112223   2.586   5.535   4.949 -0.1272 -0.0383  0.6964
 3978SOL    HW212224   2.423   5.540   4.947 -0.1087  1.3602 -2.3008
 3979SOL     OW12225   3.946   5.487   5.574 -0.4689  0.2155  0.3850
 3979SOL    HW112226   3.965   5.501   5.477  0.0102 -0.2947  0.3995
 3979SOL    HW212227   3.987   5.561   5.627 -2.0157  1.3315  0.0914
 3980SOL     OW12228   2.277   5.057   5.264  0.1066  0.1384 -0.0820
 3980SOL    HW112229   2.285   5.153   5.236  0.7056  0.4533  1.1190
 3980SOL    HW212230   2.194   5.045   5.319  0.8869  0.3350  1.1629
 3981SOL     OW12231   1.296   5.273   4.445  0.1292  0.4832 -0.4853
 3981SOL    HW112232   1.350   5.189   4.445 -0.6063 -0.0206  0.9456
 3981SOL    HW212233   1.268   5.294   4.351 -1.2945 -1.9841 -0.7011
 3982SOL     OW12234   2.936   4.268   4.369  0.7441  0.2725 -0.9940
 3982SOL    HW112235   2.897   4.355   4.338  1.4669  0.3447 -1.7043
 3982SOL    HW212236   2.872   4.194   4.347 -0.1080  0.6580  0.0589
 3983SOL     OW12237   3.173   3.636   4.961 -0.2118 -0.1095 -0.1075
 3983SOL    HW112238   3.128   3.582   4.890  2.1351 -2.5444  0.0813
 3983SOL    HW212239   3.249   3.687   4.921 -2.1593  2.9802 -0.2066
 3984SOL     OW12240   3.888   0.029   5.054  0.4499  0.4356  0.1309
 3984SOL    HW112241   3.910  -0.026   5.135  2.7714 -0.7316 -1.1869
 3984SOL    HW212242   3.793   0.060   5.060 -0.1796 -1.5691  2.1753
 3985SOL     OW12243   0.869   2.713   0.006 -0.1456 -0.5326 -0.4883
 3985SOL    HW112244   0.778   2.754   0.015  0.2994  0.5998 -0.9675
 3985SOL    HW212245   0.923   2.735   0.087 -0.1795 -0.9259 -0.3550
 3986SOL     OW12246   2.449   0.463   4.228  0.1442 -0.4395  0.4453
 3986SOL    HW112247   2.370   0.416   4.188 -0.4891 -1.4184  2.6741
 3986SOL    HW212248   2.440   0.562   4.214 -1.9956 -0.4403  1.4021
 3987SOL     OW12249   1.497   0.179   4.266 -0.7843 -0.4794  0.3956
 3987SOL    HW112250   1.430   0.190   4.192 -0.7800  1.0492  0.5951
 3987SOL    HW212251   1.496   0.084   4.297 -0.4024 -1.3157 -1.9242
 3988SOL     OW12252   3.308   5.349   4.394  0.1557  0.5301  0.7979
 3988SOL    HW112253   3.211   5.372   4.399  0.2234  0.7615  1.0877
 3988SOL    HW212254   3.318   5.252   4.374 -0.1352  0.6871 -0.1433
 3989SOL     OW12255   1.586   5.771   4.110 -0.4050  0.1254  0.1075
 3989SOL    HW112256   1.572   5.833   4.188  1.3218  1.7983 -0.8195
 3989SOL    HW212257   1.555   5.679   4.135 -0.5431  0.7468  2.5342
 3990SOL     OW12258   2.459   4.881   4.190  0.2804 -0.3433 -0.2488
 3990SOL    HW112259   2.439   4.966   4.141  2.2394 -1.1478 -2.5964
 3990SOL    HW212260   2.382   4.818   4.180 -0.2504  0.3121 -0.3766
 3991SOL     OW12261   2.028   5.728   3.978  0.6361  0.1501 -0.6113
 3991SOL    HW112262   2.106   5.696   4.032  2.6906  1.8405 -2.4226
 3991SOL    HW212263   2.003   5.659   3.910  3.0491  1.0006 -2.4759
 3992SOL     OW12264   3.932   4.591   5.883 -0.0959 -0.1264  0.7086
 3992SOL    HW112265   4.015   4.640   5.911  0.2519  0.0930 -0.6291
 3992SOL    HW212266   3.920   4.511   5.941  1.3336 -0.4426  0.6101
 3993SOL     OW12267   2.246   2.440   5.186 -0.0502 -0.2014 -0.1497
 3993SOL    HW112268   2.331   2.432   5.133  0.4520 -0.7379  0.7060
 3993SOL    HW212269   2.201   2.351   5.191 -0.9327  0.1788 -1.0052
 3994SOL     OW12270   1.676   3.367   5.756  0.0244  0.1218 -0.3427
 3994SOL    HW112271   1.623   3.285   5.781 -0.3552  0.4094 -0.1790
 3994SOL    HW212272   1.613   3.441   5.734  0.2237  1.4723  2.9978
 3995SOL     OW12273   2.397   5.755   4.687 -0.4916 -0.0235 -0.2318
 3995SOL    HW112274   2.393   5.657   4.706 -0.9236  0.3513  1.7923
 3995SOL    HW212275   2.316   5.800   4.725  0.2117  1.2705 -0.1912
 3996SOL     OW12276   2.516   3.345   5.052  0.1396  0.2500 -0.0632
 3996SOL    HW112277   2.452   3.328   4.976 -0.1487 -0.3999  0.3121
 3996SOL    HW212278   2.497   3.434   5.093  1.6429  1.5736 -2.0617
 3997SOL     OW12279   2.153   5.918   4.827  0.5203  0.1261  0.5140
 3997SOL    HW112280   2.155   5.985   4.753 -0.5318 -0.3755  0.0120
 3997SOL    HW212281   2.192   5.959   4.910  0.4116  1.1658  0.0666
 3998SOL     OW12282   2.821   4.694   4.490  0.5719  0.2938 -0.4752
 3998SOL    HW112283   2.861   4.739   4.570  0.5397  0.0891 -0.3434
 3998SOL    HW212284   2.738   4.743   4.463  0.2525  0.0154 -0.0196
 3999SOL     OW12285   3.012   5.089   4.415 -0.3117  0.6312 -1.3935
 3999SOL    HW112286   2.950   5.098   4.493  0.0860 -0.6487 -0.9026
 3999SOL    HW212287   2.959   5.071   4.332 -0.7086  1.5199 -1.3390
 4000SOL     OW12288   3.723   4.628   3.258  0.2652  0.2103  0.8726
 4000SOL    HW112289   3.675   4.585   3.334 -0.5315  0.8653  0.7498
 4000SOL    HW212290   3.686   4.720   3.242 -0.0928 -0.1888 -0.7673
 4001SOL     OW12291   3.566   3.068   5.157 -0.6872  0.1748  0.2000
 4001SOL    HW112292   3.551   2.970   5.148  0.2579  0.0717 -0.3760
 4001SOL    HW212293   3.550   3.096   5.252  0.0533 -0.7252  0.6024
 4002SOL     OW12294   3.062   2.844   4.977 -0.7636 -0.0300 -0.0514
 4002SOL    HW112295   3.026   2.915   4.916 -1.9092  2.5560  3.2907
 4002SOL    HW212296   3.150   2.813   4.943 -0.0448  3.2580 -1.6274
 4003SOL     OW12297   2.709   4.973   0.182  0.7644 -0.8103  0.4692
 4003SOL    HW112298   2.793   4.980   0.128  0.3809  1.0843  0.0341
 4003SOL    HW212299   2.654   5.055   0.167 -0.7237 -1.5888  1.4973
 4004SOL     OW12300   1.897   5.702   2.999 -0.0528 -0.1169  0.2230
 4004SOL    HW112301   1.842   5.619   2.992  1.2569 -0.8827 -1.8229
 4004SOL    HW212302   1.914   5.723   3.096 -1.4519 -1.4806  0.8010
 4005SOL     OW12303   1.245   5.199   5.063  0.3062  0.2809  0.1830
 4005SOL    HW112304   1.166   5.158   5.017  0.1373 -0.0106  0.7280
 4005SOL    HW212305   1.311   5.229   4.995 -0.3643  0.7166 -0.2960
 4006SOL     OW12306   2.440   5.805   5.190 -0.2935 -0.4505  0.1845
 4006SOL    HW112307   2.490   5.791   5.275 -0.1553 -0.5091  0.0949
 4006SOL    HW212308   2.435   5.903   5.169  0.0257 -0.4589  0.0529
 4007SOL     OW12309   3.760   4.304   4.490 -0.3621 -0.0278 -0.5302
 4007SOL    HW112310   3.677   4.265   4.451 -0.3143 -0.8486  0.1627
 4007SOL    HW212311   3.747   4.402   4.505 -1.3042 -0.1971 -0.1664
 4008SOL     OW12312   2.722   4.505   5.176  0.3912  0.6917  0.3384
 4008SOL    HW112313   2.647   4.568   5.194  0.3377  0.6281  0.3414
 4008SOL    HW212314   2.804   4.535   5.225  0.6940  1.4038 -0.5884
 4009SOL     OW12315   3.354   3.398   5.803 -0.3364 -0.2393 -0.3083
 4009SOL    HW112316   3.337   3.436   5.712 -1.1477 -0.3100 -0.1987
 4009SOL    HW212317   3.267   3.389   5.852  0.1652  0.6057  0.7972
 4010SOL     OW12318   2.547   3.796   3.674 -0.1107 -0.6405  0.3756
 4010SOL    HW112319   2.597   3.786   3.587  0.2365 -1.6139  0.6724
 4010SOL    HW212320   2.570   3.719   3.734 -0.6597 -0.1853  1.1792
 4011SOL     OW12321   4.203   4.655   4.355  0.7279  0.0169 -0.4500
 4011SOL    HW112322   4.218   4.612   4.444 -1.0382  0.1703 -0.0603
 4011SOL    HW212323   4.228   4.752   4.360 -0.7734  0.3869  0.3294
 4012SOL     OW12324   2.802   5.155   5.750  0.0206  0.7948 -0.8889
 4012SOL    HW112325   2.792   5.248   5.715 -1.0494  2.0267  2.2314
 4012SOL    HW212326   2.713   5.110   5.748  0.2387  0.3723 -1.0800
 4013SOL     OW12327   3.368   3.275   4.382  0.4936 -0.1408 -0.0609
 4013SOL    HW112328   3.351   3.339   4.307  0.5314  0.9494  0.8191
 4013SOL    HW212329   3.466   3.270   4.400  0.4404  0.0891  0.3089
 4014SOL     OW12330   3.272   5.473   3.450 -0.6016 -0.2302 -0.7517
 4014SOL    HW112331   3.324   5.388   3.458 -1.0534 -0.5090 -0.7655
 4014SOL    HW212332   3.304   5.525   3.371 -0.0047 -0.1623 -0.4748
 4015SOL     OW12333   2.205   4.425   3.472  0.7007 -0.1706 -0.5784
 4015SOL    HW112334   2.230   4.512   3.429 -0.5023  0.4142 -0.1246
 4015SOL    HW212335   2.182   4.359   3.400  1.1366  0.0219 -0.9069
 4016SOL     OW12336   4.359   5.427   4.335 -0.2519  0.0003  0.1657
 4016SOL    HW112337   4.454   5.427   4.368  0.1974  1.7885 -1.0225
 4016SOL    HW212338   4.313   5.345   4.368  1.3209 -0.2682  1.8659
 4017SOL     OW12339   2.866   3.345   4.457  0.3884 -1.1087 -0.5428
 4017SOL    HW112340   2.858   3.281   4.534  0.5857  0.5433  0.9052
 4017SOL    HW212341   2.961   3.375   4.449 -0.1304  1.0074  0.5405
 4018SOL     OW12342   2.282   4.492   4.490 -0.0475  0.7838  1.4844
 4018SOL    HW112343   2.327   4.580   4.498  1.2346  0.2309  0.7141
 4018SOL    HW212344   2.203   4.499   4.429 -0.1516  1.4548  1.6954
 4019SOL     OW12345   3.391   5.302   5.353 -0.3172  0.3562  0.2427
 4019SOL    HW112346   3.363   5.207   5.345  3.2023 -0.7721 -0.6493
 4019SOL    HW212347   3.427   5.318   5.445  0.5058  0.3513 -0.0714
 4020SOL     OW12348   1.847   4.042   4.551  0.7262 -0.9413 -0.0428
 4020SOL    HW112349   1.852   3.950   4.512 -0.1394 -0.8436 -0.4066
 4020SOL    HW212350   1.905   4.047   4.633  0.3151 -1.9900  0.3280
 4021SOL     OW12351   4.941   4.110   0.245 -0.4503  0.0728 -0.2462
 4021SOL    HW112352   4.973   4.032   0.299  1.3173  0.0638 -1.2303
 4021SOL    HW212353   4.966   4.097   0.149 -2.0952  0.8437 -0.8185
 4022SOL     OW12354   3.537   5.680   4.162  0.3102  0.0894 -0.2314
 4022SOL    HW112355   3.513   5.652   4.255  0.4213  1.4470  0.2343
 4022SOL    HW212356   3.455   5.683   4.106  0.1174  0.0779  0.0478
 4023SOL     OW12357   3.794   5.927   3.903  1.3486  0.4989  0.0860
 4023SOL    HW112358   3.799   5.851   3.839  0.9265 -1.1570  1.9258
 4023SOL    HW212359   3.880   5.979   3.901  2.1320 -0.7735 -0.3118
 4024SOL     OW12360   1.649   2.515   4.786 -0.3424 -0.0825  0.4021
 4024SOL    HW112361   1.577   2.569   4.742 -0.3986 -1.6954 -1.6960
 4024SOL    HW212362   1.732   2.571   4.796 -0.5362  0.5652 -1.2719
 4025SOL     OW12363   1.987   3.731   5.054  0.0399  0.4737 -0.2353
 4025SOL    HW112364   2.086   3.726   5.065 -0.0842  1.0532  1.2847
 4025SOL    HW212365   1.944   3.745   5.143 -1.3714  0.8081 -0.9467
 4026SOL     OW12366   2.848   2.433   4.517  0.0320  0.3917 -0.5767
 4026SOL    HW112367   2.870   2.366   4.587  1.4603  0.1856 -1.1897
 4026SOL    HW212368   2.829   2.521   4.560 -2.7563 -0.5381  0.3071
 4027SOL     OW12369   2.289   3.369   5.687  0.2275  0.3112 -0.6053
 4027SOL    HW112370   2.312   3.281   5.728  0.3118  0.7865  0.4063
 4027SOL    HW212371   2.202   3.362   5.639 -1.5568  0.4572  2.3433
 4028SOL     OW12372   2.640   3.567   5.840  0.0755 -0.5242  0.1514
 4028SOL    HW112373   2.687   3.627   5.776 -0.0199  0.1938  0.7374
 4028SOL    HW212374   2.632   3.612   5.929 -0.9587 -0.9667  0.3024
 4029SOL     OW12375   1.445   0.259   5.278  0.0971  0.4266 -0.1993
 4029SOL    HW112376   1.374   0.285   5.343  1.3972 -0.2824  1.5995
 4029SOL    HW212377   1.443   0.160   5.265  1.0111  0.3354  0.2480
 4030SOL     OW12378   3.862   5.850   4.730 -0.6078 -0.4162 -0.6554
 4030SOL    HW112379   3.892   5.804   4.646 -0.7862 -2.9651  0.5867
 4030SOL    HW212380   3.819   5.937   4.706 -0.0187 -0.7112 -3.1266
 4031SOL     OW12381   1.781   3.327   4.088 -0.0017  0.2673 -0.3725
 4031SOL    HW112382   1.687   3.324   4.055 -0.1681 -0.5123  0.1649
 4031SOL    HW212383   1.832   3.395   4.035 -0.6698  0.1718 -1.1563
 4032SOL     OW12384   3.218   5.454   4.792  0.0809  0.2642  0.1089
 4032SOL    HW112385   3.288   5.437   4.723  0.2287  0.2588  0.2602
 4032SOL    HW212386   3.206   5.373   4.849  1.5331  0.9778  1.4990
 4033SOL     OW12387   2.946  -0.008   5.161 -0.1881  0.2807 -0.2485
 4033SOL    HW112388   2.902   0.080   5.180 -1.6709 -0.6977  1.1488
 4033SOL    HW212389   2.951  -0.062   5.245  1.0508 -0.8472 -0.9876
 4034SOL     OW12390   2.946   4.884   2.919  0.2422 -0.0910 -0.1114
 4034SOL    HW112391   2.970   4.969   2.871 -0.0703 -0.7386 -1.4402
 4034SOL    HW212392   2.847   4.877   2.927  0.2485 -0.5569 -0.4240
 4035SOL     OW12393   2.909   4.881   5.147  0.2885  0.3860  0.5124
 4035SOL    HW112394   2.827   4.840   5.108 -0.6039  1.6566  0.9970
 4035SOL    HW212395   2.987   4.819   5.134 -0.7332 -0.8397  0.0489
 4036SOL     OW12396   2.097   4.728   4.982 -0.4437  0.6987 -0.1782
 4036SOL    HW112397   2.077   4.663   4.908 -0.9240  0.8495 -0.1866
 4036SOL    HW212398   2.160   4.686   5.047  0.5006  0.8073 -1.0113
 4037SOL     OW12399   4.291   3.586   5.034  0.0529  0.3263  0.3147
 4037SOL    HW112400   4.232   3.665   5.050 -0.7283  0.0234 -0.9140
 4037SOL    HW212401   4.326   3.552   5.121  0.7026  2.2210  0.8539
 4038SOL     OW12402   3.014   3.086   4.850  0.6042 -0.8675 -0.3953
 4038SOL    HW112403   3.012   3.144   4.932 -1.1230 -1.4139 -0.0019
 4038SOL    HW212404   3.079   3.123   4.784  1.2375  0.1962  0.7854
 4039SOL     OW12405   1.974   3.104   4.662  0.7285  0.2961  0.5118
 4039SOL    HW112406   1.907   3.036   4.690 -0.6252  0.8971 -1.1151
 4039SOL    HW212407   1.968   3.118   4.563  1.7690  1.9503  0.6486
 4040SOL     OW12408   3.718   4.014   4.714  0.0665 -0.3270  0.6833
 4040SOL    HW112409   3.770   3.928   4.713 -0.8481 -0.8973  1.0234
 4040SOL    HW212410   3.782   4.091   4.722  0.9638 -0.9010 -0.6552
 4041SOL     OW12411   2.994   4.941   3.642 -0.0555 -0.1705  0.0726
 4041SOL    HW112412   3.087   4.904   3.634  0.6152  0.9248  2.0196
 4041SOL    HW212413   2.932   4.887   3.585  1.7868 -0.7923 -1.4585
 4042SOL     OW12414   2.476   4.156   5.064  0.2045 -0.6282 -0.0053
 4042SOL    HW112415   2.513   4.120   4.979  1.5681  0.0306  0.2900
 4042SOL    HW212416   2.415   4.088   5.105 -0.5554 -0.9162 -1.5410
 4043SOL     OW12417   2.218   2.609   4.837 -0.2161  0.3562 -0.6520
 4043SOL    HW112418   2.305   2.657   4.844 -0.0521  0.1296 -1.0493
 4043SOL    HW212419   2.143   2.671   4.857  0.0957  0.1973  1.1866
 4044SOL     OW12420   1.341   4.021   5.617  0.0342 -0.3217 -0.4255
 4044SOL    HW112421   1.317   3.934   5.660  1.1006 -1.6078 -2.2646
 4044SOL    HW212422   1.339   4.094   5.685 -1.7131 -1.6106  0.9949
 4045SOL     OW12423   3.329   4.298   4.546 -0.1406 -0.1207 -0.1768
 4045SOL    HW112424   3.378   4.230   4.490  1.2829  1.4493 -0.9395
 4045SOL    HW212425   3.305   4.376   4.489 -0.3090  0.7245  1.0304
 4046SOL     OW12426   2.820   5.419   5.697  0.5969  0.2791 -0.8596
 4046SOL    HW112427   2.876   5.478   5.755 -0.0246  1.8354 -1.7492
 4046SOL    HW212428   2.760   5.477   5.641 -0.5840 -1.2643 -1.2379
 4047SOL     OW12429   2.266   3.360   3.269  0.1126 -0.4541 -0.4382
 4047SOL    HW112430   2.257   3.456   3.295 -3.9095 -0.3475 -1.5919
 4047SOL    HW212431   2.274   3.353   3.169  0.2969 -1.3197 -0.3712
 4048SOL     OW12432   3.079   3.213   5.405  0.5569 -0.2450  0.5268
 4048SOL    HW112433   2.980   3.219   5.416  0.6270  1.7479  0.4707
 4048SOL    HW212434   3.109   3.282   5.340  1.7907 -2.2214 -1.1258
 4049SOL     OW12435   2.070   4.900   4.571 -0.1794 -0.1889 -0.0523
 4049SOL    HW112436   2.066   4.956   4.653  1.0139 -0.0738 -0.0543
 4049SOL    HW212437   1.996   4.833   4.572 -0.6791  0.3656  0.7000
 4050SOL     OW12438   4.229   4.907   0.758 -0.1312 -0.0066  0.3489
 4050SOL    HW112439   4.152   4.960   0.793  0.4363  0.9578  0.1746
 4050SOL    HW212440   4.313   4.935   0.805  0.4687  0.5688 -1.0242
 4051SOL     OW12441   4.275   4.823   5.666  0.1461 -0.2131  0.4547
 4051SOL    HW112442   4.244   4.884   5.594 -0.6557 -0.7306  0.3466
 4051SOL    HW212443   4.344   4.761   5.629 -0.1550 -0.3802  0.1599
 4052SOL     OW12444   2.600   3.724   4.811 -0.0759  0.3552  0.4147
 4052SOL    HW112445   2.627   3.732   4.907  1.7240  0.3901 -0.0590
 4052SOL    HW212446   2.535   3.648   4.802  1.8669 -1.5148  1.2934
 4053SOL     OW12447   2.645   2.856   4.394  0.2693  0.2174  0.5411
 4053SOL    HW112448   2.682   2.815   4.310  0.4016 -1.6577  1.4632
 4053SOL    HW212449   2.720   2.874   4.457  0.0781  0.7971  0.6021
 4054SOL     OW12450   2.987   4.775   3.185 -0.1263 -0.0831 -0.3490
 4054SOL    HW112451   2.915   4.709   3.207 -0.5201  0.3930 -0.2137
 4054SOL    HW212452   2.963   4.824   3.101 -1.2630  1.9358  1.0621
 4055SOL     OW12453   3.114   5.331   5.017  0.1834 -0.1023 -0.2834
 4055SOL    HW112454   3.062   5.248   5.039  1.4682 -0.7720  0.3387
 4055SOL    HW212455   3.168   5.358   5.097  2.3121 -0.5901 -1.4973
 4056SOL     OW12456   1.916   4.006   5.503 -0.0253 -0.4838 -0.0095
 4056SOL    HW112457   1.977   3.960   5.567  0.7619  0.1794 -0.2756
 4056SOL    HW212458   1.821   3.995   5.534  0.4413  1.9314  2.7204
 4057SOL     OW12459   2.215   4.358   4.710  0.5405  0.4765 -0.0768
 4057SOL    HW112460   2.232   4.260   4.696  1.0152  0.6889 -1.0383
 4057SOL    HW212461   2.253   4.410   4.634 -0.3866  1.3575  0.0422
 4058SOL     OW12462   4.549   4.846   0.124  0.0085  0.1685  0.1524
 4058SOL    HW112463   4.492   4.867   0.203  0.5602  0.9799  0.3448
 4058SOL    HW212464   4.554   4.926   0.064  0.9938  0.1294  0.1700
 4059SOL     OW12465   3.255   2.891   4.161  0.1869  0.1550  0.7203
 4059SOL    HW112466   3.273   2.798   4.129 -0.2351  0.4689 -0.4861
 4059SOL    HW212467   3.284   2.957   4.091 -3.5396  0.7593 -0.5175
 4060SOL     OW12468   1.575   5.577   4.436  0.1139 -0.5454  0.0977
 4060SOL    HW112469   1.648   5.528   4.483  0.3378 -0.6189 -0.3189
 4060SOL    HW212470   1.545   5.525   4.356  1.5239  0.7100 -1.3523
 4061SOL     OW12471   2.877   5.141   4.656  0.1442  0.2910 -0.7819
 4061SOL    HW112472   2.832   5.118   4.742  0.2027 -0.1962 -0.8808
 4061SOL    HW212473   2.812   5.186   4.595 -0.6817 -1.8276 -1.5476
 4062SOL     OW12474   2.401   5.260   4.781  0.0331  0.7369 -0.0699
 4062SOL    HW112475   2.415   5.344   4.833  1.8182  0.8588 -0.6822
 4062SOL    HW212476   2.442   5.183   4.831  2.1934  0.9238 -1.4258
 4063SOL     OW12477   1.633   4.816   4.741 -0.1281  0.4839  0.3500
 4063SOL    HW112478   1.658   4.769   4.656  0.8858  1.0440  0.3239
 4063SOL    HW212479   1.698   4.790   4.813  0.4556  1.8254  0.3332
 4064SOL     OW12480   1.709   2.961   5.431  0.2452  0.1984 -0.1971
 4064SOL    HW112481   1.692   2.863   5.443 -1.6190  0.4791 -0.1616
 4064SOL    HW212482   1.720   2.981   5.334  3.6204 -0.4078 -0.0601
 4065SOL     OW12483   2.679   3.525   0.330  0.0160  0.8982 -0.2573
 4065SOL    HW112484   2.656   3.428   0.340  0.3800  0.8092 -0.2571
 4065SOL    HW212485   2.773   3.539   0.359  0.5881  0.9195 -2.0113
 4066SOL     OW12486   2.915   3.921   5.526  0.4326  0.3190  0.0512
 4066SOL    HW112487   2.990   3.925   5.592  1.5731 -3.4827 -0.7959
 4066SOL    HW212488   2.936   3.981   5.449  1.6895  0.7280  0.6843
 4067SOL     OW12489   4.068   3.949   4.180 -0.4490 -0.0542 -0.2431
 4067SOL    HW112490   4.095   4.035   4.224  2.3560  0.5942 -2.8320
 4067SOL    HW212491   4.006   3.970   4.104  0.5660 -0.2085 -1.1376
 4068SOL     OW12492   3.039   5.379   4.372 -0.2390  0.0568  0.4677
 4068SOL    HW112493   2.989   5.295   4.391  0.0165  0.2434  2.0868
 4068SOL    HW212494   2.985   5.458   4.403 -0.2376  0.4616 -0.5336
 4069SOL     OW12495   1.968   4.195   4.924  0.5847 -0.5154  0.6671
 4069SOL    HW112496   2.018   4.160   5.003  1.1587 -0.7285  0.2229
 4069SOL    HW212497   1.955   4.122   4.857 -0.1521 -0.4113  0.6850
 4070SOL     OW12498   2.255   4.168   5.576 -0.0188 -0.4761  0.1451
 4070SOL    HW112499   2.183   4.226   5.615 -0.2661  0.3553 -1.4457
 4070SOL    HW212500   2.342   4.217   5.578  0.3074 -1.0715  1.1062
 4071SOL     OW12501   2.835   5.350   5.308 -0.1892 -0.4667 -0.2747
 4071SOL    HW112502   2.901   5.413   5.348 -0.3394 -0.2517 -0.3660
 4071SOL    HW212503   2.882   5.285   5.248  0.0329 -0.7617  0.2061
 4072SOL     OW12504   3.201   4.212   3.499 -0.3316  0.0517  0.4843
 4072SOL    HW112505   3.193   4.156   3.416  0.8865  1.1500 -0.4189
 4072SOL    HW212506   3.175   4.158   3.579 -0.1408 -1.4781 -0.4543
 4073SOL     OW12507   2.078   4.204   5.384  0.2681 -0.1501  0.6348
 4073SOL    HW112508   1.996   4.159   5.421 -0.4305  0.9634  0.4640
 4073SOL    HW212509   2.155   4.188   5.446  0.0572 -1.6071  0.5591
 4074SOL     OW12510   3.646   4.392   5.666  0.0230  0.5260  0.6141
 4074SOL    HW112511   3.592   4.348   5.594  0.1701 -0.5235  1.1138
 4074SOL    HW212512   3.731   4.427   5.626  0.1254 -0.0863  0.2760
 4075SOL     OW12513   2.922   5.441   3.705 -0.1226  0.0228  0.1344
 4075SOL    HW112514   2.954   5.356   3.747 -0.7448 -0.2000  0.1732
 4075SOL    HW212515   2.958   5.448   3.612  1.7542  0.8114  0.8891
 4076SOL     OW12516   2.794   5.877   4.432 -0.4058  0.0369  0.2479
 4076SOL    HW112517   2.702   5.898   4.401 -0.4352  0.7642  0.7931
 4076SOL    HW212518   2.834   5.958   4.475  1.0621  0.1903 -1.3105
 4077SOL     OW12519   2.838   4.623   4.049 -0.2602 -0.0928  0.6965
 4077SOL    HW112520   2.777   4.644   3.973  1.6775  0.9228 -0.6546
 4077SOL    HW212521   2.911   4.691   4.054  1.1899 -1.6330  1.7911
 4078SOL     OW12522   1.152   4.778   4.846  0.5442  0.2039 -0.0916
 4078SOL    HW112523   1.241   4.772   4.891  1.4338 -0.4618 -1.8482
 4078SOL    HW212524   1.150   4.857   4.785 -0.2991  0.5690  0.3937
 4079SOL     OW12525   3.049   0.203   0.786  0.0562 -0.1412  0.1716
 4079SOL    HW112526   3.019   0.151   0.866  4.8463 -1.6958  1.2373
 4079SOL    HW212527   3.086   0.291   0.815  0.4139 -0.0609 -0.5058
 4080SOL     OW12528   3.128   3.206   4.605 -0.0083 -0.0541  0.0986
 4080SOL    HW112529   3.158   3.130   4.548  0.4846 -0.1730  0.5071
 4080SOL    HW212530   3.138   3.292   4.554 -0.9467 -0.2979 -0.5047
 4081SOL     OW12531   3.533   5.590   3.766  0.7965  0.2275 -0.6681
 4081SOL    HW112532   3.434   5.588   3.753  0.7505  0.2732 -0.3366
 4081SOL    HW212533   3.577   5.524   3.705  0.7972  2.0949 -2.8425
 4082SOL     OW12534   1.432   4.572   4.334  0.4783 -0.1244 -0.1066
 4082SOL    HW112535   1.412   4.652   4.390  1.1150  2.0225 -2.7365
 4082SOL    HW212536   1.511   4.524   4.372 -1.9984 -1.8028  3.5785
 4083SOL     OW12537   4.240   5.320   4.816  0.5036 -0.2509 -0.2842
 4083SOL    HW112538   4.179   5.385   4.771 -0.8107  0.2631  2.0940
 4083SOL    HW212539   4.235   5.231   4.769 -1.1858  0.1050 -0.8243
 4084SOL     OW12540   2.885   5.430   4.869  0.7018  0.4132 -0.0404
 4084SOL    HW112541   2.816   5.365   4.901  0.7948 -0.5947 -1.7848
 4084SOL    HW212542   2.976   5.397   4.895  0.8210 -0.7153 -1.7318
 4085SOL     OW12543   2.130   5.382   3.619 -0.0060 -0.2273  0.1992
 4085SOL    HW112544   2.224   5.347   3.617 -0.1408 -0.8076 -3.6822
 4085SOL    HW212545   2.066   5.306   3.624 -0.3763  0.1587  2.5415
 4086SOL     OW12546   3.698   5.355   5.669  0.1432 -0.0015 -0.1498
 4086SOL    HW112547   3.696   5.255   5.670 -0.7737 -0.0435 -2.3921
 4086SOL    HW212548   3.786   5.386   5.633  1.0686  0.0833  2.0309
 4087SOL     OW12549   2.958   3.219   4.173 -0.3808  0.0537  0.4904
 4087SOL    HW112550   3.018   3.299   4.163 -1.0923  0.4906 -0.6232
 4087SOL    HW212551   2.865   3.245   4.145 -0.3716 -1.4715 -1.1424
 4088SOL     OW12552   1.858   3.885   3.317  0.0474  0.5015  0.5098
 4088SOL    HW112553   1.930   3.890   3.386 -0.6411  0.1192  1.2758
 4088SOL    HW212554   1.811   3.797   3.325  0.4311  0.1423 -0.9455
 4089SOL     OW12555   2.973   4.387   3.917 -0.5259 -0.2697 -0.3913
 4089SOL    HW112556   2.905   4.445   3.962 -1.3463 -0.4866 -1.3282
 4089SOL    HW212557   3.020   4.332   3.985 -1.2980 -0.1310  0.2663
 4090SOL     OW12558   1.716   5.270   5.405 -0.0969 -0.3542  0.2455
 4090SOL    HW112559   1.750   5.319   5.324 -0.1217 -0.3390  0.2440
 4090SOL    HW212560   1.770   5.187   5.419 -1.6386 -1.6914 -1.2458
 4091SOL     OW12561   2.114   5.125   4.367 -0.2173  0.0574  0.4496
 4091SOL    HW112562   2.107   5.033   4.403 -1.3923  0.1303  0.4466
 4091SOL    HW212563   2.024   5.157   4.338  0.4862  0.4072 -1.5335
 4092SOL     OW12564   3.081   5.698   3.842 -0.3973 -0.3328 -0.4143
 4092SOL    HW112565   3.078   5.663   3.936  0.4003 -1.1049 -0.6536
 4092SOL    HW212566   3.066   5.622   3.778  0.9398 -0.1887 -0.9431
 4093SOL     OW12567   2.552   4.744   5.628 -0.1547 -0.5397 -0.2360
 4093SOL    HW112568   2.525   4.785   5.541 -0.1461 -4.0343 -2.0332
 4093SOL    HW212569   2.650   4.761   5.643  0.0456 -0.6138 -1.3463
 4094SOL     OW12570   4.000   0.373   4.407  0.6211  0.0682 -0.0680
 4094SOL    HW112571   3.982   0.282   4.446  1.8982  0.2978  1.1383
 4094SOL    HW212572   4.000   0.367   4.307  0.8524 -1.2869 -0.0104
 4095SOL     OW12573   3.804   5.299   5.069  0.4635  0.0788 -0.0865
 4095SOL    HW112574   3.765   5.336   5.153 -0.7184 -0.3843 -0.4087
 4095SOL    HW212575   3.879   5.358   5.038  1.9126 -0.4959  2.0428
 4096SOL     OW12576   3.528   3.496   4.753 -0.0351  0.1986  0.4752
 4096SOL    HW112577   3.617   3.451   4.763  1.0462  1.5161 -2.1976
 4096SOL    HW212578   3.455   3.430   4.768  1.4282 -1.5459  0.2255
 4097SOL     OW12579   1.208   5.550   4.042  0.0001 -0.0068 -0.4020
 4097SOL    HW112580   1.173   5.629   4.092  1.9829  0.6792 -0.0019
 4097SOL    HW212581   1.248   5.579   3.956  1.9437 -0.3344  0.3395
 4098SOL     OW12582   3.246   4.506   5.112 -0.4565 -0.3521  0.5815
 4098SOL    HW112583   3.228   4.434   5.044 -1.7987 -1.0380  1.6094
 4098SOL    HW212584   3.289   4.465   5.193 -1.7492 -0.1292  1.4038
 4099SOL     OW12585   2.038   5.592   4.889  0.1510  1.0524 -0.3643
 4099SOL    HW112586   2.022   5.616   4.985  0.7735  1.6684 -0.4007
 4099SOL    HW212587   2.073   5.499   4.883 -1.8223  0.2532 -0.1657
 4100SOL     OW12588   1.602   4.381   5.108  0.4053  0.5387  0.2415
 4100SOL    HW112589   1.653   4.320   5.170  0.5019  0.3079 -0.0626
 4100SOL    HW212590   1.599   4.473   5.147  0.9520  0.5261  0.3244
 4101SOL     OW12591   2.313   3.428   5.296  0.0198 -0.5020  0.5095
 4101SOL    HW112592   2.264   3.417   5.210  0.3999 -1.3775  0.3903
 4101SOL    HW212593   2.321   3.340   5.342  0.3132 -0.1434  1.1725
 4102SOL     OW12594   1.870   5.832   2.784  0.0903  0.0107  0.3120
 4102SOL    HW112595   1.776   5.855   2.763  0.1154  0.3090  0.5235
 4102SOL    HW212596   1.873   5.769   2.861  0.1275  1.3294  1.4302
 4103SOL     OW12597   3.130   4.774   4.490 -1.2205 -0.3408  0.4763
 4103SOL    HW112598   3.072   4.705   4.534 -0.4343 -0.4135  1.4557
 4103SOL    HW212599   3.144   4.850   4.554 -1.2549  0.2627 -0.2222
 4104SOL     OW12600   1.311   2.813   4.363 -0.3574 -0.3014  0.7959
 4104SOL    HW112601   1.248   2.745   4.325  1.5782 -0.7315 -1.8822
 4104SOL    HW212602   1.390   2.767   4.404  1.2128  0.2042 -1.4787
 4105SOL     OW12603   1.827   4.988   4.244 -0.2966  0.4004 -0.7389
 4105SOL    HW112604   1.751   4.928   4.267 -0.1433  0.4315 -0.1348
 4105SOL    HW212605   1.813   5.077   4.288 -0.4336  0.7524 -1.4799
 4106SOL     OW12606   2.685   4.796   5.015  0.0124  0.3841  0.3837
 4106SOL    HW112607   2.619   4.754   5.079 -0.8603 -0.2847 -0.9159
 4106SOL    HW212608   2.735   4.724   4.968 -0.5386  0.8015 -0.8891
 4107SOL     OW12609   3.702   0.219   4.334  0.2035  0.2036  0.5452
 4107SOL    HW112610   3.718   0.154   4.259  1.1314  0.5262  0.4443
 4107SOL    HW212611   3.764   0.199   4.410  0.6951  1.1095  0.4075
 4108SOL     OW12612   3.083   3.007   4.353 -0.6118  0.1061 -0.7087
 4108SOL    HW112613   3.058   3.097   4.316 -1.7144 -0.0964 -0.4960
 4108SOL    HW212614   3.113   2.947   4.279  0.4178  0.7257 -0.8163
 4109SOL     OW12615   3.569   5.257   0.553  0.2897 -0.3084 -0.0083
 4109SOL    HW112616   3.634   5.287   0.484 -0.5867  1.3151 -0.1687
 4109SOL    HW212617   3.509   5.186   0.514  0.5388 -0.2213 -0.5540
 4110SOL     OW12618   0.932   5.055   4.808  0.3047 -0.2549 -0.2082
 4110SOL    HW112619   1.017   5.039   4.758  1.0225  0.0732  0.8688
 4110SOL    HW212620   0.947   5.038   4.906 -0.9522 -0.4885 -0.0396
 4111SOL     OW12621   3.736   5.684   4.932 -0.6047 -0.6792  0.2606
 4111SOL    HW112622   3.792   5.744   4.874 -0.9979  0.1174  0.6959
 4111SOL    HW212623   3.715   5.600   4.882  0.7144 -0.8615 -0.0244
 4112SOL     OW12624   3.206   4.651   4.119  0.4628  0.0071  0.0259
 4112SOL    HW112625   3.148   4.727   4.149 -0.8046 -0.9028 -0.0368
 4112SOL    HW212626   3.149   4.571   4.099  1.7919 -1.1124  0.5267
 4113SOL     OW12627   1.687   3.444   4.506  0.1158  0.0729 -0.4078
 4113SOL    HW112628   1.742   3.523   4.477 -4.3866  2.9954 -2.1433
 4113SOL    HW212629   1.679   3.379   4.430  0.1023  0.3149 -0.6145
 4114SOL     OW12630   4.337   3.310   0.549 -0.2160 -0.9732 -0.2700
 4114SOL    HW112631   4.310   3.385   0.609 -0.0167  1.1550 -2.6820
 4114SOL    HW212632   4.255   3.266   0.512 -0.3312 -1.3323  0.3999
 4115SOL     OW12633   3.208   5.466   5.251  0.2195 -0.1373  0.2237
 4115SOL    HW112634   3.299   5.426   5.264  0.0930 -0.8579 -0.8937
 4115SOL    HW212635   3.162   5.472   5.339  1.3545  0.2677  0.8142
 4116SOL     OW12636   1.351   5.163   3.964  0.4045  0.2720  0.0827
 4116SOL    HW112637   1.357   5.178   3.866 -1.0786  1.0802  0.1017
 4116SOL    HW212638   1.353   5.064   3.983  1.6403  0.1264 -0.6561
 4117SOL     OW12639   3.717   5.695   5.931  0.2317  0.0923 -0.0370
 4117SOL    HW112640   3.761   5.619   5.979  0.7871  1.2067  1.3005
 4117SOL    HW212641   3.710   5.773   5.993 -2.0656  0.5386 -0.7657
 4118SOL     OW12642   3.136   4.972   4.721 -0.4827 -0.4550  0.0920
 4118SOL    HW112643   3.221   5.022   4.739 -0.1737 -0.0667 -2.1481
 4118SOL    HW212644   3.066   5.036   4.689 -0.7935 -1.1372 -0.6142
 4119SOL     OW12645   2.676   4.496   4.670 -0.3751 -0.0448 -0.3053
 4119SOL    HW112646   2.607   4.560   4.702 -0.5114 -0.1780 -0.3306
 4119SOL    HW212647   2.748   4.545   4.622  1.2970  0.5574  2.5697
 4120SOL     OW12648   4.439   0.132   5.579 -0.1991  0.2909  0.3072
 4120SOL    HW112649   4.523   0.143   5.632  0.1488 -0.4415 -0.0936
 4120SOL    HW212650   4.369   0.088   5.636  0.5546 -1.6159 -0.1916
 4121SOL     OW12651   1.661   4.049   5.589 -0.2159 -0.4695  0.0326
 4121SOL    HW112652   1.675   4.146   5.610  0.1470 -0.1789 -1.4396
 4121SOL    HW212653   1.568   4.036   5.554 -0.3825 -0.7189  0.5624
 4122SOL     OW12654   3.402   5.819   4.597 -0.7041  0.4193 -0.1566
 4122SOL    HW112655   3.490   5.843   4.554 -0.9964 -0.7272 -1.4782
 4122SOL    HW212656   3.418   5.793   4.692  0.5461 -0.6532 -0.6268
 4123SOL     OW12657   1.800   0.060   4.938 -0.3217 -0.9682  0.0223
 4123SOL    HW112658   1.860   0.126   4.983 -0.4965 -1.7043  1.3959
 4123SOL    HW212659   1.848  -0.028   4.930 -0.1431 -0.7563 -1.6482
 4124SOL     OW12660   3.381   4.375   5.288  0.0056  0.1668 -0.5120
 4124SOL    HW112661   3.469   4.367   5.335 -0.1296 -1.4894 -0.4851
 4124SOL    HW212662   3.363   4.291   5.237 -1.3542  0.6703 -0.8861
 4125SOL     OW12663   1.683   4.661   4.515 -0.1199  0.0699 -0.2082
 4125SOL    HW112664   1.783   4.668   4.522 -0.1957  0.6612  0.4208
 4125SOL    HW212665   1.656   4.565   4.519  0.5120 -0.2081 -1.8083
 4126SOL     OW12666   4.091   5.680   4.872 -0.1536 -0.1566  0.1116
 4126SOL    HW112667   4.067   5.764   4.824  0.6504 -0.1719 -0.3274
 4126SOL    HW212668   4.079   5.602   4.809 -1.8578 -0.5051  0.8018
 4127SOL     OW12669   2.662   2.587   4.798 -0.2893  0.2502 -0.0534
 4127SOL    HW112670   2.752   2.615   4.765  0.4899 -1.4917  0.4827
 4127SOL    HW212671   2.671   2.540   4.886 -1.8968  1.3026  0.7341
 4128SOL     OW12672   2.652   5.066   3.346 -0.7562  0.3204 -0.7225
 4128SOL    HW112673   2.700   5.082   3.259  1.4651  0.2347  0.4164
 4128SOL    HW212674   2.683   4.980   3.386 -1.4087  0.5845  0.3868
 4129SOL     OW12675   1.602   4.149   4.531  0.2918 -0.0465 -0.2479
 4129SOL    HW112676   1.693   4.112   4.546 -0.0795 -0.7937  0.2100
 4129SOL    HW212677   1.540   4.118   4.604 -0.6966 -0.8454 -1.3789
 4130SOL     OW12678   2.053   4.151   4.409  0.0379 -0.6056  0.6651
 4130SOL    HW112679   1.986   4.128   4.479 -0.0133 -1.5320  0.3185
 4130SOL    HW212680   2.050   4.083   4.336  0.3136  0.1708 -0.0854
 4131SOL     OW12681   2.842   4.659   2.167  0.3803  0.2610  0.4408
 4131SOL    HW112682   2.889   4.638   2.253  0.2715 -2.0290 -0.0008
 4131SOL    HW212683   2.757   4.608   2.162 -0.3236  1.4614 -0.4446
 4132SOL     OW12684   1.308   4.858   4.125  0.1876  0.3844 -0.4686
 4132SOL    HW112685   1.226   4.857   4.069 -0.0943 -0.5103 -0.0609
 4132SOL    HW212686   1.389   4.869   4.066 -0.2266  1.5111 -0.8451
 4133SOL     OW12687   2.108   4.732   3.825 -1.0295  0.0433 -0.5614
 4133SOL    HW112688   2.165   4.741   3.906 -0.2008  0.2716 -1.1514
 4133SOL    HW212689   2.135   4.801   3.757 -0.7626 -1.0134 -1.5671
 4134SOL     OW12690   3.034   4.833   4.240  0.0956 -0.8541 -0.2960
 4134SOL    HW112691   3.076   4.810   4.328 -0.1122 -2.5281 -0.5891
 4134SOL    HW212692   2.953   4.890   4.256  1.9744  1.8436  0.3149
 4135SOL     OW12693   4.024   3.735   3.534 -0.6759  0.5741 -0.0954
 4135SOL    HW112694   3.969   3.750   3.452  0.3720  2.3001 -0.5267
 4135SOL    HW212695   4.120   3.725   3.508 -0.5078 -0.3561  0.8141
 4136SOL     OW12696   1.696   4.171   4.218 -0.1380  0.0225 -0.0451
 4136SOL    HW112697   1.749   4.117   4.284  1.2826  2.2235  0.7075
 4136SOL    HW212698   1.755   4.201   4.144 -0.9614  0.3294 -0.5890
 4137SOL     OW12699   4.058   0.089   3.945  0.6155  0.2950  0.1291
 4137SOL    HW112700   4.118   0.018   3.908  0.7677  0.1914  0.5594
 4137SOL    HW212701   4.068   0.173   3.891 -0.4316 -0.3391 -1.1000
 4138SOL     OW12702   2.167   4.460   5.371  0.5246  0.3414 -0.2066
 4138SOL    HW112703   2.259   4.463   5.411  0.6756  1.1045 -0.6024
 4138SOL    HW212704   2.129   4.369   5.384  0.5482  0.5527  1.7407
 4139SOL     OW12705   4.039   4.599   0.531  0.1772  0.1033  0.4773
 4139SOL    HW112706   4.117   4.606   0.593  0.8965  1.4168 -0.5112
 4139SOL    HW212707   4.050   4.665   0.457 -1.1495 -0.7294 -0.5053
 4140SOL     OW12708   1.986   5.507   5.830  0.3809  0.2718  0.1168
 4140SOL    HW112709   2.055   5.456   5.881  0.4445 -0.6044 -0.8336
 4140SOL    HW212710   1.899   5.503   5.880  0.3450 -0.9005 -0.0026
 4141SOL     OW12711   2.284   4.588   5.134 -0.2334  0.0321 -0.1051
 4141SOL    HW112712   2.314   4.520   5.067 -3.3925  0.0812 -1.7541
 4141SOL    HW212713   2.228   4.543   5.203 -1.5066  0.7618 -0.6394
 4142SOL     OW12714   4.628   5.390   0.689 -0.1181 -0.4640 -0.3410
 4142SOL    HW112715   4.591   5.347   0.607 -0.0049  0.0481 -0.6694
 4142SOL    HW212716   4.577   5.474   0.708 -0.9782 -1.2479  0.8578
 4143SOL     OW12717   1.067   4.481   5.399  0.5061 -0.0941  0.0867
 4143SOL    HW112718   1.024   4.409   5.454 -4.4704  1.9032 -0.7045
 4143SOL    HW212719   1.097   4.555   5.459 -0.4562 -0.0184  0.4979
 4144SOL     OW12720   2.847   4.177   0.255  0.1083 -0.3922  0.1373
 4144SOL    HW112721   2.856   4.077   0.257 -0.1331 -0.4083  0.4737
 4144SOL    HW212722   2.908   4.218   0.322  1.0793 -0.2392 -0.8023
 4145SOL     OW12723   3.489   4.198   0.762 -0.7509 -0.1441  0.2064
 4145SOL    HW112724   3.460   4.251   0.682 -1.2253 -2.0299 -0.9653
 4145SOL    HW212725   3.566   4.140   0.737  1.8728  2.1789  2.3194
 4146SOL     OW12726   2.102   3.825   0.167  0.3453  0.2947  0.0730
 4146SOL    HW112727   2.055   3.912   0.157  1.0730  0.6875 -0.0309
 4146SOL    HW212728   2.063   3.758   0.103 -0.0173  0.6276 -0.0562
 4147SOL     OW12729   2.797   4.810   5.721 -0.0507 -0.1065 -0.1731
 4147SOL    HW112730   2.808   4.779   5.815 -0.4133  1.2732  0.3539
 4147SOL    HW212731   2.886   4.829   5.681  0.0508  1.5018  0.7032
 4148SOL     OW12732   2.260   3.710   5.004 -0.3967 -0.1275  0.6349
 4148SOL    HW112733   2.338   3.701   5.065  0.2453  1.4407  0.0861
 4148SOL    HW212734   2.269   3.645   4.928  0.8027  0.5638  0.1594
 4149SOL     OW12735   2.051   4.443   1.732  0.4261 -0.2240 -0.4012
 4149SOL    HW112736   2.112   4.427   1.654 -1.0395  0.9054 -1.8533
 4149SOL    HW212737   1.958   4.459   1.698 -0.3998 -0.4428  1.6539
 4150SOL     OW12738   2.584   5.882   0.368  0.0672  0.4967  0.1003
 4150SOL    HW112739   2.673   5.892   0.323  0.0296  3.4904  0.4543
 4150SOL    HW212740   2.593   5.903   0.465 -0.6907 -1.3823  0.6268
 4151SOL     OW12741   4.434   4.417   1.574 -0.1826  0.2869  0.0324
 4151SOL    HW112742   4.452   4.379   1.484 -0.5990 -1.4543  0.6547
 4151SOL    HW212743   4.521   4.446   1.615  0.2041 -0.4088 -0.2783
 4152SOL     OW12744   2.152   5.120   5.517  0.1695  0.6170 -0.2899
 4152SOL    HW112745   2.239   5.160   5.547  0.7598  0.2635 -1.4608
 4152SOL    HW212746   2.135   5.036   5.568  0.9932  0.1960 -0.6789
 4153SOL     OW12747   1.886   4.150   5.813 -0.0656 -0.2232 -0.6353
 4153SOL    HW112748   1.917   4.065   5.772 -1.3522 -0.8556 -0.3360
 4153SOL    HW212749   1.829   4.200   5.748 -1.2613 -0.7391 -0.0192
 4154SOL     OW12750   3.209   0.158   0.292  0.0616  0.2797  0.6378
 4154SOL    HW112751   3.221   0.059   0.301 -0.3420  0.2941  1.4079
 4154SOL    HW212752   3.120   0.184   0.328  0.0400  0.8929  0.1615
 4155SOL     OW12753   2.111   3.032   0.457  0.1405  0.2722 -0.1114
 4155SOL    HW112754   2.092   2.960   0.524 -0.5314 -1.0249 -1.6341
 4155SOL    HW212755   2.198   3.013   0.411 -0.6944 -0.3727 -1.4881
 4156SOL     OW12756   3.967   5.224   5.513 -0.3196 -0.6439 -0.1198
 4156SOL    HW112757   3.985   5.321   5.529  0.8746 -0.9916  0.8623
 4156SOL    HW212758   3.996   5.172   5.594 -4.2955 -1.4994  0.9619
 4157SOL     OW12759   4.628   4.368   0.482 -0.3570  0.2672  0.6444
 4157SOL    HW112760   4.617   4.451   0.428 -0.6597  0.4133  0.9226
 4157SOL    HW212761   4.563   4.370   0.559 -2.2243 -1.4064 -0.7778
 4158SOL     OW12762   2.021   4.658   5.563  0.7929 -0.0345 -0.1780
 4158SOL    HW112763   2.043   4.620   5.473 -0.4595  1.1847 -1.0483
 4158SOL    HW212764   1.922   4.675   5.568  0.9708  0.7441  1.0901
 4159SOL     OW12765   3.353   4.826   5.509 -0.6814  0.1754 -0.0359
 4159SOL    HW112766   3.283   4.761   5.539  0.4747 -1.0455  0.0960
 4159SOL    HW212767   3.440   4.779   5.498 -0.6204  0.8696 -3.7782
 4160SOL     OW12768   2.956   4.559   5.318 -0.0375 -0.3852  0.1786
 4160SOL    HW112769   3.001   4.645   5.295 -0.5012 -0.2317 -0.1708
 4160SOL    HW212770   3.019   4.500   5.367  1.2676 -1.0160 -2.0847
 4161SOL     OW12771   2.668   2.977   0.068  0.2340  0.1276 -0.8703
 4161SOL    HW112772   2.657   3.030  -0.016 -0.0210 -0.4497 -1.2016
 4161SOL    HW212773   2.657   2.880   0.048  1.2853 -0.1003 -0.3678
 4162SOL     OW12774   2.399   5.810   1.246 -0.1602  0.3750 -0.7961
 4162SOL    HW112775   2.446   5.832   1.161  1.8651 -2.4177 -0.5504
 4162SOL    HW212776   2.457   5.836   1.323 -0.6304  0.1889 -0.3739
 4163SOL     OW12777   3.045   5.458   5.478 -0.0714  0.1647 -0.5333
 4163SOL    HW112778   3.074   5.365   5.497 -0.5754  0.3273  1.2117
 4163SOL    HW212779   3.050   5.513   5.562 -0.5779  1.4901 -1.3292
 4164SOL     OW12780   2.156   4.230   0.820 -0.1905  0.2153  0.0051
 4164SOL    HW112781   2.134   4.268   0.730  1.4717 -0.9662 -0.9620
 4164SOL    HW212782   2.242   4.178   0.814  0.0536  0.2413  2.3217
 4165SOL     OW12783   2.902   4.072   0.614  0.2825 -0.5470 -0.4822
 4165SOL    HW112784   2.956   4.142   0.567 -0.0515 -1.8739 -3.0561
 4165SOL    HW212785   2.804   4.090   0.599  0.1415 -0.6313  0.3089
 4166SOL     OW12786   4.962   5.568   0.141  0.3896 -0.0090 -0.1392
 4166SOL    HW112787   5.062   5.556   0.136  0.2191 -1.2504 -0.9667
 4166SOL    HW212788   4.922   5.488   0.187 -0.1660  0.8733  0.9441
 4167SOL     OW12789   1.475   3.570   5.715 -0.2522  0.0333  0.1768
 4167SOL    HW112790   1.493   3.543   5.621 -1.4927  0.3290 -0.1592
 4167SOL    HW212791   1.489   3.669   5.724  1.8889 -0.2708  0.8255
 4168SOL     OW12792   2.526   4.421   0.559 -0.4134  0.8708  0.1410
 4168SOL    HW112793   2.456   4.428   0.630 -0.2337  0.6577  0.3423
 4168SOL    HW212794   2.487   4.374   0.479 -0.2253 -0.1701  0.6349
 4169SOL     OW12795   3.793   3.930   5.421 -0.4422  0.1280 -0.2086
 4169SOL    HW112796   3.807   4.021   5.381  0.5112 -1.0994 -2.9115
 4169SOL    HW212797   3.881   3.893   5.452 -0.3491 -0.9071 -1.6200
 4170SOL     OW12798   2.928   4.543   0.525  0.3593  0.7482 -0.0431
 4170SOL    HW112799   2.860   4.531   0.598 -1.1529  1.0379 -1.3580
 4170SOL    HW212800   2.883   4.541   0.436  2.0644  1.1524 -0.9661
 4171SOL     OW12801   1.909   4.022   0.092  0.0070 -0.3155  0.1006
 4171SOL    HW112802   1.927   4.054  -0.001  0.5565 -1.5670 -0.2425
 4171SOL    HW212803   1.861   4.093   0.143 -1.8289 -0.2177 -1.6513
 4172SOL     OW12804   2.580   4.616   0.056  0.0817 -0.0084  0.0610
 4172SOL    HW112805   2.577   4.544   0.125 -0.8561  0.7909  0.8872
 4172SOL    HW212806   2.501   4.609  -0.004 -1.7833  2.1248  2.0772
 4173SOL     OW12807   2.365   4.399   4.951 -0.2349  0.2533 -0.1033
 4173SOL    HW112808   2.315   4.364   4.872  0.8176 -2.2028  0.2430
 4173SOL    HW212809   2.417   4.326   4.993 -0.1926  1.6394  2.4870
 4174SOL     OW12810   4.130   4.676   0.285 -0.1515  0.5194 -0.9532
 4174SOL    HW112811   4.108   4.595   0.230 -0.4883  0.2368 -0.4140
 4174SOL    HW212812   4.227   4.697   0.276  0.2593 -0.8145  0.0084
 4175SOL     OW12813   3.080   4.169   5.905  0.5725  0.4156  0.0024
 4175SOL    HW112814   3.118   4.129   5.989  1.6043 -3.1850 -1.9810
 4175SOL    HW212815   2.981   4.165   5.908  0.6179 -1.0045  0.5263
 4176SOL     OW12816   1.766   5.750   4.821  0.7717 -0.0652 -0.4231
 4176SOL    HW112817   1.667   5.741   4.829  0.8273 -0.1204  0.2052
 4176SOL    HW212818   1.809   5.661   4.830  0.9150  0.0293 -0.1771
 4177SOL     OW12819   2.384   3.133   5.846  0.2130 -0.0276 -0.7047
 4177SOL    HW112820   2.442   3.210   5.874 -0.9213  0.3597  0.6359
 4177SOL    HW212821   2.369   3.071   5.923 -1.8696  0.3547 -0.7417
 4178SOL     OW12822   2.079   2.541   5.828 -0.1398 -0.1549 -0.1757
 4178SOL    HW112823   2.122   2.457   5.858 -1.6991 -0.9222  0.0043
 4178SOL    HW212824   2.013   2.572   5.896 -0.6181  0.4259 -0.8777
 4179SOL     OW12825   2.420   0.661   0.408  0.3805  0.1924 -0.1378
 4179SOL    HW112826   2.425   0.740   0.469 -0.0507 -0.1726  0.3754
 4179SOL    HW212827   2.355   0.681   0.334  0.9579  0.6603 -0.5341
 4180SOL     OW12828   1.751   3.799   0.139  0.1646  0.6272 -0.3759
 4180SOL    HW112829   1.803   3.882   0.118 -0.1076  0.4643 -1.8668
 4180SOL    HW212830   1.790   3.722   0.087 -0.1507  0.0193  0.2807
 4181SOL     OW12831   2.980   5.707   0.297  0.3263  0.4145 -0.3985
 4181SOL    HW112832   3.076   5.730   0.281  0.3518  0.8615  0.3490
 4181SOL    HW212833   2.963   5.702   0.395 -0.1425 -0.8677 -0.5204
 4182SOL     OW12834   1.380   4.869   5.407 -0.3960 -0.4689  0.6886
 4182SOL    HW112835   1.419   4.787   5.449 -0.5508 -2.2273 -2.2893
 4182SOL    HW212836   1.441   4.947   5.421  0.7578 -1.5544  1.8897
 4183SOL     OW12837   2.285   4.170   5.909 -0.1130  0.5761  0.0657
 4183SOL    HW112838   2.376   4.180   5.947  0.7237  0.1740 -1.7108
 4183SOL    HW212839   2.278   4.083   5.861 -0.9398  1.2350 -1.0748
 4184SOL     OW12840   0.554   3.745   4.430  0.2155 -0.1430 -0.1129
 4184SOL    HW112841   0.454   3.743   4.422  0.1104 -0.2666  1.0743
 4184SOL    HW212842   0.592   3.665   4.383 -0.2467 -0.1269 -0.5296
 4185SOL     OW12843   1.872   5.890   1.135 -0.3608  0.0569  0.0519
 4185SOL    HW112844   1.821   5.830   1.196 -0.6838  0.3631  0.0904
 4185SOL    HW212845   1.967   5.897   1.166 -0.6312  0.5628  0.7803
 4186SOL     OW12846   1.926   1.316   5.371  0.4866  0.2988 -0.5654
 4186SOL    HW112847   2.018   1.327   5.333  1.7764  0.5199  2.3107
 4186SOL    HW212848   1.893   1.406   5.402 -0.3163  0.0797 -0.7846
 4187SOL     OW12849   1.904   5.952   0.464 -0.2684  0.1255  0.3905
 4187SOL    HW112850   1.939   5.960   0.371 -0.6215  1.0508  0.3318
 4187SOL    HW212851   1.804   5.943   0.461 -0.3432  0.7937  0.7004
 4188SOL     OW12852   2.171   5.984   1.586 -0.5263  0.1622 -0.0009
 4188SOL    HW112853   2.140   6.055   1.650  1.6442  0.5798  0.6723
 4188SOL    HW212854   2.118   5.900   1.602 -1.2109  0.7787  1.1473
 4189SOL     OW12855   3.034   0.047   2.016  0.3269  0.3165 -0.2812
 4189SOL    HW112856   3.007  -0.040   2.059  0.9135 -0.5549 -1.6202
 4189SOL    HW212857   2.997   0.052   1.924  1.0032  1.1129 -0.5221
 4190SOL     OW12858   3.508   0.298   1.193 -0.0387  0.2924  0.4324
 4190SOL    HW112859   3.599   0.257   1.199 -0.1745  0.1637  2.5142
 4190SOL    HW212860   3.452   0.246   1.129  2.0407  1.9179 -3.0052
 4191SOL     OW12861   2.288   0.383   1.002  0.3177 -0.3793  0.1165
 4191SOL    HW112862   2.298   0.378   0.903 -1.5637 -1.1882 -0.0724
 4191SOL    HW212863   2.225   0.312   1.033 -1.1489  1.4543  1.5704
 4192SOL     OW12864   3.393   0.830   0.654  0.1632  0.3194 -0.0063
 4192SOL    HW112865   3.469   0.861   0.597 -0.3544  2.4405  0.3829
 4192SOL    HW212866   3.316   0.805   0.596 -0.4658  2.7509 -0.3132
 4193SOL     OW12867   1.732   5.186   2.020 -0.0051 -0.1331  0.2259
 4193SOL    HW112868   1.639   5.202   2.053 -0.3375 -1.3586 -0.0900
 4193SOL    HW212869   1.748   5.088   2.011  1.5329  0.0222  0.8814
 4194SOL     OW12870   3.135   1.035   1.294 -0.1394  0.3131 -0.1647
 4194SOL    HW112871   3.142   1.134   1.295 -0.3861  0.3317 -0.1143
 4194SOL    HW212872   3.039   1.008   1.304  0.0209  0.0487  0.7707
 4195SOL     OW12873   1.189   0.759   0.069 -0.1275  0.0969 -0.3183
 4195SOL    HW112874   1.258   0.776  -0.002 -0.1359 -0.6874 -0.5169
 4195SOL    HW212875   1.138   0.843   0.085 -2.4261 -0.4547 -3.6631
 4196SOL     OW12876   1.911   0.519   1.028 -0.0671  0.8994  0.3159
 4196SOL    HW112877   1.917   0.438   1.086  0.2194  0.4625 -0.3056
 4196SOL    HW212878   1.975   0.589   1.060  1.5152 -0.0684 -0.5875
 4197SOL     OW12879   4.438   5.409   5.600 -0.0429  0.3454  0.4457
 4197SOL    HW112880   4.465   5.366   5.514  0.4610  1.6965 -0.0997
 4197SOL    HW212881   4.404   5.501   5.582  0.1799  0.6928  1.7023
 4198SOL     OW12882   3.583   5.847   0.958  0.4081  0.1435 -0.0695
 4198SOL    HW112883   3.492   5.808   0.976  0.7373 -0.3143  0.6217
 4198SOL    HW212884   3.578   5.905   0.877 -0.9337  1.5740  0.9640
 4199SOL     OW12885   2.277   5.527   5.732  0.4752 -0.2820 -0.7766
 4199SOL    HW112886   2.274   5.447   5.791 -0.3567 -1.1151 -1.9088
 4199SOL    HW212887   2.185   5.548   5.699  0.6845  1.1251 -0.5259
 4200SOL     OW12888   3.057   5.441   1.429  0.3234  0.2501  0.0951
 4200SOL    HW112889   3.095   5.353   1.402 -1.5600 -0.7826  0.6134
 4200SOL    HW212890   3.061   5.450   1.529 -2.0591 -0.5621  0.3117
 4201SOL     OW12891   2.939   0.148   0.338 -0.3701 -0.1107  0.3170
 4201SOL    HW112892   2.886   0.063   0.340 -1.0717  0.3171  0.6720
 4201SOL    HW212893   2.877   0.225   0.319  0.4054  0.2205 -1.0053
 4202SOL     OW12894   3.565   5.674   5.327  0.1916 -0.0586 -0.1618
 4202SOL    HW112895   3.582   5.582   5.292  0.0554  0.5137 -1.8077
 4202SOL    HW212896   3.476   5.677   5.372 -0.1912 -0.5312 -0.8736
 4203SOL     OW12897   2.544   1.099   6.028  0.0270 -0.4897  0.4055
 4203SOL    HW112898   2.514   1.044   5.950  0.2596 -2.3104  1.5398
 4203SOL    HW212899   2.585   1.184   5.995  0.7739 -1.5279 -1.4759
 4204SOL     OW12900   2.033   0.368   0.714  0.0712 -0.4990  0.3468
 4204SOL    HW112901   2.019   0.351   0.616 -1.3960 -1.3972  0.6951
 4204SOL    HW212902   1.980   0.448   0.743 -0.5439 -1.0284  0.6832
 4205SOL     OW12903   3.020   0.944   0.879 -0.4007  0.0975 -0.0212
 4205SOL    HW112904   3.013   0.921   0.782  1.4531  1.4600 -0.5439
 4205SOL    HW212905   2.928   0.951   0.918 -1.2167 -0.0431 -1.7816
 4206SOL     OW12906   3.482   0.490   3.638  0.4502  0.1281  0.0870
 4206SOL    HW112907   3.416   0.417   3.655  0.3858 -0.0762 -0.9710
 4206SOL    HW212908   3.492   0.546   3.720 -1.1658  0.2679  0.2254
 4207SOL     OW12909   3.636   5.208   2.034  1.0018 -0.2101 -0.1886
 4207SOL    HW112910   3.705   5.165   2.091 -1.0808  0.3209  3.0221
 4207SOL    HW212911   3.554   5.151   2.031  0.8332  0.0615 -2.2483
 4208SOL     OW12912   2.241   0.135   1.371 -0.3895 -0.2863  0.2768
 4208SOL    HW112913   2.341   0.135   1.379 -0.4868  0.1566  2.1131
 4208SOL    HW212914   2.203   0.073   1.440 -1.4080 -0.1099 -0.1110
 4209SOL     OW12915   1.017   0.399   1.904 -0.3108 -0.2315  0.9444
 4209SOL    HW112916   1.024   0.344   1.821  0.0676 -0.5183  1.1610
 4209SOL    HW212917   1.082   0.364   1.972 -0.0113  0.5353  1.0550
 4210SOL     OW12918   2.333   0.655   1.102  0.4091 -0.0846 -0.6683
 4210SOL    HW112919   2.318   0.558   1.083  2.1140 -0.3245 -0.8949
 4210SOL    HW212920   2.259   0.708   1.061 -0.0007 -1.1884 -1.4213
 4211SOL     OW12921   2.616   0.424   2.459 -0.1821 -0.2694  0.1610
 4211SOL    HW112922   2.649   0.331   2.446 -0.6343 -0.2333 -1.4377
 4211SOL    HW212923   2.659   0.485   2.392 -0.6305  0.4892  0.5460
 4212SOL     OW12924   3.544   0.605   0.732  0.4206 -0.2618  0.3039
 4212SOL    HW112925   3.508   0.517   0.698  0.7629 -1.0615  1.9326
 4212SOL    HW212926   3.475   0.676   0.716 -0.2008 -0.9688 -0.3121
 4213SOL     OW12927   4.031   5.009   5.324 -0.2705  0.5324  0.2340
 4213SOL    HW112928   3.980   4.975   5.404  1.3197 -1.4397  0.4865
 4213SOL    HW212929   4.028   4.941   5.251  0.8314  1.0020 -0.2633
 4214SOL     OW12930   1.962   5.283   0.037  0.3525  0.0497  0.4225
 4214SOL    HW112931   2.009   5.231   0.109 -1.8946 -1.0815  1.1938
 4214SOL    HW212932   1.914   5.219  -0.024 -0.7591  1.1282  0.1204
 4215SOL     OW12933   2.303   0.654   0.734 -0.2883  0.4042  0.0691
 4215SOL    HW112934   2.265   0.707   0.809  1.7153  0.6298  0.9958
 4215SOL    HW212935   2.287   0.556   0.751 -0.2724  0.4832  0.5541
 4216SOL     OW12936   1.622   0.075   5.599  0.2326 -0.7152 -0.3090
 4216SOL    HW112937   1.613  -0.023   5.617 -1.3317 -0.6121 -0.3716
 4216SOL    HW212938   1.636   0.123   5.685 -1.3613 -0.7885  0.0162
 4217SOL     OW12939   3.471   1.513   0.577 -0.2699 -0.4848  0.2042
 4217SOL    HW112940   3.473   1.480   0.671  0.0793 -0.9656  0.0352
 4217SOL    HW212941   3.545   1.469   0.525 -0.6432 -0.4543 -0.3655
 4218SOL     OW12942   3.502   5.789   0.268  0.2533 -0.1187  0.4837
 4218SOL    HW112943   3.553   5.833   0.194  0.5637 -0.3405  0.5628
 4218SOL    HW212944   3.549   5.704   0.294 -0.2015 -0.3628  0.5035
 4219SOL     OW12945   2.548   0.570   0.663 -0.2102 -0.3702  0.4275
 4219SOL    HW112946   2.523   0.570   0.566 -0.7842 -0.6017  0.5689
 4219SOL    HW212947   2.470   0.599   0.717 -0.0408 -0.7069  0.8569
 4220SOL     OW12948   3.586   4.901   1.004  0.1746 -0.1865 -0.2915
 4220SOL    HW112949   3.584   5.001   0.996 -0.2961 -0.1477  0.2928
 4220SOL    HW212950   3.494   4.868   1.025  0.2283 -0.7869 -0.9645
 4221SOL     OW12951   1.752   4.905   5.632 -0.8068 -0.1597  0.2881
 4221SOL    HW112952   1.721   4.892   5.726 -1.5321 -1.0285 -0.0516
 4221SOL    HW212953   1.740   4.819   5.581  0.7182 -0.0632 -0.2760
 4222SOL     OW12954   1.411   5.920   5.451 -0.6132 -0.3369 -0.1834
 4222SOL    HW112955   1.365   5.937   5.364 -1.5035 -0.7019  0.2070
 4222SOL    HW212956   1.461   6.003   5.478  0.8595 -0.6579 -1.7075
 4223SOL     OW12957   2.854   0.224   5.273 -0.1539 -0.1677 -0.4471
 4223SOL    HW112958   2.908   0.268   5.345 -0.7620 -0.8486  0.4485
 4223SOL    HW212959   2.779   0.284   5.246 -0.1425 -0.0592 -0.2427
 4224SOL     OW12960   4.050   5.673   1.010  0.3586 -0.1612  0.0499
 4224SOL    HW112961   4.035   5.583   0.970 -0.4336 -0.1355  0.2655
 4224SOL    HW212962   4.036   5.744   0.940  1.0143 -0.2082 -0.1275
 4225SOL     OW12963   3.164   4.661   0.132 -0.4117  0.0093 -0.2405
 4225SOL    HW112964   3.119   4.731   0.188  1.2651  1.1480 -0.2606
 4225SOL    HW212965   3.108   4.642   0.051 -0.4311  2.1430 -0.7934
 4226SOL     OW12966   1.834   0.283   1.147 -0.1311  0.3987 -0.4690
 4226SOL    HW112967   1.800   0.214   1.211  1.1895 -0.0247 -0.2108
 4226SOL    HW212968   1.767   0.294   1.073 -0.9393 -0.2494  0.1361
 4227SOL     OW12969   3.215   4.546   0.777 -0.3545  0.2711  0.3971
 4227SOL    HW112970   3.226   4.460   0.728 -0.2934 -0.2945  1.3792
 4227SOL    HW212971   3.242   4.622   0.718  0.7545 -0.4723 -0.0693
 4228SOL     OW12972   1.905   4.434   1.157  0.4143  0.0181 -0.3412
 4228SOL    HW112973   1.915   4.336   1.138  2.0511  0.2123 -0.6464
 4228SOL    HW212974   1.848   4.475   1.086 -0.9750 -0.8166  0.2298
 4229SOL     OW12975   3.806   0.614   0.589  0.0359 -0.5592 -0.9899
 4229SOL    HW112976   3.709   0.619   0.614 -0.5568 -2.9813 -2.4703
 4229SOL    HW212977   3.829   0.690   0.529 -1.0700 -0.2018 -0.9901
 4230SOL     OW12978   3.779   1.010   0.886 -0.4543  0.2073  0.0990
 4230SOL    HW112979   3.760   0.915   0.910  1.9439 -0.0406  1.3394
 4230SOL    HW212980   3.873   1.018   0.853 -0.7423  2.0937 -0.3859
 4231SOL     OW12981   2.021   5.443   2.547 -0.1777 -0.0430  0.4568
 4231SOL    HW112982   1.992   5.449   2.642  0.5889 -0.1126  0.7061
 4231SOL    HW212983   1.967   5.374   2.499 -0.8093  0.2487  0.7457
 4232SOL     OW12984   2.679   5.029   0.935  0.1758  0.1797 -0.5997
 4232SOL    HW112985   2.694   4.959   0.865  1.0095 -0.3828  0.1089
 4232SOL    HW212986   2.670   4.985   1.024  3.0131  1.0176  0.2125
 4233SOL     OW12987   3.289   0.148   2.502  0.4310 -0.1920  0.4924
 4233SOL    HW112988   3.306   0.060   2.458  1.7659 -0.4165  1.4069
 4233SOL    HW212989   3.367   0.173   2.558 -1.0793  0.1892  2.5699
 4234SOL     OW12990   1.314   0.918   4.777  0.5025  0.6168  0.1753
 4234SOL    HW112991   1.394   0.864   4.805 -0.9031 -2.1100 -0.6924
 4234SOL    HW212992   1.237   0.857   4.760 -0.8121  2.7927 -2.4300
 4235SOL     OW12993   4.246   0.091   2.816  0.6548  0.1039  0.3723
 4235SOL    HW112994   4.345   0.081   2.804  0.7419  1.5268 -0.2602
 4235SOL    HW212995   4.217   0.181   2.784 -0.9169 -0.4331  0.1760
 4236SOL     OW12996   3.283   0.491   3.998 -0.2724 -0.1495 -0.2986
 4236SOL    HW112997   3.238   0.540   3.924 -0.0503  0.8136  0.1862
 4236SOL    HW212998   3.247   0.523   4.086  0.8913  0.1690  0.0732
 4237SOL     OW12999   3.496   5.142   1.716  0.3420  0.2887  0.5420
 4237SOL    HW113000   3.536   5.226   1.754 -1.9311  1.7691 -0.0902
 4237SOL    HW213001   3.516   5.137   1.618  0.2696  0.2299  0.5304
 4238SOL     OW13002   2.863   0.660   4.807 -0.1694 -0.4611  0.2065
 4238SOL    HW113003   2.928   0.731   4.834 -0.8733  0.1706  0.2890
 4238SOL    HW213004   2.796   0.699   4.743 -1.5194 -0.6297  1.4783
 4239SOL     OW13005   3.171   5.771   2.143 -0.6337 -0.3681  0.4737
 4239SOL    HW113006   3.156   5.734   2.235  1.5348  0.0932  1.0795
 4239SOL    HW213007   3.241   5.717   2.096  0.1014  0.8854  0.0789
 4240SOL     OW13008   3.076   5.515   1.953 -0.3558 -0.1463  0.2472
 4240SOL    HW113009   3.067   5.445   2.024 -0.2558 -1.1593 -0.7041
 4240SOL    HW213010   3.148   5.579   1.978  0.5274 -1.2100  0.4867
 4241SOL     OW13011   3.927   6.001   1.898 -0.3829  0.0097  0.0697
 4241SOL    HW113012   3.920   5.912   1.852 -2.8685 -0.6568  1.5543
 4241SOL    HW213013   3.903   5.990   1.994  1.3746  1.9705  0.8045
 4242SOL     OW13014   2.447   5.783   2.850 -0.2291  0.2744 -0.2064
 4242SOL    HW113015   2.421   5.809   2.757 -0.3706  2.1659  0.3205
 4242SOL    HW213016   2.372   5.734   2.893 -0.1863 -0.5628 -1.0406
 4243SOL     OW13017   2.350   5.933   2.236  0.0740 -0.1829 -0.5643
 4243SOL    HW113018   2.397   5.990   2.169 -1.3593 -0.7836 -2.1670
 4243SOL    HW213019   2.328   5.844   2.194 -1.0580 -0.4958  0.6195
 4244SOL     OW13020   3.096   5.746   2.830  0.1796  0.2205  0.4598
 4244SOL    HW113021   3.195   5.758   2.818  0.1916 -0.0283  0.2933
 4244SOL    HW213022   3.073   5.754   2.926  0.7259 -2.1847  0.8583
 4245SOL     OW13023   3.055   5.713   0.693  0.1012  0.1307 -0.8202
 4245SOL    HW113024   3.108   5.796   0.711 -1.0027  0.9718 -1.2898
 4245SOL    HW213025   3.045   5.661   0.777  0.8833  0.4176 -0.5324
 4246SOL     OW13026   2.590   0.239   4.288 -0.4097 -0.4350 -0.2293
 4246SOL    HW113027   2.644   0.254   4.371  0.6072  0.6396 -1.0518
 4246SOL    HW213028   2.548   0.325   4.259  0.2417 -0.5100 -1.4844
 4247SOL     OW13029   4.377   1.686   3.794  0.3425  0.4906 -0.5264
 4247SOL    HW113030   4.401   1.589   3.797 -0.9218  0.1566 -0.4764
 4247SOL    HW213031   4.300   1.702   3.856 -0.6445  1.1689 -1.8805
 4248SOL     OW13032   3.669   0.048   3.079 -0.3067 -0.2110 -0.0881
 4248SOL    HW113033   3.578   0.063   3.041 -0.4310 -2.1686 -0.6792
 4248SOL    HW213034   3.679  -0.048   3.104  1.7570 -0.1399 -0.4888
 4249SOL     OW13035   2.559   5.889   1.046  0.6162 -0.3409  0.9959
 4249SOL    HW113036   2.628   5.823   1.014  0.2344 -0.1324 -0.3459
 4249SOL    HW213037   2.523   5.939   0.967  0.4514  1.0476  1.9157
 4250SOL     OW13038   3.109   0.736   3.326 -0.3839  0.3899  0.4236
 4250SOL    HW113039   3.033   0.800   3.332 -0.0911  0.6679  1.4161
 4250SOL    HW213040   3.121   0.690   3.414  1.1688  1.0398  0.5868
 4251SOL     OW13041   3.601   4.497   3.500 -0.3102 -0.1064  0.3653
 4251SOL    HW113042   3.558   4.410   3.478  2.8108 -1.6093 -0.3505
 4251SOL    HW213043   3.628   4.498   3.597 -4.0377  1.9588  1.6270
 4252SOL     OW13044   2.536   5.152   2.934  0.3589 -0.1029  0.2744
 4252SOL    HW113045   2.631   5.157   2.965  0.5393 -0.3893 -0.2053
 4252SOL    HW213046   2.527   5.076   2.869  0.2438  1.0931 -1.1779
 4253SOL     OW13047   2.825   0.493   1.868 -0.7466  0.2640 -0.3038
 4253SOL    HW113048   2.752   0.531   1.812  0.0172  0.6015 -1.0986
 4253SOL    HW213049   2.865   0.565   1.925 -0.4570  0.2700 -0.5140
 4254SOL     OW13050   3.475   5.094   3.936  0.0674 -0.1152  0.1835
 4254SOL    HW113051   3.485   4.996   3.920  2.5919  0.0439  0.4315
 4254SOL    HW213052   3.483   5.113   4.033  1.1016  0.4515  0.0000
 4255SOL     OW13053   2.981   5.122   2.781 -0.4862 -0.8296  0.2958
 4255SOL    HW113054   3.055   5.176   2.821 -0.1641 -0.7259 -0.4273
 4255SOL    HW213055   2.896   5.174   2.784  0.0909  0.3167 -1.6398
 4256SOL     OW13056   1.027   4.994   4.449  0.1018  0.0309  0.5216
 4256SOL    HW113057   1.028   5.049   4.366 -1.0197 -0.9189 -0.1423
 4256SOL    HW213058   0.933   4.968   4.471  0.4717 -0.4495  1.6144
 4257SOL     OW13059   3.128   0.236   3.249  0.9762 -0.6742 -0.9681
 4257SOL    HW113060   3.186   0.309   3.285 -0.4051 -0.0258  0.0482
 4257SOL    HW213061   3.160   0.148   3.283  0.3560 -0.1693  1.0661
 4258SOL     OW13062   3.992   0.577   3.497  0.2710  0.0627 -0.0286
 4258SOL    HW113063   4.033   0.507   3.438  0.6015 -0.1734  0.4692
 4258SOL    HW213064   4.037   0.574   3.587 -0.2606  0.3783  0.2488
 4259SOL     OW13065   2.382   0.174   3.034  0.0893 -0.4487  0.3324
 4259SOL    HW113066   2.402   0.090   3.084 -1.8294 -2.6737 -2.2821
 4259SOL    HW213067   2.371   0.152   2.937 -4.5671  1.9773  0.0407
 4260SOL     OW13068   2.763   5.878   2.200 -0.0875 -0.1826  0.1899
 4260SOL    HW113069   2.763   5.863   2.299  2.5776  1.0065  0.4349
 4260SOL    HW213070   2.810   5.802   2.155 -0.3663 -0.1935 -0.0884
 4261SOL     OW13071   2.040   0.268   2.857  0.1703 -0.1945 -0.1804
 4261SOL    HW113072   1.968   0.273   2.788  1.2075 -0.7728 -1.3413
 4261SOL    HW213073   2.050   0.173   2.888  0.0415 -0.0179  0.4117
 4262SOL     OW13074   3.284   0.451   3.344 -0.0357  0.1519  0.3963
 4262SOL    HW113075   3.281   0.500   3.257 -0.0624 -1.2616 -0.4414
 4262SOL    HW213076   3.233   0.501   3.413 -2.2583  0.0497 -1.0704
 4263SOL     OW13077   4.436   5.605   0.681  0.2150  0.1224  0.0878
 4263SOL    HW113078   4.368   5.678   0.681 -1.7533 -1.6065  0.4893
 4263SOL    HW213079   4.427   5.552   0.597  0.6209 -0.5153  0.4383
 4264SOL     OW13080   4.081   5.608   2.701 -0.4198 -0.7563  0.5823
 4264SOL    HW113081   4.127   5.575   2.784  0.6777  0.0513  0.3215
 4264SOL    HW213082   4.015   5.678   2.726  0.6884  0.2857  0.7086
 4265SOL     OW13083   2.537   5.471   1.013  0.2228  0.2946  0.1220
 4265SOL    HW113084   2.476   5.532   0.961  0.7351  0.0519 -0.7888
 4265SOL    HW213085   2.503   5.462   1.106 -2.2269 -1.2821 -0.8146
 4266SOL     OW13086   2.157   5.857   3.123 -0.1568  0.0654  0.3478
 4266SOL    HW113087   2.101   5.877   3.204  0.0139 -1.1443  0.7818
 4266SOL    HW213088   2.253   5.878   3.143 -0.3933  2.0903 -0.3791
 4267SOL     OW13089   1.637   5.854   2.236  0.1019 -0.0306 -0.3093
 4267SOL    HW113090   1.681   5.909   2.306  0.5768  0.1458 -0.7365
 4267SOL    HW213091   1.549   5.895   2.210 -0.9134 -1.0186  1.3876
 4268SOL     OW13092   2.225   4.964   2.237 -0.7768  0.1923  0.0265
 4268SOL    HW113093   2.298   4.934   2.176 -0.7259 -0.5157  0.4250
 4268SOL    HW213094   2.179   5.044   2.197  2.1547  2.6271  1.1835
 4269SOL     OW13095   1.881   5.807   1.921 -0.0558 -0.5088 -0.3773
 4269SOL    HW113096   1.885   5.903   1.945  1.9467 -0.6780  0.1668
 4269SOL    HW213097   1.874   5.751   2.004  0.4483 -0.8770 -0.5741
 4270SOL     OW13098   4.101   5.829   4.255 -0.2185  0.2090  0.4340
 4270SOL    HW113099   4.094   5.733   4.283  3.6266  0.1711  1.8849
 4270SOL    HW213100   4.189   5.845   4.211 -0.4097  3.2429  0.9222
 4271SOL     OW13101   4.194   5.870   2.557  0.1722 -0.0533  0.3288
 4271SOL    HW113102   4.177   5.881   2.655  0.1414  1.1947  0.1967
 4271SOL    HW213103   4.146   5.789   2.523  0.4241 -0.6696  1.3919
 4272SOL     OW13104   4.147   0.528   2.798 -0.4259  0.3344 -0.1063
 4272SOL    HW113105   4.169   0.626   2.791  1.3278 -0.0287  0.0370
 4272SOL    HW213106   4.218   0.475   2.753 -0.2513 -0.9894  1.6599
 4273SOL     OW13107   2.398   4.854   2.052  0.3962 -0.1035 -0.1336
 4273SOL    HW113108   2.363   4.761   2.035  2.3183 -0.9032  0.0050
 4273SOL    HW213109   2.484   4.866   2.004  0.9840  1.0583  1.1437
 4274SOL     OW13110   3.346   5.644   1.979  0.2805 -0.3434 -0.1680
 4274SOL    HW113111   3.406   5.566   2.000  0.8346 -0.4146 -1.8584
 4274SOL    HW213112   3.400   5.717   1.939 -0.3832  0.6005  0.6262
 4275SOL     OW13113   2.551   5.328   2.246 -0.2128  0.1829 -0.8480
 4275SOL    HW113114   2.608   5.410   2.244 -1.6645  1.2295 -0.2701
 4275SOL    HW213115   2.528   5.305   2.340 -0.7352 -0.2448 -1.0716
 4276SOL     OW13116   3.604   5.384   1.770  0.3145 -0.0346  0.8739
 4276SOL    HW113117   3.575   5.437   1.849  2.2642 -0.0789  1.6918
 4276SOL    HW213118   3.628   5.446   1.695 -0.7928  0.0438  0.5719
 4277SOL     OW13119   2.581  -0.012   4.272  0.5529 -0.4554 -0.6000
 4277SOL    HW113120   2.644  -0.050   4.205  1.8306  1.2259 -0.4069
 4277SOL    HW213121   2.592   0.087   4.278  1.6081 -0.6286  3.1208
 4278SOL     OW13122   3.282   5.098   4.350 -0.1512  0.2148  0.4563
 4278SOL    HW113123   3.338   5.015   4.341 -0.4718  0.2273 -3.6020
 4278SOL    HW213124   3.195   5.074   4.393  0.6239 -1.0247  1.4326
 4279SOL     OW13125   3.042   5.984   3.839  0.3125  0.1384  0.0424
 4279SOL    HW113126   3.051   5.885   3.826 -0.0067  0.0493  0.4578
 4279SOL    HW213127   3.123   6.018   3.887 -0.1122 -0.1327  0.9811
 4280SOL     OW13128   2.674   1.276   5.019 -0.3801  0.0518 -0.3469
 4280SOL    HW113129   2.769   1.305   5.008  0.1594 -1.1473  0.8702
 4280SOL    HW213130   2.655   1.260   5.115 -0.9916 -2.2931 -0.7835
 4281SOL     OW13131   2.915   5.827   4.757 -0.0048 -0.9275  0.5639
 4281SOL    HW113132   2.947   5.738   4.724  0.1843 -0.8820  0.6218
 4281SOL    HW213133   2.816   5.831   4.751  0.0750 -0.4153 -1.3521
 4282SOL     OW13134   3.452   5.345   4.655  0.0844  0.0815 -0.6705
 4282SOL    HW113135   3.436   5.384   4.564 -0.1027  2.0935  0.1758
 4282SOL    HW213136   3.525   5.395   4.701 -0.0522 -0.6944  0.4345
 4283SOL     OW13137   1.479   5.031   4.397  0.4496  0.2874  0.1414
 4283SOL    HW113138   1.503   4.934   4.388 -1.8612 -0.2754 -0.7504
 4283SOL    HW213139   1.486   5.075   4.307  0.0207  0.5599  0.2396
 4284SOL     OW13140   0.752   4.770   4.841 -0.2371  0.2444  0.0185
 4284SOL    HW113141   0.802   4.687   4.868 -1.6215 -1.6412 -2.7948
 4284SOL    HW213142   0.817   4.846   4.832  1.3324 -0.8921  1.0713
 4285SOL     OW13143   1.219   0.374   4.247  0.2178  0.3274  0.2237
 4285SOL    HW113144   1.265   0.434   4.313 -1.2185  3.2207 -1.1735
 4285SOL    HW213145   1.265   0.381   4.158 -0.4275 -0.0306 -0.1463
 4286SOL     OW13146   3.337   4.519   4.365 -0.6165 -0.6212 -0.0822
 4286SOL    HW113147   3.428   4.514   4.323 -0.9182 -0.1409 -0.8140
 4286SOL    HW213148   3.273   4.562   4.301 -0.8881  1.0393  1.2253
 4287SOL     OW13149   3.735   5.169   5.380  0.2383  0.4255 -0.1108
 4287SOL    HW113150   3.689   5.244   5.334  1.9629  0.7465 -1.4456
 4287SOL    HW213151   3.832   5.193   5.393  1.3943 -2.2483 -2.4975
 4288SOL     OW13152   2.867   4.250   4.806 -0.0958 -0.5602  0.1208
 4288SOL    HW113153   2.774   4.276   4.778  0.0405  2.1313  1.8370
 4288SOL    HW213154   2.922   4.235   4.724 -1.4846 -0.0511 -0.9645
 4289SOL     OW13155   2.983   4.885   3.927  0.3298 -0.2993 -0.1384
 4289SOL    HW113156   3.001   4.918   3.834  1.2659  0.7939  0.4134
 4289SOL    HW213157   3.059   4.909   3.987 -1.1782  0.9147  1.3970
 4290SOL     OW13158   3.424   5.843   5.898  0.5527 -0.0798  0.1686
 4290SOL    HW113159   3.446   5.796   5.984  2.3602 -0.3551 -0.3927
 4290SOL    HW213160   3.431   5.778   5.822  0.3063  0.4643 -0.3277
 4291SOL     OW13161   3.228   5.978   4.453 -0.6088  0.2442  0.1560
 4291SOL    HW113162   3.132   5.992   4.476 -0.6502  2.0699 -0.9143
 4291SOL    HW213163   3.275   5.935   4.529 -1.6434  2.0533  1.9206
 4292SOL     OW13164   4.804   4.446   5.533 -0.4537  0.2223  0.1109
 4292SOL    HW113165   4.812   4.348   5.516 -0.1185  0.1976  0.4007
 4292SOL    HW213166   4.723   4.481   5.486 -0.3015 -0.0967 -0.3979
 4293SOL     OW13167   3.447   0.754   5.395  0.6077  0.5246  0.3455
 4293SOL    HW113168   3.401   0.695   5.329  0.1671  1.8584 -0.6038
 4293SOL    HW213169   3.515   0.702   5.447  1.3655 -0.4442 -1.5460
 4294SOL     OW13170   1.119   5.268   3.149  0.5674  0.0271 -0.3896
 4294SOL    HW113171   1.199   5.329   3.153  0.3503  0.3662 -1.1727
 4294SOL    HW213172   1.112   5.229   3.057  0.2199 -0.5327 -0.1263
 4295SOL     OW13173   0.843   4.691   0.154  0.0049 -0.2216  0.3893
 4295SOL    HW113174   0.859   4.668   0.059 -2.3815  1.4767 -0.5233
 4295SOL    HW213175   0.784   4.772   0.160 -2.3569 -1.9239  3.2510
 4296SOL     OW13176   2.052   0.962   5.165 -0.2538 -0.0344 -0.6236
 4296SOL    HW113177   2.093   0.872   5.154 -2.7362 -1.1880 -1.3384
 4296SOL    HW213178   2.069   0.996   5.258  1.4762 -0.7915 -0.6308
 4297SOL     OW13179   2.968   5.633   5.210  0.1831  0.5135  0.1178
 4297SOL    HW113180   2.970   5.672   5.118  1.3345 -0.6338 -0.3746
 4297SOL    HW213181   3.046   5.571   5.222 -1.2350 -1.1715  1.0476
 4298SOL     OW13182   2.386   5.088   3.812 -0.7231 -0.3707  0.0200
 4298SOL    HW113183   2.425   5.000   3.788 -1.1474 -0.4856 -0.2540
 4298SOL    HW213184   2.394   5.102   3.911  0.3423 -0.2238 -0.0805
 4299SOL     OW13185   2.991   5.694   4.372 -0.5597 -0.6930 -0.0739
 4299SOL    HW113186   2.918   5.760   4.358 -0.5266 -0.6056  0.1543
 4299SOL    HW213187   2.988   5.660   4.466  0.9979  0.9263  0.6286
 4300SOL     OW13188   3.026   1.286   4.559  0.3282  0.4334 -0.4470
 4300SOL    HW113189   3.091   1.325   4.623  1.0920  0.7747 -1.4130
 4300SOL    HW213190   2.953   1.239   4.610  0.8275  0.8253  0.6562
 4301SOL     OW13191   3.947   5.741   4.482  0.5842 -0.1377 -0.2084
 4301SOL    HW113192   4.008   5.661   4.488  0.0267 -0.5131  0.5151
 4301SOL    HW213193   3.977   5.798   4.406  3.9595  1.4420  2.0235
 4302SOL     OW13194   1.398   5.767   5.821 -1.3106  0.3933 -0.6427
 4302SOL    HW113195   1.343   5.725   5.749  0.3035 -1.5805 -0.8138
 4302SOL    HW213196   1.490   5.784   5.787 -0.6162 -0.2267  0.8083
 4303SOL     OW13197   2.551   0.756   4.847  0.1894  0.6511 -0.0941
 4303SOL    HW113198   2.619   0.683   4.841  1.2170  1.6662 -1.3222
 4303SOL    HW213199   2.466   0.718   4.884  0.6494 -1.1924 -0.7881
 4304SOL     OW13200   2.698   0.279   4.546  0.0297 -0.9060 -0.4486
 4304SOL    HW113201   2.663   0.251   4.635  0.0500 -1.3032 -0.5624
 4304SOL    HW213202   2.782   0.332   4.558 -1.2167  1.0747 -0.1090
 4305SOL     OW13203   2.046   5.770   4.440 -0.0204 -0.0102  0.2874
 4305SOL    HW113204   2.026   5.862   4.474  1.4358  0.1270  0.8884
 4305SOL    HW213205   2.022   5.764   4.343  2.3287  1.9287 -0.5372
 4306SOL     OW13206   3.758   0.097   4.597  0.0353  0.0628  0.0183
 4306SOL    HW113207   3.720   0.176   4.643  0.1761  0.8975 -1.2482
 4306SOL    HW213208   3.857   0.109   4.585  0.0755 -0.3459 -0.0959
 4307SOL     OW13209   1.777   0.089   4.522 -0.2597  0.0072 -0.0142
 4307SOL    HW113210   1.824   0.023   4.581  0.4743  1.7314  1.4052
 4307SOL    HW213211   1.808   0.075   4.427 -0.3728 -1.8531  0.1743
 4308SOL     OW13212   3.815   5.644   4.084 -0.4808  0.0897 -0.8690
 4308SOL    HW113213   3.837   5.686   3.996 -0.6258 -0.0038 -0.9494
 4308SOL    HW213214   3.726   5.677   4.115  0.1371  1.1536 -0.1266
 4309SOL     OW13215   4.165   5.084   4.688 -0.1842 -0.0283  0.3773
 4309SOL    HW113216   4.223   5.003   4.689 -1.6333 -1.1239  0.0462
 4309SOL    HW213217   4.071   5.058   4.710 -0.9934  1.3207 -1.2358
 4310SOL     OW13218   2.418   5.151   4.076 -0.2239  0.3272 -0.3418
 4310SOL    HW113219   2.377   5.205   4.149  0.0821  1.5093 -1.0151
 4310SOL    HW213220   2.497   5.199   4.039 -1.8345  1.0670 -3.1580
 4311SOL     OW13221   3.215   0.837   4.130 -0.4074  0.3857  0.3475
 4311SOL    HW113222   3.117   0.840   4.108 -0.2696  0.6511 -0.2665
 4311SOL    HW213223   3.234   0.759   4.189 -0.4459 -2.0290 -2.5458
 4312SOL     OW13224   3.673   5.086   5.655 -0.4573 -0.9505  0.1798
 4312SOL    HW113225   3.695   5.085   5.558  0.2303  0.3467  0.2994
 4312SOL    HW213226   3.576   5.064   5.668 -0.7306 -0.4071 -0.8557
 4313SOL     OW13227   2.476   0.829   4.587 -0.4925  0.0762  0.2221
 4313SOL    HW113228   2.531   0.814   4.670 -1.5824  1.8209  1.3168
 4313SOL    HW213229   2.438   0.742   4.557  0.7229 -0.7514  0.9633
 4314SOL     OW13230   2.227   4.743   4.069 -0.1242  0.5222  0.1789
 4314SOL    HW113231   2.160   4.764   4.140 -0.5877  0.5401 -0.2562
 4314SOL    HW213232   2.233   4.644   4.057 -1.9559  0.5496 -1.5139
 4315SOL     OW13233   2.869   5.376   4.071 -0.0311  0.4250  0.1765
 4315SOL    HW113234   2.922   5.448   4.026 -0.5803  0.8304  0.1689
 4315SOL    HW213235   2.926   5.294   4.080  0.5286  0.7821 -0.0165
 4316SOL     OW13236   1.937   0.410   4.902  0.0640  0.1331 -0.3927
 4316SOL    HW113237   1.978   0.368   4.983  0.4394  0.8408 -0.2103
 4316SOL    HW213238   1.962   0.358   4.821  2.7479  1.4582 -0.5163
 4317SOL     OW13239   4.991   5.717   4.682  0.3942  0.9294  0.0160
 4317SOL    HW113240   4.953   5.749   4.595  1.6744 -1.0130 -1.3361
 4317SOL    HW213241   4.916   5.699   4.746 -0.6128  1.8721 -0.8363
 4318SOL     OW13242   2.039   5.916   5.547  0.1107 -0.4099 -0.4086
 4318SOL    HW113243   2.116   5.869   5.503 -0.1553 -1.2433 -0.0226
 4318SOL    HW213244   1.978   5.847   5.587 -0.9936  0.2266 -0.9778
 4319SOL     OW13245   3.519   5.762   3.292 -0.3653  0.2703  0.1197
 4319SOL    HW113246   3.599   5.776   3.350  0.2717  0.5795 -0.8120
 4319SOL    HW213247   3.438   5.796   3.339  0.2112  0.9934  0.6245
 4320SOL     OW13248   1.917   0.147   3.230  0.2476 -0.2756 -0.3351
 4320SOL    HW113249   1.872   0.212   3.292 -1.3141 -1.2013 -0.4288
 4320SOL    HW213250   2.012   0.174   3.215  0.0904  1.0570  0.9082
 4321SOL     OW13251   3.036   5.779   4.999 -0.1766 -0.6287 -0.3019
 4321SOL    HW113252   2.992   5.790   4.910  0.0504  0.6476 -0.2794
 4321SOL    HW213253   3.014   5.859   5.057 -0.7554 -1.6700  0.9808
 4322SOL     OW13254   3.653   5.413   4.842  0.2808  0.2930 -0.7150
 4322SOL    HW113255   3.715   5.381   4.769 -0.4065 -0.7864 -0.8572
 4322SOL    HW213256   3.663   5.354   4.922  1.6415  1.9777  0.4186
 4323SOL     OW13257   3.615   0.033   5.805  0.1704  0.6816  0.0163
 4323SOL    HW113258   3.545  -0.035   5.827  0.8627  0.4438  1.5698
 4323SOL    HW213259   3.698   0.014   5.856  0.7377  2.0930 -0.3293
 4324SOL     OW13260   4.636   1.387   0.821  0.4015 -0.1683 -0.3021
 4324SOL    HW113261   4.563   1.439   0.776  0.1286  0.0981  0.4380
 4324SOL    HW213262   4.607   1.293   0.834  0.4038 -0.1968 -0.5001
 4325SOL     OW13263   2.326   5.281   4.299 -0.1943 -0.0161 -0.1752
 4325SOL    HW113264   2.345   5.349   4.370  1.1116 -0.5911  0.0599
 4325SOL    HW213265   2.253   5.220   4.329 -0.6325  0.6089  0.0591
 4326SOL     OW13266   3.742   4.755   5.784  0.3781 -0.1671  0.0149
 4326SOL    HW113267   3.719   4.819   5.857  1.3168  0.0520  0.1352
 4326SOL    HW213268   3.812   4.691   5.816 -1.5818 -2.2749  0.4072
 4327SOL     OW13269   1.910   5.501   4.203  0.5640  0.1301 -0.2636
 4327SOL    HW113270   1.900   5.432   4.275  0.3996  0.1391 -0.2780
 4327SOL    HW213271   2.006   5.505   4.175  0.4299 -0.7108 -0.8856
 4328SOL     OW13272   0.905   0.150   4.536  0.2095  0.8753 -0.0726
 4328SOL    HW113273   0.846   0.127   4.458 -0.3135 -2.4693  1.1744
 4328SOL    HW213274   0.998   0.118   4.518 -0.0402 -0.4297  0.8474
 4329SOL     OW13275   3.436   0.556   0.320  0.4207 -0.1995 -0.0219
 4329SOL    HW113276   3.401   0.645   0.294 -0.0214 -0.6822 -1.1339
 4329SOL    HW213277   3.497   0.521   0.248  0.1366 -1.0391  0.1302
 4330SOL     OW13278   4.080   0.277   3.769 -0.1618  0.1985 -0.3110
 4330SOL    HW113279   4.120   0.366   3.747 -0.6015  0.9752  1.8277
 4330SOL    HW213280   3.981   0.287   3.779 -0.3628 -0.7865 -1.0741
 4331SOL     OW13281   1.274   5.877   4.704  0.1293  0.1668 -0.2460
 4331SOL    HW113282   1.293   5.973   4.685  1.6473  0.1583  1.0137
 4331SOL    HW213283   1.305   5.821   4.628 -0.0541  0.6024 -0.6517
 4332SOL     OW13284   2.292   5.891   0.575  0.3187 -0.0168 -0.1498
 4332SOL    HW113285   2.331   5.805   0.544  1.5856  1.0089 -1.5768
 4332SOL    HW213286   2.238   5.876   0.658 -0.4486 -2.3416 -0.9966
 4333SOL     OW13287   2.323   0.600   4.470  0.2678  0.0395  0.0341
 4333SOL    HW113288   2.389   0.526   4.458 -0.7468 -1.1219  1.2898
 4333SOL    HW213289   2.235   0.574   4.431  0.1581  1.0108 -0.4069
 4334SOL     OW13290   1.726   0.265   0.369 -0.0096  0.2100 -0.0930
 4334SOL    HW113291   1.683   0.356   0.377 -0.4322  0.0700 -0.7144
 4334SOL    HW213292   1.741   0.244   0.273 -0.6322 -0.7129  0.0071
 4335SOL     OW13293   2.500   4.961   4.668  0.3233 -0.0988  0.4011
 4335SOL    HW113294   2.517   4.935   4.763  2.1629  0.9150  0.3894
 4335SOL    HW213295   2.451   5.048   4.666  2.0876  0.9466  0.4765
 4336SOL     OW13296   4.049   1.240   0.770 -0.5232  0.3408  0.0631
 4336SOL    HW113297   3.958   1.272   0.744 -2.4919 -2.6250  2.6811
 4336SOL    HW213298   4.063   1.147   0.736  0.2067 -0.4124  2.2737
 4337SOL     OW13299   4.645   0.017   0.324 -0.1023 -0.7632  0.2603
 4337SOL    HW113300   4.577   0.071   0.374 -0.4767 -0.2078 -0.8060
 4337SOL    HW213301   4.703  -0.032   0.389 -1.2811 -0.9572  1.2086
 4338SOL     OW13302   3.195   0.476   0.965 -0.2190 -0.2369 -0.6335
 4338SOL    HW113303   3.237   0.386   0.979 -1.3271 -0.7635 -0.5491
 4338SOL    HW213304   3.224   0.538   1.037  0.1658 -0.6743 -0.4050
 4339SOL     OW13305   5.287   2.178   2.176  0.5940 -0.0417  0.5196
 4339SOL    HW113306   5.340   2.095   2.163 -0.2485 -1.1827  3.4345
 4339SOL    HW213307   5.317   2.224   2.260  0.6627  2.3378 -0.7266
 4340SOL     OW13308   5.151   1.637   1.254 -0.4333 -0.1644 -0.9554
 4340SOL    HW113309   5.058   1.670   1.269  0.0683  1.3241 -0.9331
 4340SOL    HW213310   5.216   1.710   1.273  0.9711 -1.9703  1.9357
 4341SOL     OW13311   3.842   2.475   0.136 -0.0931 -0.8940  0.4076
 4341SOL    HW113312   3.748   2.503   0.117  0.5827  0.7097 -0.7799
 4341SOL    HW213313   3.875   2.416   0.063  0.0053 -1.0142  0.5472
 4342SOL     OW13314   5.701   0.431   0.788  0.1751  0.0023 -0.0672
 4342SOL    HW113315   5.720   0.334   0.776  1.5680  0.0063  1.6914
 4342SOL    HW213316   5.787   0.482   0.795 -0.5195  1.1659  0.4626
 4343SOL     OW13317   3.293   1.183   0.657 -0.0529  0.1584  0.0152
 4343SOL    HW113318   3.319   1.103   0.711 -1.7898 -1.4145 -1.3311
 4343SOL    HW213319   3.199   1.208   0.678 -0.1643  0.6193 -0.9730
 4344SOL     OW13320   4.101   0.871   1.232  0.2784  0.2953  0.8309
 4344SOL    HW113321   4.157   0.929   1.292  0.5992  0.4338  0.4004
 4344SOL    HW213322   4.111   0.775   1.260  1.5610  0.2015  0.1170
 4345SOL     OW13323   5.206   1.098   0.836 -0.8322  0.7938  0.3191
 4345SOL    HW113324   5.110   1.125   0.834 -0.7546  1.0594 -0.2845
 4345SOL    HW213325   5.251   1.139   0.915 -1.4438 -0.1817  1.2005
 4346SOL     OW13326   4.203   0.881   2.559 -0.3181  0.6549 -0.4717
 4346SOL    HW113327   4.295   0.843   2.558 -0.7215 -0.4279  0.6328
 4346SOL    HW213328   4.165   0.875   2.651 -0.7725  2.9377 -0.4625
 4347SOL     OW13329   4.810   1.252   1.506 -0.2711  0.0526  0.1537
 4347SOL    HW113330   4.893   1.254   1.562 -2.2644  4.6186  3.6620
 4347SOL    HW213331   4.818   1.320   1.433 -0.8925  0.6397  0.6147
 4348SOL     OW13332   4.969   1.041   1.946  0.1509  0.3678 -0.4325
 4348SOL    HW113333   4.891   0.980   1.960  0.5619 -0.0109  0.2531
 4348SOL    HW213334   4.983   1.055   1.848  0.4034 -1.1248 -0.6347
 4349SOL     OW13335   4.433   1.132   0.413 -0.1115  0.1816  0.8930
 4349SOL    HW113336   4.394   1.185   0.488 -1.9225  1.3753 -0.8086
 4349SOL    HW213337   4.398   1.038   0.417  1.0786 -0.2571  2.4021
 4350SOL     OW13338   5.178   0.916   5.659 -0.0390 -0.2306 -0.1409
 4350SOL    HW113339   5.110   0.958   5.718  1.2683 -1.0678  2.0822
 4350SOL    HW213340   5.242   0.861   5.714  2.4388  0.5035 -2.0591
 4351SOL     OW13341   3.185   1.622   1.662  0.1818 -0.2472  0.6177
 4351SOL    HW113342   3.283   1.642   1.663  0.3443 -1.0128  0.9553
 4351SOL    HW213343   3.171   1.524   1.676 -0.6992  0.1530  2.9647
 4352SOL     OW13344   4.480   1.524   1.915 -0.2003 -0.2012  0.1900
 4352SOL    HW113345   4.542   1.479   1.852  0.8091 -0.5016  1.3716
 4352SOL    HW213346   4.427   1.593   1.866 -0.1900 -1.1416 -1.1810
 4353SOL     OW13347   4.347   0.090   0.703  0.4903  0.2226 -0.1533
 4353SOL    HW113348   4.283   0.165   0.720  1.5116  1.3201 -0.9979
 4353SOL    HW213349   4.418   0.090   0.773  1.2589  0.9289 -0.9082
 4354SOL     OW13350   3.564   1.026   1.590  0.0961  0.4687 -0.3651
 4354SOL    HW113351   3.571   0.968   1.672 -0.1913  2.6238  1.2754
 4354SOL    HW213352   3.473   1.015   1.550  1.2013 -2.9200 -2.3399
 4355SOL     OW13353   3.320   1.198   2.331 -0.2272 -0.0353 -0.2114
 4355SOL    HW113354   3.383   1.251   2.388  0.9911 -1.3896 -0.2527
 4355SOL    HW213355   3.370   1.158   2.255 -1.6696  1.0439 -1.8121
 4356SOL     OW13356   5.327   5.827   0.255 -0.3551 -0.5540  0.3883
 4356SOL    HW113357   5.397   5.891   0.221 -0.0366 -1.2361 -0.2516
 4356SOL    HW213358   5.236   5.862   0.232 -0.1930 -0.2075  0.2643
 4357SOL     OW13359   5.188   0.588   1.113  0.3836  0.1292 -0.0312
 4357SOL    HW113360   5.199   0.524   1.037  0.1413  0.2868 -0.2024
 4357SOL    HW213361   5.276   0.629   1.135 -0.1194  3.4818 -3.2209
 4358SOL     OW13362   4.722   0.257   5.272 -0.2554  0.4962  0.0702
 4358SOL    HW113363   4.689   0.334   5.326 -1.6568 -0.9098  1.3197
 4358SOL    HW213364   4.751   0.183   5.333 -0.6585 -0.6467 -1.0662
 4359SOL     OW13365   4.411   2.741   1.031 -0.3866  0.3941  0.1119
 4359SOL    HW113366   4.424   2.644   1.008 -0.1237  0.0907  1.4262
 4359SOL    HW213367   4.359   2.786   0.959  0.1436 -0.5483 -0.8929
 4360SOL     OW13368   3.282   1.330   1.056 -0.3595 -0.1582  0.5454
 4360SOL    HW113369   3.182   1.324   1.049 -0.2044 -1.2952 -2.1396
 4360SOL    HW213370   3.319   1.243   1.087 -0.1756  0.2187  1.4035
 4361SOL     OW13371   5.080   0.820   1.059 -0.2394  0.3434  0.7124
 4361SOL    HW113372   5.116   0.729   1.081  0.9869  0.6321  0.0198
 4361SOL    HW213373   5.144   0.890   1.092 -1.7379  1.0222  2.2709
 4362SOL     OW13374   0.680   2.801   0.354 -0.1139  0.2986  0.4810
 4362SOL    HW113375   0.586   2.831   0.344 -0.1595  0.3742  1.1288
 4362SOL    HW213376   0.690   2.709   0.314 -1.0214 -0.7216  2.4573
 4363SOL     OW13377   2.982   0.402   2.772 -0.7251 -0.2101 -0.6052
 4363SOL    HW113378   2.899   0.351   2.796  0.2920 -1.6951 -0.1480
 4363SOL    HW213379   3.056   0.378   2.835 -0.0062  1.3073 -0.8362
 4364SOL     OW13380   4.760   0.407   0.384 -0.3310  0.0304  0.7512
 4364SOL    HW113381   4.814   0.491   0.371  0.6246 -0.7270 -0.4225
 4364SOL    HW213382   4.692   0.399   0.311 -1.1307  0.2953  1.4567
 4365SOL     OW13383   5.609   1.592   1.945  0.0481 -0.2323 -0.7087
 4365SOL    HW113384   5.696   1.629   1.914  0.1473 -0.2401 -0.4437
 4365SOL    HW213385   5.591   1.505   1.899  0.5959 -0.6603 -0.1237
 4366SOL     OW13386   5.200   0.059   1.020 -0.6483  0.0897  0.1332
 4366SOL    HW113387   5.227   0.041   0.925 -1.4335  0.9918 -0.2808
 4366SOL    HW213388   5.211  -0.024   1.074  0.0907 -0.3557 -0.6812
 4367SOL     OW13389   3.517   0.618   2.667 -0.5353 -0.0210 -0.3672
 4367SOL    HW113390   3.488   0.564   2.588  0.5981  0.0486 -0.8530
 4367SOL    HW213391   3.545   0.557   2.741  1.1353 -0.1565 -1.0590
 4368SOL     OW13392  -0.016   1.234   0.837 -0.2886  0.0580 -0.1544
 4368SOL    HW113393  -0.061   1.304   0.892  0.6424 -1.3845  2.6484
 4368SOL    HW213394   0.083   1.241   0.848 -0.1900 -2.3596  1.2359
 4369SOL     OW13395   5.680   2.074   0.525  0.3148 -0.0951  0.1580
 4369SOL    HW113396   5.720   2.155   0.566 -1.5505 -0.0377  2.0003
 4369SOL    HW213397   5.582   2.086   0.516  0.2273 -1.5040 -1.1472
 4370SOL     OW13398   3.885   0.486   0.365  0.5122 -0.1525  0.3335
 4370SOL    HW113399   3.864   0.512   0.459  0.9282  0.8808  0.1499
 4370SOL    HW213400   3.984   0.495   0.349  0.1449  2.5164 -1.0046
 4371SOL     OW13401   4.284   1.654   1.177 -0.7039  0.1599 -0.6600
 4371SOL    HW113402   4.185   1.649   1.191 -0.6822  1.9572  0.6058
 4371SOL    HW213403   4.327   1.695   1.258  0.6970  2.1688 -2.2898
 4372SOL     OW13404   5.752   1.917   0.896  0.1112  0.4383 -0.7459
 4372SOL    HW113405   5.810   1.945   0.972  0.5626 -0.5932 -0.6990
 4372SOL    HW213406   5.661   1.958   0.907  0.3215  0.7018  0.0728
 4373SOL     OW13407   4.302   0.752   1.020  0.3035 -0.2770 -0.2078
 4373SOL    HW113408   4.396   0.783   1.028  0.5959 -0.5661 -1.9906
 4373SOL    HW213409   4.249   0.784   1.098  1.6891  0.5584  0.4237
 4374SOL     OW13410   5.472   1.995   0.994 -0.2495  0.2666  0.7080
 4374SOL    HW113411   5.528   1.966   1.072  0.3357 -0.1620  0.1358
 4374SOL    HW213412   5.375   1.985   1.017 -0.0690 -1.1599  0.8977
 4375SOL     OW13413   5.498   5.941   5.359 -0.4300  0.5217 -0.1926
 4375SOL    HW113414   5.453   5.882   5.292 -0.4451  1.6054 -1.1673
 4375SOL    HW213415   5.577   5.986   5.316  0.7490 -0.2504  1.0788
 4376SOL     OW13416   3.914   1.108   3.019  0.3850 -0.2892 -0.1030
 4376SOL    HW113417   3.915   1.008   3.026 -1.5670 -0.4605 -1.4303
 4376SOL    HW213418   3.825   1.143   3.048  1.0536  1.0915  0.3824
 4377SOL     OW13419   5.091   1.636   2.204 -0.5020  0.4514  0.0304
 4377SOL    HW113420   5.006   1.587   2.184 -1.2802  1.0219  1.7399
 4377SOL    HW213421   5.070   1.723   2.249  0.9506  1.2743 -0.7992
 4378SOL     OW13422   4.692   0.742   0.125  0.6784  0.5078  0.3412
 4378SOL    HW113423   4.622   0.713   0.060  0.6829  3.6151 -1.2331
 4378SOL    HW213424   4.767   0.786   0.075  0.9352  2.5450  2.3952
 4379SOL     OW13425   5.171   5.492   0.487 -0.4518 -0.1013 -0.2010
 4379SOL    HW113426   5.211   5.454   0.571  0.6573  1.9938  0.2771
 4379SOL    HW213427   5.071   5.488   0.492 -0.4989  2.0435  2.2846
 4380SOL     OW13428   4.201   2.105   1.105  0.0323 -0.0291  0.1303
 4380SOL    HW113429   4.160   2.050   1.178  2.2571 -0.2679  1.2956
 4380SOL    HW213430   4.202   2.053   1.020 -2.1480  0.0560  0.0003
 4381SOL     OW13431   2.697   0.614   2.185 -0.7140 -0.1135 -0.0433
 4381SOL    HW113432   2.782   0.651   2.149 -0.8894  0.2177 -0.1238
 4381SOL    HW213433   2.654   0.682   2.245 -0.0025 -0.9648  1.4940
 4382SOL     OW13434   3.737   5.384   5.945 -0.3673  0.2108 -0.0089
 4382SOL    HW113435   3.725   5.355   5.850 -0.6390  0.3111 -0.0073
 4382SOL    HW213436   3.830   5.363   5.975  0.2739  1.7076 -0.8286
 4383SOL     OW13437   5.077   2.788   2.242  0.0983  0.0048  0.0517
 4383SOL    HW113438   5.062   2.820   2.336 -2.9228 -0.3493 -0.1944
 4383SOL    HW213439   5.127   2.857   2.190  0.9058  0.6549  1.6323
 4384SOL     OW13440   4.715   0.257   5.692  0.1915 -0.6733  0.1148
 4384SOL    HW113441   4.729   0.345   5.736 -2.3502 -0.7223  1.2271
 4384SOL    HW213442   4.722   0.184   5.760 -0.7089 -1.0268 -0.1477
 4385SOL     OW13443   4.809   5.844   0.529 -0.5355  0.2251 -0.0489
 4385SOL    HW113444   4.778   5.774   0.465  1.3872  0.0515 -0.8744
 4385SOL    HW213445   4.908   5.857   0.518 -0.1144  0.2057  2.8962
 4386SOL     OW13446   5.414   5.804   5.136 -0.4516  0.0138  0.1430
 4386SOL    HW113447   5.358   5.726   5.109  0.2739 -0.2710 -0.5841
 4386SOL    HW213448   5.510   5.785   5.116 -0.0552  0.4422  1.4603
 4387SOL     OW13449   3.845   0.863   5.560 -0.1956 -0.2465  0.0803
 4387SOL    HW113450   3.795   0.786   5.522 -0.1554  0.3306 -1.2094
 4387SOL    HW213451   3.935   0.869   5.516 -0.9002  1.6024 -1.2512
 4388SOL     OW13452   0.865   1.011   0.880 -0.3850 -0.1282  0.0201
 4388SOL    HW113453   0.809   1.025   0.962  0.0064  0.9859  0.1168
 4388SOL    HW213454   0.953   0.971   0.907 -0.0672  0.6775  0.2271
 4389SOL     OW13455   5.412   2.206   0.428 -0.3605  1.3266  0.8655
 4389SOL    HW113456   5.332   2.229   0.373 -1.0104  0.8693  1.5894
 4389SOL    HW213457   5.464   2.289   0.446  1.2659  1.1818 -2.4734
 4390SOL     OW13458   4.455   2.197   1.055  0.2888 -0.3987 -0.1444
 4390SOL    HW113459   4.383   2.137   1.088  2.0244 -2.5649 -0.0662
 4390SOL    HW213460   4.535   2.143   1.030  0.5937  1.4815 -3.9954
 4391SOL     OW13461   0.224   5.788   5.580  0.0544  0.4064  0.4564
 4391SOL    HW113462   0.310   5.827   5.546  0.2992  0.2245  0.8626
 4391SOL    HW213463   0.185   5.727   5.511  0.7848 -0.3223  0.6794
 4392SOL     OW13464   4.878   1.724   1.319 -0.4683 -0.0931  0.2647
 4392SOL    HW113465   4.881   1.811   1.367 -1.2355  2.0478 -3.1817
 4392SOL    HW213466   4.802   1.669   1.353 -1.9302  1.9681  0.4871
 4393SOL     OW13467   4.432   2.503   5.071 -0.1645  0.1875  0.2977
 4393SOL    HW113468   4.374   2.499   4.990  1.0645 -0.9468 -0.5578
 4393SOL    HW213469   4.422   2.419   5.124  0.8151 -0.0988  0.0444
 4394SOL     OW13470   3.444   0.683   1.950  0.1682 -0.3419 -0.5484
 4394SOL    HW113471   3.500   0.666   2.031 -1.1778 -1.7514  0.1363
 4394SOL    HW213472   3.452   0.779   1.924  1.8587 -0.2225  0.2964
 4395SOL     OW13473   0.491   1.951   0.492  0.1553  0.0568  0.0590
 4395SOL    HW113474   0.405   1.990   0.458 -0.3870 -0.1615  1.1177
 4395SOL    HW213475   0.493   1.853   0.470 -0.0218 -0.0063  0.3185
 4396SOL     OW13476   5.359   1.837   1.425  0.3387  0.5460 -0.1944
 4396SOL    HW113477   5.333   1.918   1.476  0.7704  0.3913  0.2808
 4396SOL    HW213478   5.340   1.755   1.480 -1.0326  0.2452 -1.0467
 4397SOL     OW13479   3.973   4.355   0.610  0.1705 -0.1247  0.1655
 4397SOL    HW113480   3.916   4.363   0.692 -0.6826  0.8283 -0.5011
 4397SOL    HW213481   4.007   4.446   0.584 -0.3533 -0.2562 -1.0685
 4398SOL     OW13482   3.411   2.415   1.433  0.3056 -0.2686 -0.3368
 4398SOL    HW113483   3.342   2.395   1.363  1.1736  0.3872 -1.4269
 4398SOL    HW213484   3.501   2.387   1.399  0.6026 -1.0498  1.0331
 4399SOL     OW13485   3.906   2.300   5.933  0.0001 -0.2425 -0.4589
 4399SOL    HW113486   3.995   2.258   5.945  0.0680  0.2877  1.1505
 4399SOL    HW213487   3.849   2.243   5.873  1.1752 -0.9086 -0.9640
 4400SOL     OW13488   4.061   5.935   0.884  0.3890  0.2234  0.1925
 4400SOL    HW113489   4.079   5.990   0.965  1.4035  0.1343  0.0390
 4400SOL    HW213490   3.979   5.970   0.837 -1.6161 -1.1182  2.4619
 4401SOL     OW13491   5.529   5.849   2.601 -0.0569  0.1280 -0.2187
 4401SOL    HW113492   5.456   5.811   2.545  0.4408 -2.5622  0.8049
 4401SOL    HW213493   5.545   5.944   2.575 -2.1426  0.0164 -2.2147
 4402SOL     OW13494   4.370   0.540   0.418 -0.2442  0.1792  0.1597
 4402SOL    HW113495   4.441   0.610   0.411  0.6644 -0.7684 -0.6003
 4402SOL    HW213496   4.341   0.530   0.513  0.2949  0.9296  0.4047
 4403SOL     OW13497   2.653   5.603   0.468  0.1303 -0.1194 -0.3966
 4403SOL    HW113498   2.703   5.689   0.477  0.0932 -0.2472  1.2280
 4403SOL    HW213499   2.652   5.575   0.372  3.4864 -0.2930 -0.4909
 4404SOL     OW13500   5.889   0.314   1.898 -0.0175 -0.2683 -0.0766
 4404SOL    HW113501   5.915   0.257   1.821 -0.0796 -0.6850  0.2045
 4404SOL    HW213502   5.849   0.256   1.970 -0.1371  0.1372  0.1854
 4405SOL     OW13503   5.069   0.179   1.759  0.2486  0.5232 -0.2073
 4405SOL    HW113504   5.068   0.275   1.733 -1.6134  0.9175  1.1507
 4405SOL    HW213505   5.079   0.172   1.859  1.8154 -0.7661 -0.4070
 4406SOL     OW13506   4.107   1.277   0.041  0.1108 -0.0853 -0.1227
 4406SOL    HW113507   4.077   1.349  -0.022 -0.3079  0.2616  0.4660
 4406SOL    HW213508   4.186   1.309   0.093  0.9958 -0.6857 -1.0645
 4407SOL     OW13509   3.778   1.335   0.784 -0.3276 -0.1092 -0.0526
 4407SOL    HW113510   3.800   1.370   0.875 -1.4469 -1.1267  0.6277
 4407SOL    HW213511   3.723   1.251   0.792 -1.3272  0.3469 -1.6653
 4408SOL     OW13512   4.829   0.382   1.242 -0.6243  0.4688 -0.4221
 4408SOL    HW113513   4.871   0.328   1.169  0.5457  1.6166 -0.6378
 4408SOL    HW213514   4.754   0.437   1.204 -0.2113  0.8370 -0.7257
 4409SOL     OW13515   5.193   0.572   0.704  0.2049 -0.3379  0.1910
 4409SOL    HW113516   5.252   0.521   0.642  3.5649  0.4098  2.5090
 4409SOL    HW213517   5.214   0.670   0.697  0.4523 -0.2049  2.2027
 4410SOL     OW13518   3.659   4.020   1.115  0.1895  0.4036  0.2619
 4410SOL    HW113519   3.726   4.091   1.136  1.6801 -1.0259  0.5708
 4410SOL    HW213520   3.686   3.973   1.031  1.1108 -1.8958  1.7424
 4411SOL     OW13521   5.398   5.487   5.197 -0.0180  0.3268  0.2369
 4411SOL    HW113522   5.389   5.506   5.099 -0.5974 -1.2520 -0.0404
 4411SOL    HW213523   5.492   5.507   5.226  1.1509 -2.2734 -1.4002
 4412SOL     OW13524   4.782   0.853   1.909 -0.2351  0.1514  0.2094
 4412SOL    HW113525   4.715   0.807   1.851 -0.0205 -0.3741  0.3660
 4412SOL    HW213526   4.735   0.901   1.983 -0.4923  0.6153 -0.2559
 4413SOL     OW13527   5.840   2.696   1.139 -0.1053  0.5633  0.4370
 4413SOL    HW113528   5.782   2.726   1.062 -1.7993 -2.0154  0.5813
 4413SOL    HW213529   5.902   2.625   1.108 -1.3760 -1.1039  1.5307
 4414SOL     OW13530   3.602   0.643   2.180 -0.0238 -0.1486 -0.3770
 4414SOL    HW113531   3.663   0.565   2.194  1.0551  0.9382  1.3684
 4414SOL    HW213532   3.648   0.727   2.209 -1.3492  1.1021 -1.7022
 4415SOL     OW13533   4.713   2.094   5.970  0.3744 -0.2233 -0.0230
 4415SOL    HW113534   4.614   2.110   5.970  0.3066 -0.5480  1.1986
 4415SOL    HW213535   4.761   2.181   5.982  0.2403 -0.0988 -0.3577
 4416SOL     OW13536   4.039   1.659   4.395  0.0235 -0.6343  0.7192
 4416SOL    HW113537   4.044   1.602   4.313 -0.6190  1.1151 -0.5894
 4416SOL    HW213538   4.128   1.660   4.440  0.7544 -0.5991 -0.6856
 4417SOL     OW13539   2.451   0.689   2.029 -0.3370 -0.8455 -0.7879
 4417SOL    HW113540   2.546   0.717   2.015 -0.3077 -1.0974 -1.0781
 4417SOL    HW213541   2.436   0.599   1.989 -1.2624  0.1063 -2.6822
 4418SOL     OW13542   4.371   0.524   0.676  0.1488 -0.2132  0.2694
 4418SOL    HW113543   4.434   0.553   0.749 -0.2203 -2.1701  1.4570
 4418SOL    HW213544   4.330   0.437   0.702 -2.2769  0.4979 -0.9641
 4419SOL     OW13545   4.384   6.005   1.105 -0.0571 -0.1349 -0.3528
 4419SOL    HW113546   4.373   5.908   1.127 -2.1586  0.4061  1.2652
 4419SOL    HW213547   4.442   6.014   1.024 -2.0674 -2.9041 -2.2949
 4420SOL     OW13548   3.223   5.896   0.376  0.0095  0.1131  0.4321
 4420SOL    HW113549   3.289   5.822   0.364  0.5652  0.5436  0.8359
 4420SOL    HW213550   3.200   5.905   0.473 -1.2079 -0.5141  0.2306
 4421SOL     OW13551   5.029   0.850   2.453 -0.2266  0.0598  0.0784
 4421SOL    HW113552   4.970   0.782   2.410  0.1832  0.2155 -0.7623
 4421SOL    HW213553   4.973   0.925   2.488 -0.6157 -0.3430  0.3226
 4422SOL     OW13554   4.150   1.101   5.808 -0.0538  0.1558  0.6879
 4422SOL    HW113555   4.149   1.167   5.883  0.5072 -0.2418  1.0564
 4422SOL    HW213556   4.133   1.010   5.844  0.9751 -0.1448  0.4579
 4423SOL     OW13557   0.851   1.966   0.305 -0.3369  0.6583 -0.3573
 4423SOL    HW113558   0.787   1.931   0.237  0.1273 -1.0946  0.0368
 4423SOL    HW213559   0.932   1.907   0.307  0.5696  1.8824  0.2826
 4424SOL     OW13560   4.305   5.728   1.411 -0.1856 -0.7597  0.0675
 4424SOL    HW113561   4.306   5.695   1.317  1.5825  0.6778 -0.5056
 4424SOL    HW213562   4.386   5.786   1.426 -0.8098 -0.3596  2.2603
 4425SOL     OW13563   5.457   0.901   0.945  0.2604  0.1922 -0.3310
 4425SOL    HW113564   5.381   0.922   0.883 -0.3602 -0.0872  0.3208
 4425SOL    HW213565   5.445   0.809   0.982  1.1204  0.0037 -0.4993
 4426SOL     OW13566   5.517   5.998   0.110  0.2787  0.2430 -0.7374
 4426SOL    HW113567   5.591   5.931   0.110 -0.2767 -0.3755 -0.9979
 4426SOL    HW213568   5.505   6.034   0.018  0.4761  0.5998 -0.6275
 4427SOL     OW13569   3.555   1.254   0.323 -0.0468 -0.3193 -0.1701
 4427SOL    HW113570   3.458   1.263   0.347  0.0157  2.4263 -0.6521
 4427SOL    HW213571   3.611   1.290   0.397  0.6356 -1.7722  0.0470
 4428SOL     OW13572   5.488   2.556   1.593 -0.2469  0.5135  0.4966
 4428SOL    HW113573   5.587   2.551   1.579 -0.1261  1.3828  0.9673
 4428SOL    HW213574   5.443   2.483   1.542  0.7221 -0.5413  1.1107
 4429SOL     OW13575   4.065   2.632   1.281 -0.3594 -0.5170 -0.1639
 4429SOL    HW113576   4.075   2.533   1.277 -0.7735 -0.7380  2.4015
 4429SOL    HW213577   4.099   2.666   1.368 -0.8124  1.5362 -0.7145
 4430SOL     OW13578   5.284   1.446   2.599 -0.2712  0.3983 -0.1020
 4430SOL    HW113579   5.374   1.461   2.640 -0.2205 -0.5384  0.1654
 4430SOL    HW213580   5.286   1.472   2.503  0.1501  0.8160  0.0150
 4431SOL     OW13581   3.827   1.096   1.768 -0.2286  0.3003 -0.3165
 4431SOL    HW113582   3.750   1.033   1.755  0.0236 -0.2529  0.7169
 4431SOL    HW213583   3.847   1.105   1.866 -0.0430  1.7480 -0.4629
 4432SOL     OW13584   4.936   1.072   1.324  0.3322 -1.1194 -0.2871
 4432SOL    HW113585   4.963   1.140   1.255 -0.7743 -1.2162 -0.8370
 4432SOL    HW213586   4.876   1.114   1.391 -2.2780 -1.9933 -1.9147
 4433SOL     OW13587   5.504   0.765   3.005 -0.2132 -0.1564 -0.7313
 4433SOL    HW113588   5.537   0.681   3.048 -0.7662  0.8152  1.7707
 4433SOL    HW213589   5.415   0.748   2.964 -1.6685 -0.2420  2.2116
 4434SOL     OW13590   5.015   2.084   2.119 -0.6041  0.4198 -0.0680
 4434SOL    HW113591   5.101   2.107   2.165 -0.3280 -1.3615  0.4074
 4434SOL    HW213592   5.036   2.043   2.030 -0.7884 -1.8541  0.8576
 4435SOL     OW13593   5.545   0.454   0.998 -0.1259 -0.1018 -0.2020
 4435SOL    HW113594   5.490   0.372   0.984 -2.5155  1.5602 -1.3192
 4435SOL    HW213595   5.597   0.473   0.915 -0.7718  0.2976 -0.5303
 4436SOL     OW13596   3.520   5.905   1.369 -0.1409 -0.2956 -0.2708
 4436SOL    HW113597   3.590   5.907   1.298 -0.3694 -2.2147 -0.5977
 4436SOL    HW213598   3.438   5.951   1.336  0.3779  0.4729 -0.5248
 4437SOL     OW13599   3.328   5.076   0.701  0.3641 -0.0579 -0.2953
 4437SOL    HW113600   3.244   5.023   0.690  0.8882 -0.4944 -2.6372
 4437SOL    HW213601   3.304   5.171   0.721 -0.6027 -0.6964  1.8785
 4438SOL     OW13602   4.827   0.893   1.126  0.4934 -0.6742  0.3082
 4438SOL    HW113603   4.845   0.939   1.213  0.4456  0.4108 -0.2377
 4438SOL    HW213604   4.913   0.858   1.089  0.4007 -1.8183  1.1551
 4439SOL     OW13605   3.147   1.453   0.635 -0.3126  0.3010 -0.1181
 4439SOL    HW113606   3.221   1.443   0.701  0.4026 -1.5492 -1.1096
 4439SOL    HW213607   3.128   1.550   0.620  0.0875  0.7744  2.0999
 4440SOL     OW13608   4.886   5.921   5.876 -0.0225  0.1852  0.2361
 4440SOL    HW113609   4.978   5.890   5.853 -0.6948 -2.0592  0.2929
 4440SOL    HW213610   4.839   5.850   5.930 -1.1709  2.0370  1.7982
 4441SOL     OW13611   4.096   2.772   0.574  0.0725  0.7127 -0.1200
 4441SOL    HW113612   4.008   2.736   0.602 -0.8692  1.9462 -1.3188
 4441SOL    HW213613   4.109   2.757   0.476  1.3875  0.1921  0.1112
 4442SOL     OW13614   5.723   0.778   1.965 -0.1877 -0.5115 -0.0082
 4442SOL    HW113615   5.701   0.749   2.058 -2.6323  0.0890 -0.3423
 4442SOL    HW213616   5.750   0.698   1.911 -0.3962 -1.1162  0.7681
 4443SOL     OW13617   5.247   0.738   5.052  0.0497 -0.3400  0.5573
 4443SOL    HW113618   5.296   0.821   5.024 -0.8459 -0.0954 -0.3505
 4443SOL    HW213619   5.257   0.668   4.981 -0.6069 -0.4094  0.5268
 4444SOL     OW13620   4.665   1.602   1.433  0.0546 -0.3703 -0.1471
 4444SOL    HW113621   4.584   1.657   1.410  0.0805  0.4058  1.4679
 4444SOL    HW213622   4.638   1.507   1.448 -0.5413 -0.1417  0.2509
 4445SOL     OW13623   3.219   0.656   1.167 -0.0807  0.3282  0.5798
 4445SOL    HW113624   3.302   0.644   1.222 -0.2564 -0.4841  0.6854
 4445SOL    HW213625   3.221   0.745   1.122  0.3227  0.7775  1.4710
 4446SOL     OW13626   5.429   0.920   1.381 -0.0820  0.0888 -0.2377
 4446SOL    HW113627   5.409   0.822   1.384  0.1191  0.0349 -0.6337
 4446SOL    HW213628   5.522   0.936   1.412 -0.1053  0.1545 -0.2018
 4447SOL     OW13629   4.372   0.653   1.883  0.0694 -0.2383 -0.3367
 4447SOL    HW113630   4.458   0.682   1.840 -0.2205  1.7461  0.3276
 4447SOL    HW213631   4.323   0.592   1.821  2.3869 -2.2550 -0.3215
 4448SOL     OW13632   3.355   5.670   1.115  0.6881  0.2896  0.0464
 4448SOL    HW113633   3.370   5.578   1.151  0.7693 -0.1286 -1.0382
 4448SOL    HW213634   3.282   5.714   1.167 -2.3962 -1.9587 -2.0623
 4449SOL     OW13635   4.211   0.375   2.031 -0.6047  1.0174 -0.0315
 4449SOL    HW113636   4.229   0.426   1.947  0.5557 -0.0539 -0.4770
 4449SOL    HW213637   4.118   0.338   2.028 -0.6137  1.0765 -0.8095
 4450SOL     OW13638   4.751   1.669   1.938 -1.3077 -0.2713 -0.0048
 4450SOL    HW113639   4.757   1.664   1.839 -0.1639  0.1779  0.0379
 4450SOL    HW213640   4.659   1.641   1.967 -1.0796 -2.2911 -1.0597
 4451SOL     OW13641   5.692   0.157   0.794  0.0097 -0.1993 -0.2548
 4451SOL    HW113642   5.670   0.095   0.868  0.6186 -0.9236 -0.6720
 4451SOL    HW213643   5.696   0.107   0.708  2.4373  0.0202 -0.3389
 4452SOL     OW13644   5.199   0.416   2.248  0.3819 -0.2504  0.4355
 4452SOL    HW113645   5.161   0.428   2.339  0.4216  0.8357  0.3275
 4452SOL    HW213646   5.216   0.319   2.231  0.3063 -0.4710  1.5471
 4453SOL     OW13647   3.708   1.625   1.832 -0.1109  0.0386 -0.2282
 4453SOL    HW113648   3.731   1.619   1.929 -0.8607  2.0916  0.1187
 4453SOL    HW213649   3.759   1.699   1.789 -1.8188  0.9807 -0.7298
 4454SOL     OW13650   3.820   0.868   1.481 -0.9127 -0.3957  0.6077
 4454SOL    HW113651   3.815   0.911   1.391 -1.2906 -0.6822  0.4895
 4454SOL    HW213652   3.728   0.853   1.516 -0.7976 -1.3400  0.5334
 4455SOL     OW13653   5.846   1.748   1.922 -0.3852  0.3544  0.1256
 4455SOL    HW113654   5.875   1.818   1.857  2.3486  0.4023  1.2397
 4455SOL    HW213655   5.799   1.791   2.000 -1.4118  0.5682 -0.5940
 4456SOL     OW13656   4.809   5.044   1.168  0.2246  0.5441  0.2888
 4456SOL    HW113657   4.746   4.967   1.158 -2.6058  2.8156 -0.4466
 4456SOL    HW213658   4.881   5.037   1.099 -0.3269 -1.0994 -0.1629
 4457SOL     OW13659   3.265   0.274   1.320 -0.1894 -0.0634 -0.0560
 4457SOL    HW113660   3.360   0.303   1.315  0.3436 -1.9157 -1.5656
 4457SOL    HW213661   3.255   0.184   1.279 -2.5886  0.0175  0.2047
 4458SOL     OW13662   4.564   0.720   0.369  0.2352 -0.1914 -0.1942
 4458SOL    HW113663   4.596   0.725   0.275  0.6116  1.3245 -0.0174
 4458SOL    HW213664   4.642   0.711   0.431  0.1600  0.9467  0.0846
 4459SOL     OW13665   5.500   0.942   2.537  0.1483  0.3148  0.2017
 4459SOL    HW113666   5.571   0.915   2.472 -0.6526  1.2853 -1.1260
 4459SOL    HW213667   5.458   0.860   2.577  1.7345 -0.2773  0.7477
 4460SOL     OW13668   0.129   1.583   0.841  0.5514 -0.3016  0.0475
 4460SOL    HW113669   0.089   1.675   0.830  1.0861  0.4289  3.2458
 4460SOL    HW213670   0.065   1.525   0.890  1.9057 -0.1922  2.0650
 4461SOL     OW13671   3.824   1.192   3.423  0.3237  0.2415  0.1895
 4461SOL    HW113672   3.778   1.269   3.379 -0.0714  1.8054  3.0489
 4461SOL    HW213673   3.771   1.109   3.407 -0.7306  1.0592 -0.7640
 4462SOL     OW13674   5.969   1.145   5.213  0.0992 -0.4970  0.0368
 4462SOL    HW113675   5.917   1.137   5.128 -0.0745  1.2622 -0.0559
 4462SOL    HW213676   6.066   1.159   5.192  0.5267 -2.7918  0.2018
 4463SOL     OW13677   4.719   1.260   4.630  0.1253 -0.7290  0.0640
 4463SOL    HW113678   4.662   1.180   4.612 -0.0998 -0.3084 -1.2146
 4463SOL    HW213679   4.731   1.270   4.728 -3.2798  0.0105  0.5514
 4464SOL     OW13680   5.040   2.193   0.624  0.7739  0.0834 -0.6947
 4464SOL    HW113681   5.059   2.101   0.589  1.3006  1.0480 -3.1478
 4464SOL    HW213682   5.089   2.207   0.710  1.7304 -1.4756 -0.9422
 4465SOL     OW13683   4.092   0.502   1.562 -0.1242 -0.2453 -0.6654
 4465SOL    HW113684   4.004   0.454   1.563 -0.6411  0.5711  2.1463
 4465SOL    HW213685   4.108   0.541   1.472 -3.1533  0.4343 -1.0230
 4466SOL     OW13686   4.589   0.600   0.838 -0.1048 -0.6286  0.5821
 4466SOL    HW113687   4.666   0.642   0.789  0.1092 -1.0276  0.5729
 4466SOL    HW213688   4.575   0.648   0.925 -0.4096  0.0012  0.1886
 4467SOL     OW13689   4.211   0.312   0.754 -0.0398  0.2451  0.6323
 4467SOL    HW113690   4.205   0.316   0.854 -0.7749  1.1997  0.5687
 4467SOL    HW213691   4.120   0.328   0.715  0.4741  1.1977 -0.2019
 4468SOL     OW13692   5.402   1.122   1.599 -0.0305  0.2378  0.1736
 4468SOL    HW113693   5.326   1.072   1.640 -0.7130  0.4270 -0.8118
 4468SOL    HW213694   5.484   1.066   1.599 -0.5386 -0.5133 -0.0427
 4469SOL     OW13695   4.597   1.523   5.288 -0.0979  0.7204 -0.4869
 4469SOL    HW113696   4.602   1.622   5.301 -0.6928  0.7398 -0.3398
 4469SOL    HW213697   4.513   1.500   5.238  1.4794  0.5412 -3.2807
 4470SOL     OW13698   3.576   1.907   2.117 -0.4648  0.1201 -0.6151
 4470SOL    HW113699   3.575   1.996   2.162 -1.5587  0.0337 -0.4299
 4470SOL    HW213700   3.496   1.854   2.147  0.1629 -0.9145 -0.7294
 4471SOL     OW13701   3.861   0.491   2.754 -0.6664  0.3211  0.8486
 4471SOL    HW113702   3.817   0.579   2.771 -1.5284  0.0441  0.1201
 4471SOL    HW213703   3.961   0.503   2.757 -0.6646  1.9696 -2.0790
 4472SOL     OW13704   3.602   0.994   0.459 -0.2340 -0.0320  0.4646
 4472SOL    HW113705   3.596   1.039   0.370 -0.2539  0.5255  0.7444
 4472SOL    HW213706   3.599   1.062   0.531 -0.0302 -0.4680  0.8915
 4473SOL     OW13707   3.416   0.430   0.550  0.0397 -0.2915  0.1890
 4473SOL    HW113708   3.430   0.478   0.463  1.2543  1.4917  1.2936
 4473SOL    HW213709   3.320   0.438   0.577 -0.3887 -0.9922 -1.0112
 4474SOL     OW13710   0.363   5.240   0.423  0.2789 -0.1640  0.0061
 4474SOL    HW113711   0.275   5.287   0.414 -0.1684 -0.4607  2.1216
 4474SOL    HW213712   0.417   5.285   0.494  1.7448 -0.1678 -1.0686
 4475SOL     OW13713   4.442   0.322   0.248 -0.2897 -0.0465  0.2061
 4475SOL    HW113714   4.387   0.397   0.282 -0.2622 -0.0944  0.3551
 4475SOL    HW213715   4.527   0.358   0.208 -1.2458  0.1988 -1.7330
 4476SOL     OW13716   5.832   0.349   0.128  0.0840  0.6433 -0.6011
 4476SOL    HW113717   5.788   0.436   0.104 -2.1118 -0.7305 -1.9400
 4476SOL    HW213718   5.765   0.289   0.171  0.7694 -1.3783 -2.2247
 4477SOL     OW13719   3.613   1.551   2.349 -0.1436  0.0696  0.3488
 4477SOL    HW113720   3.533   1.607   2.326  0.4954  1.0155  0.3541
 4477SOL    HW213721   3.597   1.503   2.435 -0.5046  0.6750  0.6297
 4478SOL     OW13722   3.337   0.926   1.446  0.2326  0.0678 -0.3200
 4478SOL    HW113723   3.277   0.962   1.375  0.9024  0.6032 -0.6339
 4478SOL    HW213724   3.301   0.840   1.481 -1.9702  1.4808  1.1287
 4479SOL     OW13725   5.278   2.839   1.447  0.0976  0.4864 -0.2376
 4479SOL    HW113726   5.302   2.821   1.543 -0.2745 -0.3288 -0.2953
 4479SOL    HW213727   5.358   2.822   1.390 -0.0998 -0.5050 -0.2332
 4480SOL     OW13728   5.400   0.102   0.582 -0.1386 -0.3673  0.6774
 4480SOL    HW113729   5.357   0.085   0.493  0.2407 -0.9967  0.6051
 4480SOL    HW213730   5.499   0.105   0.572 -0.1449  1.4363  0.7878
 4481SOL     OW13731   4.203   1.020   1.449 -0.2468 -0.3005  0.7135
 4481SOL    HW113732   4.265   1.008   1.526  0.0485  1.3678  0.7843
 4481SOL    HW213733   4.123   1.073   1.479 -0.5031 -0.3016  0.0547
 4482SOL     OW13734   4.937   1.954   5.960 -0.1664  0.2859 -0.3428
 4482SOL    HW113735   4.966   1.890   5.889  1.5987  0.7349 -0.0846
 4482SOL    HW213736   4.845   1.987   5.941 -0.5881 -1.2881 -1.2006
 4483SOL     OW13737   3.841   1.507   1.366 -0.1184  0.0855  0.0123
 4483SOL    HW113738   3.879   1.540   1.453  0.2414  0.9852 -0.4709
 4483SOL    HW213739   3.851   1.408   1.361  0.7476  0.1279  0.5820
 4484SOL     OW13740   0.272   1.195   1.209 -0.6004  0.7595 -0.2839
 4484SOL    HW113741   0.256   1.104   1.170  2.7694  0.2735 -0.8142
 4484SOL    HW213742   0.268   1.264   1.136  0.3010  0.5702 -0.5136
 4485SOL     OW13743   0.181   2.102   1.169 -0.4218 -0.7057 -0.4026
 4485SOL    HW113744   0.176   2.028   1.236 -0.3218 -0.2017  0.1654
 4485SOL    HW213745   0.144   2.186   1.208 -0.0956 -0.3342 -0.8752
 4486SOL     OW13746   5.023   0.846   0.500 -0.3577  0.0271 -0.0001
 4486SOL    HW113747   4.952   0.907   0.535  0.4020  1.6199 -1.1128
 4486SOL    HW213748   5.014   0.838   0.401  1.3853  0.8075 -0.2566
 4487SOL     OW13749   3.882   1.662   2.434 -0.1045  0.1898 -0.0991
 4487SOL    HW113750   3.802   1.616   2.395  1.2871 -1.2720 -1.3438
 4487SOL    HW213751   3.951   1.594   2.459 -0.4521  1.1071  4.0491
 4488SOL     OW13752   5.620   5.192   5.474 -0.0155  0.1254 -0.5157
 4488SOL    HW113753   5.615   5.269   5.537 -0.5993 -0.1922 -0.1600
 4488SOL    HW213754   5.702   5.139   5.492 -0.4765 -0.3041  0.3912
 4489SOL     OW13755   5.037   4.824   0.961 -0.1424  0.9457  0.1343
 4489SOL    HW113756   5.064   4.917   0.986 -1.4001  1.1703  0.6855
 4489SOL    HW213757   4.994   4.825   0.870 -1.8642  1.2284  0.9134
 4490SOL     OW13758   4.336   2.752   5.907 -0.1798 -0.0451  0.4511
 4490SOL    HW113759   4.371   2.846   5.902  0.0013 -0.0687  1.1322
 4490SOL    HW213760   4.381   2.696   5.837  0.1227  0.2488  0.4072
 4491SOL     OW13761   4.633   2.005   1.353 -0.1427  0.0742 -0.5968
 4491SOL    HW113762   4.725   1.979   1.380 -0.5725  0.5035  1.4073
 4491SOL    HW213763   4.616   2.100   1.379 -0.9139  0.2352 -1.6220
 4492SOL     OW13764   4.959   0.756   0.823  0.5853  0.5946 -0.3186
 4492SOL    HW113765   5.017   0.721   0.750  0.4276  1.3883 -0.8425
 4492SOL    HW213766   5.015   0.781   0.902  0.9757  1.3112 -0.8005
 4493SOL     OW13767   4.906   1.247   2.272  0.2983 -0.7630  0.0382
 4493SOL    HW113768   4.895   1.318   2.202  0.4619 -1.6807 -0.9492
 4493SOL    HW213769   4.935   1.289   2.358 -1.9470  0.6655  0.1969
 4494SOL     OW13770   4.352   1.578   0.283  0.4018  0.3999  0.6356
 4494SOL    HW113771   4.348   1.628   0.196 -0.0576 -1.6621 -0.5826
 4494SOL    HW213772   4.407   1.631   0.349  0.6032  2.1030 -0.8173
 4495SOL     OW13773   4.439   2.046   0.614 -0.5119 -0.1022 -0.2810
 4495SOL    HW113774   4.478   2.029   0.523 -1.8776  0.4923 -1.0073
 4495SOL    HW213775   4.491   1.995   0.683  0.7660 -0.2862 -1.3419
 4496SOL     OW13776   0.690   0.598   1.425  0.1074  0.3622  0.0215
 4496SOL    HW113777   0.620   0.529   1.405  1.1387 -0.9757  0.8236
 4496SOL    HW213778   0.684   0.624   1.522  1.7977 -1.1222  0.5861
 4497SOL     OW13779   3.311   5.414   1.221  0.0150  0.1352  0.0761
 4497SOL    HW113780   3.330   5.317   1.235  0.5371  0.3709  1.0603
 4497SOL    HW213781   3.332   5.465   1.304 -1.1075  0.9825 -0.1292
 4498SOL     OW13782   4.437   2.642   5.670  0.1670  0.1004  0.0355
 4498SOL    HW113783   4.432   2.606   5.577 -0.9809  1.6320 -0.5374
 4498SOL    HW213784   4.530   2.674   5.689  0.5935 -0.9389 -0.2911
 4499SOL     OW13785   5.155   1.102   2.166 -0.3945 -0.1922 -0.6331
 4499SOL    HW113786   5.090   1.075   2.094 -0.6085 -0.1122 -0.4720
 4499SOL    HW213787   5.113   1.172   2.224 -0.1537 -0.1252 -0.5410
 4500SOL     OW13788   4.996   0.053   0.661 -0.1755  0.0845 -0.4421
 4500SOL    HW113789   5.029   0.008   0.578  1.1940  0.6845 -0.2417
 4500SOL    HW213790   4.911   0.102   0.641  0.5841  0.9261 -1.7095
 4501SOL     OW13791   4.273   1.808   5.743 -0.2915  0.3355  0.4914
 4501SOL    HW113792   4.282   1.749   5.663 -0.7944 -0.9212  1.3206
 4501SOL    HW213793   4.179   1.840   5.751 -0.7429 -1.1074  1.5753
 4502SOL     OW13794   4.142   0.889   3.132 -0.4505 -0.3972 -0.3409
 4502SOL    HW113795   4.052   0.881   3.087  0.3569 -0.6779 -1.9768
 4502SOL    HW213796   4.178   0.798   3.151  0.8980 -0.4176 -2.6962
 4503SOL     OW13797   5.469   0.661   0.247 -0.4178  0.4471  0.2943
 4503SOL    HW113798   5.547   0.632   0.303 -0.7314 -0.0135  0.4978
 4503SOL    HW213799   5.495   0.740   0.192  0.2254  0.2330  0.2840
 4504SOL     OW13800   5.304   1.293   1.971 -0.6886 -0.4303 -0.2194
 4504SOL    HW113801   5.346   1.298   2.061 -0.8799 -0.6716 -0.1150
 4504SOL    HW213802   5.296   1.197   1.943 -1.1097 -0.3857 -0.2603
 4505SOL     OW13803   5.653   5.955   1.025  0.1050  0.1000 -0.3669
 4505SOL    HW113804   5.561   5.929   0.994 -0.0432  0.7654 -0.5002
 4505SOL    HW213805   5.652   5.967   1.124 -0.2173  1.1206 -0.4803
 4506SOL     OW13806   4.735   0.907   0.795 -0.2655 -0.0976  0.2479
 4506SOL    HW113807   4.757   0.957   0.711 -1.4418  1.3315  0.7397
 4506SOL    HW213808   4.815   0.855   0.825  0.0963 -0.8562 -1.8811
 4507SOL     OW13809   5.414   1.149   0.486 -0.2380 -0.3560 -0.2823
 4507SOL    HW113810   5.371   1.129   0.398  0.1825  0.7102 -0.7590
 4507SOL    HW213811   5.449   1.065   0.527  0.6550 -0.7300 -1.7249
 4508SOL     OW13812   4.403   1.316   0.172  0.4401 -0.0294  0.1521
 4508SOL    HW113813   4.424   1.258   0.251 -0.6094  1.1938  1.3967
 4508SOL    HW213814   4.382   1.408   0.204 -3.2998 -0.2468 -1.1688
 4509SOL     OW13815   5.060   1.404   1.843  0.1751  0.1372 -0.1594
 4509SOL    HW113816   4.970   1.361   1.848  0.7841 -1.3173 -0.9033
 4509SOL    HW213817   5.120   1.361   1.910  0.1349  1.6089  0.8446
 4510SOL     OW13818   4.585   0.805   1.046  0.5153  0.0602  0.6361
 4510SOL    HW113819   4.678   0.829   1.074  0.1102  2.7392 -0.0763
 4510SOL    HW213820   4.562   0.854   0.962 -1.4695 -0.8026  0.6215
 4511SOL     OW13821   4.147   0.545   0.253  0.4863 -0.4615  0.5225
 4511SOL    HW113822   4.246   0.537   0.259  0.5744  0.2866  0.1084
 4511SOL    HW213823   4.122   0.631   0.208 -0.3871  0.0986  2.0244
 4512SOL     OW13824   3.973   1.331   1.760  0.5288 -0.1709 -0.0689
 4512SOL    HW113825   4.013   1.320   1.851  2.2356 -3.5102 -1.0489
 4512SOL    HW213826   3.898   1.266   1.749 -0.0897  0.6564 -0.8685
 4513SOL     OW13827   4.250   0.068   5.820  0.1862  0.1344 -0.0669
 4513SOL    HW113828   4.253   0.085   5.918  2.1661  1.8740 -0.3610
 4513SOL    HW213829   4.163   0.102   5.783 -0.6130 -0.6239  1.0698
 4514SOL     OW13830   5.120   0.653   5.902  0.1434 -0.5228 -0.0970
 4514SOL    HW113831   5.201   0.696   5.863 -0.3851 -0.2380 -0.9173
 4514SOL    HW213832   5.144   0.605   5.986  1.3337 -1.1314 -0.7576
 4515SOL     OW13833   4.890   0.848   5.974 -0.5037 -0.0197 -0.0817
 4515SOL    HW113834   4.901   0.928   5.915 -1.6550  0.2159 -0.0040
 4515SOL    HW213835   4.955   0.777   5.947 -0.3134  0.4729 -0.9520
 4516SOL     OW13836   5.198   4.028   2.454  0.2124 -0.2737 -0.0694
 4516SOL    HW113837   5.245   3.983   2.378  2.1708 -0.0693  0.9356
 4516SOL    HW213838   5.193   4.126   2.437 -2.5976 -0.5827 -1.5155
 4517SOL     OW13839   4.876   0.149   2.663 -0.2201 -0.1613  0.3977
 4517SOL    HW113840   4.909   0.062   2.626 -1.9828 -0.9495  0.5979
 4517SOL    HW213841   4.924   0.224   2.617 -0.5415 -1.1661 -1.7035
 4518SOL     OW13842   5.983   1.557   1.336 -0.0878  0.0358  0.1155
 4518SOL    HW113843   6.010   1.470   1.377  0.1396  0.2076  0.3317
 4518SOL    HW213844   5.959   1.622   1.408  3.1186  1.2999  0.2367
 4519SOL     OW13845   5.392   1.731   1.843 -0.1083 -0.1566 -0.1965
 4519SOL    HW113846   5.462   1.686   1.898  0.0621 -1.2279 -1.2474
 4519SOL    HW213847   5.324   1.773   1.903  0.6080 -0.4093  0.8187
 4520SOL     OW13848   4.818   1.656   1.688  0.0688 -0.1216  0.1024
 4520SOL    HW113849   4.916   1.638   1.697  0.6177  1.1650 -2.4081
 4520SOL    HW213850   4.783   1.609   1.607 -0.9843  0.9111 -0.0640
 4521SOL     OW13851   4.716   0.088   1.692  0.4929  0.3565 -1.4561
 4521SOL    HW113852   4.707   0.107   1.594 -2.2629  0.6408 -1.2312
 4521SOL    HW213853   4.671   0.160   1.745  0.0376 -0.8617 -0.1015
 4522SOL     OW13854   4.807   1.021   0.544  0.2584 -0.0205 -0.1520
 4522SOL    HW113855   4.814   1.116   0.573  1.6188 -0.6594  1.8434
 4522SOL    HW213856   4.737   1.012   0.472 -1.1781  2.1667  0.8816
 4523SOL     OW13857   5.048   1.006   1.696 -0.6838 -0.1849  0.5867
 4523SOL    HW113858   5.076   0.935   1.631  1.8616  0.2699  1.0594
 4523SOL    HW213859   5.054   1.095   1.651 -0.7679 -0.0293  0.8835
 4524SOL     OW13860   0.084   0.574   2.729 -0.3447 -0.3524 -0.1068
 4524SOL    HW113861   0.015   0.607   2.794  0.6882  0.0182  0.8335
 4524SOL    HW213862   0.122   0.487   2.761 -1.3538 -1.2852 -1.3511
 4525SOL     OW13863   4.643   0.404   0.081  0.0190  0.1074  0.6634
 4525SOL    HW113864   4.582   0.378   0.006 -0.0504  0.1843  0.6926
 4525SOL    HW213865   4.731   0.434   0.045 -0.4713  1.4386  0.5374
 4526SOL     OW13866   3.810   2.007   1.398  0.9405  0.4691  0.0375
 4526SOL    HW113867   3.838   2.100   1.422  0.9512 -0.4017  4.0955
 4526SOL    HW213868   3.727   1.984   1.448  1.4723 -2.0279 -0.1304
 4527SOL     OW13869   4.201   1.188   1.909  0.0116  0.6181 -0.2688
 4527SOL    HW113870   4.295   1.200   1.879  0.1378  0.4302  0.0533
 4527SOL    HW213871   4.158   1.114   1.857  0.0783  0.6231 -0.3305
 4528SOL     OW13872   4.621   5.669   5.238 -0.3154  0.0877  0.2729
 4528SOL    HW113873   4.580   5.754   5.203  2.8687  1.7203  0.1999
 4528SOL    HW213874   4.651   5.683   5.332 -0.9007 -1.4511  0.7191
 4529SOL     OW13875   5.926   0.562   0.749 -0.1945 -0.0635 -0.1259
 4529SOL    HW113876   5.973   0.497   0.689  1.8853  0.9853  0.2841
 4529SOL    HW213877   5.927   0.653   0.707  0.8235  0.5801  1.1880
 4530SOL     OW13878   2.622   0.133   2.171 -0.2218  0.3080  0.0753
 4530SOL    HW113879   2.681   0.212   2.156 -0.0656 -0.2965 -3.1332
 4530SOL    HW213880   2.677   0.050   2.176 -0.3681  0.2832  3.6212
 4531SOL     OW13881   4.493   1.352   1.482 -0.4643 -0.3796  0.3264
 4531SOL    HW113882   4.404   1.378   1.445  0.2548  0.7337 -0.7145
 4531SOL    HW213883   4.518   1.261   1.447  0.3020  0.7260 -2.2622
 4532SOL     OW13884   4.924   1.520   3.058  0.4118  0.1132 -0.3784
 4532SOL    HW113885   4.931   1.578   3.139  0.7518  0.2982 -0.5389
 4532SOL    HW213886   4.972   1.563   2.981  1.4722 -0.8159 -0.2581
 4533SOL     OW13887   4.362   0.975   1.682  0.1535 -0.2572 -0.3551
 4533SOL    HW113888   4.274   0.966   1.730 -0.0191  0.1387 -0.5949
 4533SOL    HW213889   4.391   0.885   1.650 -0.5685 -0.2771 -0.9764
 4534SOL     OW13890   3.529   0.434   5.627  0.1178  0.0673  0.2620
 4534SOL    HW113891   3.430   0.446   5.635  0.3056  2.1472 -0.1686
 4534SOL    HW213892   3.550   0.336   5.623 -1.9860 -0.3979 -0.6360
 4535SOL     OW13893   5.074   1.648   1.718 -0.6034 -0.1859 -0.4269
 4535SOL    HW113894   5.077   1.557   1.760 -0.2012  0.1770  0.3723
 4535SOL    HW213895   5.162   1.668   1.676 -0.5650 -0.0280 -0.2764
 4536SOL     OW13896   3.759   0.387   2.240  0.3864  0.4116 -0.1485
 4536SOL    HW113897   3.821   0.368   2.316  0.6545 -0.2433 -0.5238
 4536SOL    HW213898   3.671   0.342   2.256  0.8342 -0.7256 -0.7700
 4537SOL     OW13899   3.552   1.701   5.942  0.2332 -0.0616 -0.4840
 4537SOL    HW113900   3.460   1.665   5.932 -0.0181  0.1383  0.8744
 4537SOL    HW213901   3.551   1.800   5.927 -0.6583  0.7283  3.5063
 4538SOL     OW13902   5.190   1.054   0.305 -0.2859  0.2949  0.6981
 4538SOL    HW113903   5.131   0.974   0.294 -0.6703  0.5036  1.2179
 4538SOL    HW213904   5.152   1.115   0.374 -0.2536  1.1692 -0.0342
 4539SOL     OW13905   4.672   0.310   0.782 -0.1472 -0.7598 -0.3077
 4539SOL    HW113906   4.609   0.387   0.784 -1.8098 -2.0493  2.4084
 4539SOL    HW213907   4.742   0.326   0.712 -1.4205  2.3397 -1.0346
 4540SOL     OW13908   5.017   2.193   0.095  0.3200 -0.0594 -0.2624
 4540SOL    HW113909   4.953   2.261   0.059  1.5978 -0.0869 -2.7761
 4540SOL    HW213910   5.004   2.106   0.046  0.6037 -0.8174  0.9576
 4541SOL     OW13911   3.921   1.607   0.953  0.5927 -0.3056  0.0185
 4541SOL    HW113912   3.880   1.657   0.876  0.1415 -1.2102 -0.3430
 4541SOL    HW213913   3.854   1.542   0.990  0.7255  0.2927  1.3438
 4542SOL     OW13914   5.454   0.953   5.361  0.0751  0.2447 -0.2211
 4542SOL    HW113915   5.498   0.913   5.442  0.3074  0.3641 -0.2861
 4542SOL    HW213916   5.379   1.012   5.389 -3.1859 -3.4940 -0.1913
 4543SOL     OW13917   4.465   5.573   0.953  0.3220  0.0012  0.2070
 4543SOL    HW113918   4.559   5.578   0.988  0.6386  2.8642 -0.7514
 4543SOL    HW213919   4.465   5.601   0.856 -1.1122 -3.2970 -0.8921
 4544SOL     OW13920   4.321   1.155   0.955  0.3387  0.2797  0.0369
 4544SOL    HW113921   4.332   1.241   1.004  0.6678  2.1486 -3.0458
 4544SOL    HW213922   4.224   1.130   0.952  0.4185 -0.6699  2.6827
 4545SOL     OW13923   3.428   1.658   2.160  0.0738 -0.4877 -0.1492
 4545SOL    HW113924   3.333   1.688   2.157  0.1023 -0.4766 -1.9256
 4545SOL    HW213925   3.436   1.566   2.123  0.4591 -1.4959  2.2347
 4546SOL     OW13926   3.938   5.696   0.340 -0.2141  0.2028  0.1718
 4546SOL    HW113927   4.004   5.768   0.317  0.1509  0.1468  0.9792
 4546SOL    HW213928   3.908   5.707   0.435  0.0238 -0.8366  0.3866
 4547SOL     OW13929   3.708   5.950   1.179 -0.3293  0.0120  0.3747
 4547SOL    HW113930   3.718   6.049   1.177 -1.8488  0.1975  0.4547
 4547SOL    HW213931   3.673   5.918   1.091  1.6203 -0.6725 -0.1959
 4548SOL     OW13932   3.597   5.759   2.482  0.0755  0.3686 -0.3535
 4548SOL    HW113933   3.575   5.662   2.478  2.3667 -0.3015  1.4222
 4548SOL    HW213934   3.693   5.771   2.506 -0.5218  3.0778  1.0721
 4549SOL     OW13935   3.021   0.941   3.860 -0.4887  0.5171  0.1542
 4549SOL    HW113936   3.105   0.906   3.818 -0.2336  0.9652  0.2846
 4549SOL    HW213937   3.021   1.041   3.854 -0.1152  0.6459  1.8296
 4550SOL     OW13938   4.524   1.289   3.326  0.2714 -0.1603  0.0230
 4550SOL    HW113939   4.465   1.218   3.288 -0.6492 -0.4137  1.7887
 4550SOL    HW213940   4.569   1.254   3.408  0.5621  0.9837  0.3685
 4551SOL     OW13941   0.841   2.283   2.941  0.0207  0.4767 -0.0388
 4551SOL    HW113942   0.940   2.280   2.931 -0.0963  0.6083 -1.5551
 4551SOL    HW213943   0.805   2.190   2.944  0.0110  0.3714 -2.0841
 4552SOL     OW13944   3.907   0.915   2.599  0.0450  0.2086 -0.4283
 4552SOL    HW113945   3.995   0.872   2.617  0.3566  1.2213  0.5706
 4552SOL    HW213946   3.911   1.012   2.623 -1.4860  0.1642  0.1377
 4553SOL     OW13947   4.957   0.141   1.492 -0.0847  0.1328 -0.1572
 4553SOL    HW113948   4.862   0.174   1.489  0.2959  1.2863  0.0978
 4553SOL    HW213949   4.995   0.158   1.583  0.8797  1.1835 -0.7339
 4554SOL     OW13950   5.385   1.718   2.873 -0.6590 -0.0085  0.2340
 4554SOL    HW113951   5.366   1.656   2.949 -1.8822 -0.8449 -0.7090
 4554SOL    HW213952   5.436   1.668   2.802  2.0980  1.2319  1.1823
 4555SOL     OW13953   4.917   0.810   4.698  0.2337 -0.6572 -0.4715
 4555SOL    HW113954   4.935   0.857   4.612 -2.2346  0.4518 -0.4733
 4555SOL    HW213955   4.823   0.831   4.728 -0.3071 -4.0319  0.5535
 4556SOL     OW13956   0.283   2.262   1.949  0.4846 -0.2391 -0.5893
 4556SOL    HW113957   0.269   2.346   1.896 -0.1769  0.5206  0.7432
 4556SOL    HW213958   0.196   2.213   1.956  0.8436 -1.0038 -1.2600
 4557SOL     OW13959   4.465   2.232   3.433 -0.5627 -0.2971  0.6292
 4557SOL    HW113960   4.467   2.278   3.344 -0.9006  0.4756  1.0055
 4557SOL    HW213961   4.387   2.169   3.435 -1.2135  0.4909  0.7512
 4558SOL     OW13962   5.312   2.660   2.413 -0.2189  0.5588  0.1588
 4558SOL    HW113963   5.221   2.693   2.388 -0.0037  0.2508 -1.0838
 4558SOL    HW213964   5.373   2.737   2.427 -0.4854  0.7500  0.2749
 4559SOL     OW13965   4.347   3.153   3.632  0.0054  0.6045 -0.0423
 4559SOL    HW113966   4.348   3.190   3.538  3.7134  0.1012 -0.3409
 4559SOL    HW213967   4.325   3.056   3.629  0.3529  0.5315 -0.4483
 4560SOL     OW13968   5.045   0.535   2.799 -0.2959 -0.1416 -0.4516
 4560SOL    HW113969   4.988   0.612   2.769 -1.3569 -0.9015 -0.4443
 4560SOL    HW213970   5.040   0.461   2.732  1.1097 -0.0308 -0.6978
 4561SOL     OW13971   5.921   0.570   1.578 -0.2779 -0.2392 -0.3501
 4561SOL    HW113972   5.994   0.502   1.567  0.9112  0.9375 -0.0194
 4561SOL    HW213973   5.832   0.525   1.570  0.3909 -2.2447  2.0695
 4562SOL     OW13974   5.249   2.037   1.561 -0.0811  0.0459  0.1251
 4562SOL    HW113975   5.300   2.047   1.646 -0.2412 -0.3500  0.2738
 4562SOL    HW213976   5.234   2.126   1.519  0.0878  0.2314  0.4623
 4563SOL     OW13977   5.893   0.677   2.904  0.2768  0.4732 -0.2676
 4563SOL    HW113978   5.859   0.662   2.997  1.1565 -0.1628 -0.0336
 4563SOL    HW213979   5.957   0.753   2.903  0.2573  0.4890 -0.3583
 4564SOL     OW13980   4.888   1.465   4.632  0.0948 -0.4709  0.3072
 4564SOL    HW113981   4.969   1.445   4.687 -0.7708 -1.0476  1.4157
 4564SOL    HW213982   4.831   1.383   4.626 -1.2371  0.3729  0.9969
 4565SOL     OW13983   4.680   1.556   3.333 -0.2654 -0.6604  0.3344
 4565SOL    HW113984   4.641   1.627   3.391 -0.5413  0.0411 -0.6721
 4565SOL    HW213985   4.628   1.471   3.344 -0.1768 -0.6038  1.2565
 4566SOL     OW13986   4.256   2.371   3.276  0.5037 -0.3109  0.2039
 4566SOL    HW113987   4.246   2.295   3.340 -0.6128  0.0050  0.4176
 4566SOL    HW213988   4.246   2.337   3.183  0.2776 -0.4672  0.2849
 4567SOL     OW13989   3.647   1.118   3.109  0.0083 -0.0878 -0.1265
 4567SOL    HW113990   3.657   1.217   3.103 -0.4802  0.1704  2.1374
 4567SOL    HW213991   3.553   1.093   3.086 -0.1780  0.1253  0.3791
 4568SOL     OW13992   4.876   5.372   2.700  0.3439 -0.0603  0.2610
 4568SOL    HW113993   4.797   5.321   2.735  0.5709  0.7150  2.0224
 4568SOL    HW213994   4.960   5.323   2.722  0.4184 -0.2902 -0.5305
 4569SOL     OW13995   4.435   1.076   4.914 -0.4147  0.1763 -0.4822
 4569SOL    HW113996   4.418   1.167   4.952  0.0611 -0.7132  2.0826
 4569SOL    HW213997   4.478   1.084   4.825 -0.1134  2.4650 -0.1752
 4570SOL     OW13998   0.584   2.470   2.761 -0.1552 -0.1149 -0.0358
 4570SOL    HW113999   0.663   2.498   2.815 -1.0180  2.1928  0.1112
 4570SOL    HW214000   0.547   2.384   2.799  0.1159  0.6819  2.1793
 4571SOL     OW14001   2.458   0.545   2.921  0.3801  0.6792  0.4129
 4571SOL    HW114002   2.374   0.516   2.875  0.0458 -0.9496  1.9296
 4571SOL    HW214003   2.538   0.510   2.871  0.0390 -0.5782  0.7102
 4572SOL     OW14004   0.436   0.950   2.183  0.2137 -0.7410  0.1198
 4572SOL    HW114005   0.459   0.901   2.267 -0.2801  0.6553  1.0933
 4572SOL    HW214006   0.412   0.883   2.112 -2.8858 -1.9676  2.1004
 4573SOL     OW14007   5.513   1.418   2.154  0.0666 -0.0672  0.1242
 4573SOL    HW114008   5.462   1.465   2.226  2.8700  0.2492  2.0625
 4573SOL    HW214009   5.537   1.483   2.082  0.5372  0.5500  0.8268
 4574SOL     OW14010   2.748   0.662   4.249 -0.2824  0.2193  0.6153
 4574SOL    HW114011   2.829   0.633   4.300  0.6289  0.8850 -0.4017
 4574SOL    HW214012   2.771   0.742   4.194 -2.0275  1.2991  1.3920
 4575SOL     OW14013   5.335   1.934   3.086  0.1380 -0.4627  0.1697
 4575SOL    HW114014   5.309   2.023   3.049  0.5972 -0.2669  0.3239
 4575SOL    HW214015   5.332   1.866   3.013  1.6578  0.0345 -0.3963
 4576SOL     OW14016   5.103   1.248   2.606  0.3672  0.0864  0.1111
 4576SOL    HW114017   5.171   1.322   2.612 -1.0828  1.4243  0.8702
 4576SOL    HW214018   5.150   1.160   2.600  2.1583  1.0392 -0.6056
 4577SOL     OW14019   3.860   5.529   1.386  0.4173 -0.0820 -0.2954
 4577SOL    HW114020   3.933   5.473   1.346  0.6513 -0.0089  0.0157
 4577SOL    HW214021   3.846   5.610   1.329  0.3900 -0.2324 -0.5051
 4578SOL     OW14022   3.554   2.129   2.285  0.3254  0.4471  0.3162
 4578SOL    HW114023   3.471   2.122   2.340 -0.1038  0.5062 -0.3229
 4578SOL    HW214024   3.573   2.224   2.264  0.9474  0.4940  1.0468
 4579SOL     OW14025   4.137   1.933   2.662  0.1409  0.0507 -0.4113
 4579SOL    HW114026   4.124   2.000   2.588  0.5982 -0.4456 -0.9473
 4579SOL    HW214027   4.233   1.907   2.667 -0.1379 -1.0586 -0.6317
 4580SOL     OW14028   5.939   2.403   4.125  0.1156  0.0546  0.1711
 4580SOL    HW114029   6.020   2.370   4.174  1.7259  2.4525 -0.6509
 4580SOL    HW214030   5.914   2.338   4.054  1.2153 -0.8394  0.5668
 4581SOL     OW14031   3.922   1.007   5.131  0.8278 -0.2371  0.5064
 4581SOL    HW114032   4.021   1.021   5.118  1.0509 -1.7232  0.3898
 4581SOL    HW214033   3.900   0.912   5.112 -0.5050 -0.1219  1.3803
 4582SOL     OW14034   0.430   2.235   2.812 -0.1898 -0.2568 -0.4125
 4582SOL    HW114035   0.422   2.145   2.855 -2.5372 -0.1216 -0.4267
 4582SOL    HW214036   0.361   2.244   2.741 -1.0218  2.0933  0.5950
 4583SOL     OW14037   4.457   1.236   2.573  0.0438  0.3957 -0.1033
 4583SOL    HW114038   4.479   1.250   2.670 -0.3737  0.3053  0.0032
 4583SOL    HW214039   4.474   1.321   2.523 -0.8876  0.7996  0.2577
 4584SOL     OW14040   4.434   0.466   3.858  0.5177  0.0447 -0.3853
 4584SOL    HW114041   4.509   0.437   3.799  0.8553  2.6980 -1.3816
 4584SOL    HW214042   4.423   0.400   3.932  2.0203 -1.8302 -1.7269
 4585SOL     OW14043   5.058   1.091   3.068  0.1140 -0.2825 -0.7623
 4585SOL    HW114044   5.098   1.176   3.102 -1.7631  0.1955  0.3305
 4585SOL    HW214045   5.010   1.109   2.982 -0.1404 -0.2890 -0.6197
 4586SOL     OW14046   0.786   1.084   3.889  0.0046  0.7628  0.1963
 4586SOL    HW114047   0.839   1.090   3.804  0.2725 -1.2812  0.1783
 4586SOL    HW214048   0.688   1.078   3.867 -0.2481  3.3997  0.1988
 4587SOL     OW14049   4.453   0.623   4.257 -0.2389  0.5029  0.4915
 4587SOL    HW114050   4.389   0.547   4.261 -0.0967  0.3856  0.5359
 4587SOL    HW214051   4.505   0.627   4.343  1.4688 -0.8385 -0.4155
 4588SOL     OW14052   5.224   0.998   2.600 -0.4020  0.1133 -0.5216
 4588SOL    HW114053   5.153   0.935   2.569  0.1249 -1.1068  0.6472
 4588SOL    HW214054   5.299   1.000   2.533 -0.2326 -0.8552 -0.3814
 4589SOL     OW14055   4.444   1.402   4.295 -0.5852 -0.3531  0.2334
 4589SOL    HW114056   4.400   1.361   4.375 -0.8019  1.6252  1.2005
 4589SOL    HW214057   4.538   1.370   4.289 -1.0295 -1.7377  0.3412
 4590SOL     OW14058   5.226   5.492   2.589  0.1331 -0.3867 -0.2120
 4590SOL    HW114059   5.163   5.566   2.564 -1.0951 -1.8106 -1.5548
 4590SOL    HW214060   5.242   5.434   2.510 -1.1169 -3.1043  1.3687
 4591SOL     OW14061   4.383   5.414   0.503  0.1971  0.0786  0.4905
 4591SOL    HW114062   4.348   5.422   0.409  1.0999  0.3388  0.1629
 4591SOL    HW214063   4.373   5.319   0.534  1.1070 -0.3148 -0.3722
 4592SOL     OW14064   3.696   1.368   3.092 -0.4353 -0.3766  0.1617
 4592SOL    HW114065   3.704   1.403   3.186 -1.7949  1.4847 -0.3584
 4592SOL    HW214066   3.769   1.406   3.036 -0.1771 -0.7415  0.2471
 4593SOL     OW14067   3.976   2.301   5.378  0.1281 -0.2430 -0.6344
 4593SOL    HW114068   4.025   2.369   5.324 -0.7271  1.2213  0.3628
 4593SOL    HW214069   3.905   2.346   5.432  0.0484 -1.8305  0.6662
 4594SOL     OW14070   3.786   0.504   1.283  0.6467 -0.0549  0.7647
 4594SOL    HW114071   3.732   0.588   1.276 -1.8452 -1.4544  1.9930
 4594SOL    HW214072   3.819   0.493   1.377  2.0919  0.1511  0.3083
 4595SOL     OW14073   5.144   1.834   4.194 -0.2524 -0.0770 -0.1006
 4595SOL    HW114074   5.237   1.868   4.179 -0.9900  1.7566 -0.9020
 4595SOL    HW214075   5.123   1.834   4.291  0.4746 -0.1908  0.0596
 4596SOL     OW14076   0.664   1.801   2.521 -0.0422  0.3584 -0.5368
 4596SOL    HW114077   0.650   1.837   2.429  0.2106  0.9535 -0.3483
 4596SOL    HW214078   0.630   1.867   2.588  2.6492  1.4476 -0.0895
 4597SOL     OW14079   3.437   0.291   2.904 -0.0851 -0.5658  0.0835
 4597SOL    HW114080   3.496   0.372   2.906  0.8876 -1.2690  1.1553
 4597SOL    HW214081   3.346   0.315   2.938  0.4867 -0.1360  1.3445
 4598SOL     OW14082   5.919   2.254   3.217  0.0113  0.0034  0.0952
 4598SOL    HW114083   5.926   2.275   3.314  1.8528  1.9697 -0.3886
 4598SOL    HW214084   5.883   2.334   3.168 -1.5660 -1.1820 -0.8142
 4599SOL     OW14085   5.104   1.344   3.134  0.2406 -0.1513  0.4750
 4599SOL    HW114086   5.043   1.404   3.081  0.3666  0.6197  1.1925
 4599SOL    HW214087   5.080   1.349   3.231 -0.3947 -2.0251  0.4562
 4600SOL     OW14088   0.857   2.306   3.584 -0.3109  0.1683 -0.0788
 4600SOL    HW114089   0.783   2.308   3.516  0.8179  0.2587 -1.3590
 4600SOL    HW214090   0.919   2.382   3.567  0.3319 -0.1818  0.6812
 4601SOL     OW14091   3.806   2.145   4.221 -0.1039  0.1931 -0.1871
 4601SOL    HW114092   3.870   2.070   4.240 -0.8498 -0.2924  0.4878
 4601SOL    HW214093   3.835   2.227   4.271  0.6512  0.3373 -0.8371
 4602SOL     OW14094   2.232   0.450   2.788  0.3207  0.2395 -0.6844
 4602SOL    HW114095   2.309   0.401   2.748  0.5065  0.4742 -0.6160
 4602SOL    HW214096   2.160   0.385   2.814  0.1975  0.0834 -1.4008
 4603SOL     OW14097   4.840   0.666   2.340 -0.2329 -0.1760  0.1077
 4603SOL    HW114098   4.760   0.674   2.400 -0.5582  0.3718 -0.3836
 4603SOL    HW214099   4.810   0.635   2.250  0.1999 -0.6195  0.1172
 4604SOL     OW14100   4.320   1.731   3.522  0.4376  0.3361 -0.4786
 4604SOL    HW114101   4.367   1.731   3.610 -1.6739  2.0077  0.7560
 4604SOL    HW214102   4.306   1.637   3.491  0.4863 -0.3281  1.4094
 4605SOL     OW14103   4.775   0.476   1.722 -0.2611 -0.2971 -0.1893
 4605SOL    HW114104   4.747   0.459   1.628 -0.7515  1.6072 -0.4136
 4605SOL    HW214105   4.874   0.493   1.724 -0.6798  2.8170 -0.9104
 4606SOL     OW14106   2.994   4.994   2.536 -0.6411  0.0031 -0.1307
 4606SOL    HW114107   2.909   5.017   2.488 -0.8715 -0.3851  0.0836
 4606SOL    HW214108   2.996   5.039   2.625 -0.6897 -0.1045 -0.0750
 4607SOL     OW14109   5.636   1.172   2.236 -0.2086  0.5320  0.2781
 4607SOL    HW114110   5.645   1.140   2.142 -2.2204  1.5290 -0.2931
 4607SOL    HW214111   5.580   1.254   2.239 -0.6105  0.2469  2.4145
 4608SOL     OW14112   4.959   0.384   3.701 -0.0355 -0.1666  0.0232
 4608SOL    HW114113   4.966   0.468   3.755 -0.5048  0.1487 -0.3999
 4608SOL    HW214114   5.003   0.398   3.612  1.8048 -1.0590  0.7361
 4609SOL     OW14115   4.327   5.587   1.647 -0.1805 -0.2781 -0.0217
 4609SOL    HW114116   4.338   5.629   1.557 -1.5467  1.2138  0.4607
 4609SOL    HW214117   4.405   5.611   1.705 -0.3140  0.5097 -0.1638
 4610SOL     OW14118   5.375   2.204   3.000  0.2495  0.1677  0.1364
 4610SOL    HW114119   5.442   2.202   3.075  1.8571  0.5903 -1.2302
 4610SOL    HW214120   5.394   2.283   2.941 -1.9706  0.7524  0.1128
 4611SOL     OW14121   5.158   1.514   2.837  0.3370 -0.3489  0.0487
 4611SOL    HW114122   5.200   1.505   2.747 -1.1330 -2.0969 -0.5280
 4611SOL    HW214123   5.229   1.521   2.907  1.6851 -3.3680 -0.8608
 4612SOL     OW14124   4.615   0.693   1.756  0.5587  0.1737  0.3688
 4612SOL    HW114125   4.573   0.733   1.675  2.3054 -0.1958 -0.7527
 4612SOL    HW214126   4.672   0.616   1.730  2.3716  0.9760  1.7433
 4613SOL     OW14127   5.470   5.802   4.393 -0.5295 -0.2550 -0.1612
 4613SOL    HW114128   5.490   5.872   4.324 -2.2757  0.9741  0.4942
 4613SOL    HW214129   5.388   5.752   4.367 -1.4468  0.4886  1.1472
 4614SOL     OW14130   3.286   5.540   1.718  0.4444 -0.0643  0.4335
 4614SOL    HW114131   3.315   5.568   1.810 -0.1842  0.5607  0.4512
 4614SOL    HW214132   3.197   5.494   1.723  0.2492  0.2687  0.1045
 4615SOL     OW14133   4.762   0.797   4.390  0.0913  0.7507  0.1968
 4615SOL    HW114134   4.713   0.768   4.472  1.3111 -0.6211  0.4808
 4615SOL    HW214135   4.836   0.733   4.371  0.6219  1.7473 -1.2705
 4616SOL     OW14136   4.406   2.075   3.877 -1.0701 -0.2037 -0.2609
 4616SOL    HW114137   4.418   1.975   3.874 -2.0356 -0.3275 -0.1062
 4616SOL    HW214138   4.328   2.101   3.820 -0.2749  0.5692 -1.0357
 4617SOL     OW14139   5.689   0.963   2.865  0.2058  0.1717  0.9519
 4617SOL    HW114140   5.622   0.895   2.894  0.1661  0.3469  1.2748
 4617SOL    HW214141   5.671   1.050   2.912  0.4882  0.2985  0.8297
 4618SOL     OW14142   5.330   0.987   3.777 -0.2620 -0.1153 -0.5594
 4618SOL    HW114143   5.348   0.888   3.778 -2.1815 -0.6019 -2.8407
 4618SOL    HW214144   5.319   1.017   3.682 -0.4059  2.1648  0.1339
 4619SOL     OW14145   4.651   0.719   2.519 -0.2493 -0.0759  0.0454
 4619SOL    HW114146   4.673   0.726   2.617 -1.3728 -0.4108  0.3291
 4619SOL    HW214147   4.558   0.749   2.503  0.0940  0.4695 -1.0196
 4620SOL     OW14148   4.858   4.063   1.348 -0.8654 -0.3200 -0.2563
 4620SOL    HW114149   4.812   3.982   1.312 -0.0078 -1.4394  1.0352
 4620SOL    HW214150   4.929   4.034   1.413  1.3017  1.3316 -1.7520
 4621SOL     OW14151   5.412   1.165   2.773 -0.1255 -0.1234 -0.4462
 4621SOL    HW114152   5.354   1.091   2.741  1.0145 -1.3585  0.2601
 4621SOL    HW214153   5.508   1.140   2.761  0.2984  1.6599 -1.1087
 4622SOL     OW14154   4.230   1.904   1.493 -0.1863  0.1522 -0.2941
 4622SOL    HW114155   4.185   1.885   1.406  0.5836 -1.7445 -0.3250
 4622SOL    HW214156   4.183   1.856   1.566 -0.7481  1.6317  0.3621
 4623SOL     OW14157   4.125   0.056   1.134  0.2752  0.2162 -0.8884
 4623SOL    HW114158   4.222   0.032   1.134  0.6087  1.3311  0.8043
 4623SOL    HW214159   4.072  -0.019   1.174  0.5850  0.0666 -0.7556
 4624SOL     OW14160   3.822   0.730   3.665 -0.0525 -0.3004 -0.0390
 4624SOL    HW114161   3.893   0.752   3.731 -1.2449  0.6437  0.9796
 4624SOL    HW214162   3.864   0.700   3.579  1.5838  1.6271  0.0287
 4625SOL     OW14163   5.584   1.941   2.860 -0.4043 -0.3007 -0.4762
 4625SOL    HW114164   5.515   1.888   2.812  0.9460 -3.1779  0.4847
 4625SOL    HW214165   5.541   2.018   2.907 -3.0087 -2.0245  0.2023
 4626SOL     OW14166   3.837   0.731   1.827  0.0267 -0.1971 -0.0507
 4626SOL    HW114167   3.870   0.741   1.921  0.5876 -2.9269  0.1174
 4626SOL    HW214168   3.911   0.756   1.763  0.1986  0.0458  0.2416
 4627SOL     OW14169   4.772   3.432   3.468  0.1461  0.0645  0.1665
 4627SOL    HW114170   4.685   3.394   3.436 -0.6336  0.6750  1.4637
 4627SOL    HW214171   4.821   3.363   3.522 -0.2729  0.2062  0.7379
 4628SOL     OW14172   4.787   0.190   0.533  0.0935 -0.3025 -0.3653
 4628SOL    HW114173   4.694   0.154   0.535 -0.3223  0.6527 -1.2192
 4628SOL    HW214174   4.788   0.276   0.482  1.1880  0.4546  0.8599
 4629SOL     OW14175   5.477   1.836   4.432 -0.7015 -0.1352  0.6722
 4629SOL    HW114176   5.544   1.783   4.483  0.1509  0.1084 -0.1662
 4629SOL    HW214177   5.465   1.925   4.476  1.2829  0.7431 -0.3926
 4630SOL     OW14178   4.106   0.415   3.344 -0.1175  0.4464 -0.3610
 4630SOL    HW114179   4.108   0.443   3.248 -1.5299 -1.5581 -1.0282
 4630SOL    HW214180   4.199   0.416   3.381  1.1010 -2.4026 -2.9162
 4631SOL     OW14181   4.452   0.764   1.551  0.3423 -0.4261  0.4414
 4631SOL    HW114182   4.474   0.809   1.465  0.7292  0.4668  0.9885
 4631SOL    HW214183   4.453   0.665   1.539  0.6016 -0.3090 -0.5205
 4632SOL     OW14184   0.047   0.363   3.023  0.5510 -0.1574 -0.2055
 4632SOL    HW114185   0.089   0.371   2.933 -0.1685  0.1874 -0.5196
 4632SOL    HW214186   0.057   0.269   3.056  3.8914  0.4771  0.9248
 4633SOL     OW14187   5.524   1.566   2.686 -0.2235 -0.3049  0.0319
 4633SOL    HW114188   5.592   1.498   2.714 -0.6941 -1.0487 -0.5786
 4633SOL    HW214189   5.570   1.652   2.663  0.8766 -1.5355 -2.8890
 4634SOL     OW14190   0.137   0.771   3.207 -0.7639  0.5570 -0.4628
 4634SOL    HW114191   0.170   0.865   3.211  1.5559 -0.1962  0.4905
 4634SOL    HW214192   0.139   0.732   3.300  0.3986 -1.0212 -1.1004
 4635SOL     OW14193   4.328   0.178   2.522 -0.0495  0.1704 -0.3695
 4635SOL    HW114194   4.341   0.234   2.440 -2.6734  1.1964 -0.2080
 4635SOL    HW214195   4.350   0.083   2.502  0.3575  0.5661 -1.9448
 4636SOL     OW14196   3.876   1.553   3.002  0.3942  0.5418 -0.2713
 4636SOL    HW114197   3.827   1.636   2.976 -1.5684  0.2921  2.2646
 4636SOL    HW214198   3.955   1.577   3.057  0.2896  0.7706 -0.2172
 4637SOL     OW14199   5.131   0.808   3.122  0.7006 -0.0481  0.4066
 4637SOL    HW114200   5.127   0.906   3.102  1.3521 -0.0389  0.3005
 4637SOL    HW214201   5.190   0.762   3.054 -1.2299 -0.8566 -0.8119
 4638SOL     OW14202   5.899   1.067   2.669  0.1671 -0.2401 -0.1334
 4638SOL    HW114203   5.912   1.007   2.590 -0.1885 -0.5274  0.0263
 4638SOL    HW214204   5.814   1.042   2.717  1.1614 -1.1207  1.2635
 4639SOL     OW14205   3.889   1.160   2.732  0.3917  0.0170 -0.2237
 4639SOL    HW114206   3.906   1.151   2.831  0.1780 -0.6666 -0.2413
 4639SOL    HW214207   3.962   1.215   2.691  0.2572  0.6643  0.3804
 4640SOL     OW14208   0.558   0.945   4.381 -0.1958 -0.5350 -0.4001
 4640SOL    HW114209   0.462   0.965   4.362  0.2626 -0.0571 -2.4455
 4640SOL    HW214210   0.573   0.846   4.379 -1.2819 -0.9853  3.6931
 4641SOL     OW14211   4.951   1.165   2.823  0.4795  0.1492  0.2073
 4641SOL    HW114212   5.019   1.191   2.755 -0.0546 -1.0089 -0.8047
 4641SOL    HW214213   4.891   1.094   2.786 -1.6374  1.4781  0.8722
 4642SOL     OW14214   5.145   3.443   4.986  0.3493  0.4416  0.1240
 4642SOL    HW114215   5.076   3.391   5.036  0.4899  0.1556  0.0220
 4642SOL    HW214216   5.100   3.496   4.913  0.3005 -0.2322 -0.3488
 4643SOL     OW14217   0.530   1.937   2.705  0.4632  0.0263 -0.1175
 4643SOL    HW114218   0.457   1.900   2.764  1.5144 -0.8702  0.6505
 4643SOL    HW214219   0.602   1.976   2.762  0.5501  1.0322 -0.8812
 4644SOL     OW14220   1.154   2.148   2.140 -0.0508  0.6831 -0.4399
 4644SOL    HW114221   1.196   2.234   2.111  0.4063  0.4398 -0.5167
 4644SOL    HW214222   1.055   2.154   2.130  0.0976  0.4571 -2.4471
 4645SOL     OW14223   5.145   4.956   2.312 -0.6246  0.5608 -0.2781
 4645SOL    HW114224   5.212   4.997   2.374 -0.0515  2.2645 -1.9317
 4645SOL    HW214225   5.168   4.859   2.298 -0.6580  0.1882  1.9459
 4646SOL     OW14226   5.332   1.348   3.361 -0.2235 -0.4224  0.4802
 4646SOL    HW114227   5.358   1.433   3.408 -0.1357  0.4786 -1.1504
 4646SOL    HW214228   5.234   1.332   3.374 -0.6219  0.9177 -0.7012
 4647SOL     OW14229   0.467   1.392   2.151  0.2277 -0.2696 -0.1135
 4647SOL    HW114230   0.447   1.302   2.112 -0.5712 -0.2115  0.1519
 4647SOL    HW214231   0.543   1.434   2.101 -0.0190 -0.6874 -0.8436
 4648SOL     OW14232   4.688   1.310   4.267 -0.3545 -0.2485  0.1004
 4648SOL    HW114233   4.758   1.381   4.276 -1.2357  0.7484 -0.7018
 4648SOL    HW214234   4.724   1.223   4.301  2.1193 -0.3377 -2.4208
 4649SOL     OW14235   5.586   0.384   1.971  0.0308  0.0273 -0.2562
 4649SOL    HW114236   5.683   0.401   1.955  0.4730  0.8145  2.7758
 4649SOL    HW214237   5.533   0.462   1.937  0.6996  0.7017  0.2127
 4650SOL     OW14238   4.121   2.375   2.182 -0.3943 -0.0013 -0.2875
 4650SOL    HW114239   4.100   2.291   2.133  0.5286 -1.1104  1.1196
 4650SOL    HW214240   4.210   2.366   2.228 -0.1850  1.8154 -0.2360
 4651SOL     OW14241   4.527   2.062   2.168 -0.8190 -0.3029  0.1144
 4651SOL    HW114242   4.606   2.122   2.177 -0.5362 -0.8681  1.7835
 4651SOL    HW214243   4.555   1.967   2.182 -1.6235 -0.6157 -0.2916
 4652SOL     OW14244   3.904   0.830   3.017 -0.1553 -0.1818 -0.0294
 4652SOL    HW114245   3.840   0.796   2.948 -0.3008  0.2917 -0.1264
 4652SOL    HW214246   3.903   0.769   3.097  0.8080 -1.3490 -0.8713
 4653SOL     OW14247   0.350   1.157   2.009  0.1090 -0.4514  0.1774
 4653SOL    HW114248   0.394   1.079   2.055 -0.2823 -1.5551 -1.2510
 4653SOL    HW214249   0.252   1.139   1.999  0.2126 -0.3495 -1.2537
 4654SOL     OW14250   0.118   1.897   2.777  0.6512  0.1221  0.6402
 4654SOL    HW114251   0.122   1.840   2.694  0.0111 -0.1940  0.8177
 4654SOL    HW214252   0.058   1.975   2.760  1.0888  0.4493  0.5791
 4655SOL     OW14253   4.348   0.212   1.794 -0.0985 -0.3812 -0.1968
 4655SOL    HW114254   4.441   0.237   1.822 -0.7198  1.2137  0.5662
 4655SOL    HW214255   4.312   0.144   1.858  0.3216 -0.5727 -0.1550
 4656SOL     OW14256   2.433   0.960   2.503 -0.7952  0.1358  0.3317
 4656SOL    HW114257   2.334   0.957   2.517 -1.0954 -0.0351 -1.5213
 4656SOL    HW214258   2.453   1.013   2.421  0.6405 -0.0913  0.5097
 4657SOL     OW14259   5.511   1.044   4.025 -0.2182  0.3354 -0.1065
 4657SOL    HW114260   5.566   0.961   4.032  0.3274  0.3866 -2.8501
 4657SOL    HW214261   5.422   1.023   3.984 -1.0275  0.7894  1.3230
 4658SOL     OW14262   4.817   1.105   3.167 -0.1825  0.0374 -0.0341
 4658SOL    HW114263   4.794   1.183   3.109  1.1133 -0.9436 -1.9784
 4658SOL    HW214264   4.900   1.061   3.133 -0.6305 -1.9365  1.2289
 4659SOL     OW14265   4.887   5.856   2.871  0.0119 -0.5882  0.6434
 4659SOL    HW114266   4.904   5.836   2.774  0.0672 -0.7067  0.6785
 4659SOL    HW214267   4.946   5.799   2.928 -0.4471 -0.9552  0.7598
 4660SOL     OW14268   4.331   5.663   4.651 -0.1828 -0.2175  0.0911
 4660SOL    HW114269   4.304   5.755   4.681  1.8116  0.3561  0.3101
 4660SOL    HW214270   4.353   5.607   4.731 -0.6050 -0.6271 -0.0763
 4661SOL     OW14271   4.211   0.617   2.189 -0.1536 -0.5076 -0.0566
 4661SOL    HW114272   4.252   0.667   2.113  0.0159 -1.1844 -0.4240
 4661SOL    HW214273   4.203   0.520   2.164 -0.4744 -0.6657  0.6341
 4662SOL     OW14274   5.913   1.193   2.257  0.0317  0.0520  0.1709
 4662SOL    HW114275   5.814   1.179   2.250  0.0099  0.9021 -2.2957
 4662SOL    HW214276   5.955   1.113   2.299 -1.8667  0.5612  3.3299
 4663SOL     OW14277   4.822   1.268   1.886 -0.2784  0.2253  0.1045
 4663SOL    HW114278   4.746   1.322   1.922 -0.5079  0.1099 -0.2051
 4663SOL    HW214279   4.846   1.197   1.952 -1.7204 -0.9861 -0.5973
 4664SOL     OW14280   4.954   0.392   3.014  0.0657 -0.0781 -0.1919
 4664SOL    HW114281   4.978   0.447   2.934  2.1989  0.5338  0.7829
 4664SOL    HW214282   4.953   0.295   2.989  3.5726 -0.1840 -0.4734
 4665SOL     OW14283   3.444   2.585   3.238  0.0394  0.4650  0.6189
 4665SOL    HW114284   3.345   2.597   3.226 -0.4699 -1.6955  2.1559
 4665SOL    HW214285   3.491   2.612   3.153 -1.9668  0.2121 -0.6484
 4666SOL     OW14286   4.437   0.834   3.301 -0.4220  0.6107  0.1342
 4666SOL    HW114287   4.461   0.808   3.394 -1.6528 -0.6762  0.1205
 4666SOL    HW214288   4.518   0.828   3.242 -0.5255 -3.1912  0.1526
 4667SOL     OW14289   0.648   0.949   4.662 -0.6678  0.0680 -0.5956
 4667SOL    HW114290   0.584   0.892   4.714  0.3716  0.8042  1.5897
 4667SOL    HW214291   0.602   0.983   4.579 -2.6614 -0.4882  0.2137
 4668SOL     OW14292   3.628   0.939   3.643 -0.3578 -0.4526  0.5330
 4668SOL    HW114293   3.557   0.917   3.576 -0.0904  0.5286 -0.0969
 4668SOL    HW214294   3.702   0.871   3.636 -0.7322 -0.8568  0.4397
 4669SOL     OW14295   5.060   0.474   1.327 -0.7130  0.8510 -0.2262
 4669SOL    HW114296   4.967   0.453   1.297 -1.3021  2.4126  0.3378
 4669SOL    HW214297   5.106   0.529   1.258 -1.4293  2.8888  0.8018
 4670SOL     OW14298   5.497   0.467   2.417  0.5453  0.1791  0.1802
 4670SOL    HW114299   5.498   0.422   2.328  1.7716 -2.0179  1.2312
 4670SOL    HW214300   5.403   0.477   2.448  0.2017 -1.1042 -0.3879
 4671SOL     OW14301   5.015   1.780   5.109 -0.3851 -0.3217 -0.0563
 4671SOL    HW114302   4.996   1.831   5.192 -2.0829 -1.1998  0.1268
 4671SOL    HW214303   4.985   1.685   5.120 -1.9672 -0.1232 -2.1286
 4672SOL     OW14304   4.777   2.664   4.906 -0.1250 -0.4297  0.1860
 4672SOL    HW114305   4.848   2.601   4.937  0.5907  0.9191  1.3940
 4672SOL    HW214306   4.780   2.748   4.961 -1.0364  0.6836 -1.3825
 4673SOL     OW14307   2.150   1.459   4.143  0.2011 -0.1448  0.3157
 4673SOL    HW114308   2.111   1.371   4.170  0.5524  0.2158  2.1796
 4673SOL    HW214309   2.235   1.474   4.194  0.4665  1.0050 -0.4390
 4674SOL     OW14310   4.228   0.139   1.494  0.5936 -0.5469  0.1196
 4674SOL    HW114311   4.259   0.156   1.588 -0.9465 -0.2255  0.5860
 4674SOL    HW214312   4.133   0.109   1.495 -0.4145  2.2348 -1.4905
 4675SOL     OW14313   4.688   5.953   2.120  0.1087 -0.5999  0.0426
 4675SOL    HW114314   4.591   5.976   2.117 -0.0415 -1.2535 -0.1953
 4675SOL    HW214315   4.740   6.025   2.074 -0.4263 -1.0457 -1.3128
 4676SOL     OW14316   4.474   0.721   3.568  0.1845  0.4689  0.3721
 4676SOL    HW114317   4.380   0.749   3.588  0.0823  0.8961 -0.6753
 4676SOL    HW214318   4.527   0.722   3.653 -0.1454  2.5781  0.6079
 4677SOL     OW14319   3.271   1.254   3.278 -0.2465  0.1288  0.4729
 4677SOL    HW114320   3.185   1.291   3.243 -0.9146 -0.0875  1.8172
 4677SOL    HW214321   3.339   1.254   3.205 -1.3708  0.3271 -0.6163
 4678SOL     OW14322   4.436   1.932   3.221  0.2572  0.7170 -0.5813
 4678SOL    HW114323   4.487   2.008   3.178  0.7734 -0.1040 -1.4632
 4678SOL    HW214324   4.501   1.865   3.257 -0.1777  1.2016  1.2020
 4679SOL     OW14325   4.533   0.546   2.153 -0.0486 -0.2655 -0.7060
 4679SOL    HW114326   4.494   0.511   2.068 -1.9444 -0.5555  0.2231
 4679SOL    HW214327   4.519   0.645   2.158  1.6697  0.0456 -1.5027
 4680SOL     OW14328   4.954   0.948   3.775 -0.1466 -0.0492  0.4189
 4680SOL    HW114329   4.911   0.892   3.704  0.9962  0.0560 -0.3940
 4680SOL    HW214330   4.909   1.038   3.778 -1.2067 -0.5790  0.9091
 4681SOL     OW14331   2.881   0.688   1.443 -0.0769 -0.1209  0.4886
 4681SOL    HW114332   2.837   0.635   1.370  2.0652 -1.3788 -0.0032
 4681SOL    HW214333   2.917   0.625   1.512  2.9160  0.5280 -0.3127
 4682SOL     OW14334   4.836   2.465   3.116 -0.1895 -0.6801 -0.1804
 4682SOL    HW114335   4.913   2.411   3.150  0.2388 -1.5392 -2.3774
 4682SOL    HW214336   4.838   2.556   3.157  0.6496 -1.4333  1.5173
 4683SOL     OW14337   3.845   1.660   4.132 -0.3846 -0.0694 -0.3679
 4683SOL    HW114338   3.863   1.674   4.034 -0.5848 -1.6584 -0.6533
 4683SOL    HW214339   3.747   1.661   4.148 -0.3326  1.6684  0.0914
 4684SOL     OW14340   4.201   1.160   2.669 -0.8076  0.1894  0.3586
 4684SOL    HW114341   4.147   1.098   2.611 -1.4085  0.2855  0.8071
 4684SOL    HW214342   4.282   1.189   2.620 -1.2834  0.2267 -0.4215
 4685SOL     OW14343   3.470   0.922   4.141 -0.5999  0.0236  0.2333
 4685SOL    HW114344   3.388   0.878   4.106 -0.1416 -0.2975 -0.4722
 4685SOL    HW214345   3.522   0.857   4.196 -2.1577  0.9921  3.0464
 4686SOL     OW14346   3.556   1.103   4.820 -0.1490  0.5247  0.4989
 4686SOL    HW114347   3.622   1.071   4.751  0.5408  3.3778 -0.2978
 4686SOL    HW214348   3.594   1.087   4.911 -0.2352 -1.5689  0.2355
 4687SOL     OW14349   5.875   1.158   3.127 -0.1581 -0.3047  0.4994
 4687SOL    HW114350   5.806   1.187   3.060 -0.0328 -0.1992  0.4148
 4687SOL    HW214351   5.957   1.215   3.118  0.9825 -2.0600 -1.1891
 4688SOL     OW14352   4.581   0.838   1.309 -0.0875 -0.0337 -0.0023
 4688SOL    HW114353   4.616   0.917   1.359 -1.0442 -0.3153  1.1391
 4688SOL    HW214354   4.578   0.860   1.211  4.4718 -0.4374 -0.4184
 4689SOL     OW14355   4.617   1.229   3.558 -0.6616 -0.1379  0.2491
 4689SOL    HW114356   4.608   1.148   3.615  0.4268 -1.1746 -0.9888
 4689SOL    HW214357   4.611   1.311   3.615 -1.1910 -1.0843  1.6026
 4690SOL     OW14358   4.172   0.915   4.785  0.2928  0.1137  0.4493
 4690SOL    HW114359   4.204   1.002   4.746  1.9757 -0.2246  0.9909
 4690SOL    HW214360   4.110   0.871   4.720 -0.1129  1.4335 -0.0907
 4691SOL     OW14361   3.946   0.165   3.046  0.7412  0.2743  0.2207
 4691SOL    HW114362   4.018   0.109   3.005  1.3820  0.0409  1.6264
 4691SOL    HW214363   3.861   0.111   3.050  0.9758 -0.0998  0.2392
 4692SOL     OW14364   5.897   2.351   2.817  0.2427 -0.1413  0.2468
 4692SOL    HW114365   5.832   2.366   2.892 -0.2960 -2.1058  0.2209
 4692SOL    HW214366   5.985   2.393   2.840 -0.5557  1.2343  0.9500
 4693SOL     OW14367   3.714   0.732   0.924  0.0622 -0.0059  0.2136
 4693SOL    HW114368   3.634   0.714   0.867  0.4431  3.0493 -1.4996
 4693SOL    HW214369   3.789   0.671   0.897 -1.0422 -1.5462  0.4933
 4694SOL     OW14370   4.677   2.098   4.177 -0.3064 -0.3395  0.3708
 4694SOL    HW114371   4.596   2.052   4.213 -0.0645 -0.0385  1.3405
 4694SOL    HW214372   4.759   2.054   4.214 -0.0570  0.1658  0.4319
 4695SOL     OW14373   5.507   3.033   1.657 -0.4108  0.2623  0.1757
 4695SOL    HW114374   5.475   3.115   1.704  0.7240  0.8198 -0.0083
 4695SOL    HW214375   5.456   2.954   1.691 -0.4664  0.8188  1.4433
 4696SOL     OW14376   4.612   1.061   1.462 -0.0582  0.0111  0.4087
 4696SOL    HW114377   4.547   1.053   1.538  0.3486 -0.1950  0.7368
 4696SOL    HW214378   4.683   1.127   1.486  0.1547 -0.1654  0.2688
 4697SOL     OW14379   1.254   1.293   3.857 -0.2445 -0.1734 -0.2419
 4697SOL    HW114380   1.291   1.272   3.767  0.9453 -0.4647  0.2896
 4697SOL    HW214381   1.328   1.322   3.918 -0.9959 -0.1438  0.6898
 4698SOL     OW14382   6.016   1.262   5.545  0.1242  0.5347  0.3817
 4698SOL    HW114383   5.925   1.236   5.512  0.8853 -1.2262 -0.4995
 4698SOL    HW214384   6.021   1.361   5.555 -1.5161  0.7622 -0.6732
 4699SOL     OW14385   4.862   2.100   3.768 -0.1761  0.6897 -0.5786
 4699SOL    HW114386   4.861   2.027   3.836  0.5757 -0.2820 -1.6058
 4699SOL    HW214387   4.770   2.112   3.731 -0.1397 -0.2720 -0.9806
 4700SOL     OW14388   5.810   0.628   3.556  0.3943  0.0001 -0.2532
 4700SOL    HW114389   5.732   0.687   3.538  0.7472  0.5147 -0.1172
 4700SOL    HW214390   5.780   0.532   3.555 -0.2979  0.2063  0.1264
 4701SOL     OW14391   5.359   0.624   2.136  0.5819  0.4501  0.7022
 4701SOL    HW114392   5.296   0.555   2.173 -0.3858  0.9331 -0.0108
 4701SOL    HW214393   5.329   0.715   2.164 -0.5454  0.8901 -1.7312
 4702SOL     OW14394   0.059   1.578   2.008  0.0633 -0.0498 -0.3052
 4702SOL    HW114395  -0.018   1.636   1.983 -0.9760 -1.6643 -1.0275
 4702SOL    HW214396   0.035   1.525   2.090  0.0084 -1.1989 -1.0308
 4703SOL     OW14397   4.774   0.621   5.495 -0.2864 -0.3747 -0.0127
 4703SOL    HW114398   4.866   0.658   5.497 -0.0866 -0.8922  0.5976
 4703SOL    HW214399   4.765   0.556   5.419 -0.8007  1.2956 -1.4365
 4704SOL     OW14400   5.643   0.105   2.300 -0.3892  0.0114  0.2751
 4704SOL    HW114401   5.579   0.172   2.264  0.6629  0.8609 -0.0757
 4704SOL    HW214402   5.697   0.147   2.373 -0.4269 -0.7804  0.7733
 4705SOL     OW14403   2.254   1.613   3.337  0.1664 -0.2843  0.1660
 4705SOL    HW114404   2.341   1.591   3.381  1.1980  1.5162 -0.8220
 4705SOL    HW214405   2.250   1.570   3.247  0.0175 -0.4046  0.2300
 4706SOL     OW14406   5.109   1.521   0.980  0.1283 -0.6113 -0.6177
 4706SOL    HW114407   5.098   1.562   1.071  0.0861  1.0030 -1.3076
 4706SOL    HW214408   5.206   1.513   0.959  0.1328 -0.2603 -0.7354
 4707SOL     OW14409   0.561   1.666   3.944 -0.7678  0.4584 -0.2778
 4707SOL    HW114410   0.617   1.714   4.012  0.2035  0.1966 -0.8674
 4707SOL    HW214411   0.620   1.605   3.890 -1.9184 -1.1946  0.2667
 4708SOL     OW14412   6.007   0.937   2.912  0.3268 -0.0685  0.0368
 4708SOL    HW114413   5.941   0.981   2.851  0.0633 -1.1507 -0.4899
 4708SOL    HW214414   6.015   0.990   2.996 -0.5427  0.5635 -0.2612
 4709SOL     OW14415   2.425   0.444   1.934 -0.1371 -0.2658  0.0788
 4709SOL    HW114416   2.430   0.381   2.011 -0.7958  2.1399  2.2144
 4709SOL    HW214417   2.346   0.423   1.877 -0.6622 -1.0006  1.0701
 4710SOL     OW14418   4.463   1.802   1.029  0.3886  0.4166  0.5716
 4710SOL    HW114419   4.555   1.782   1.062 -0.2851 -1.8439  1.2207
 4710SOL    HW214420   4.396   1.759   1.088 -0.9688 -1.0311 -1.8792
 4711SOL     OW14421   4.427   0.806   2.101 -0.2207  0.1432 -0.3762
 4711SOL    HW114422   4.390   0.899   2.106  0.3696  0.3502  0.4396
 4711SOL    HW214423   4.415   0.770   2.009  0.5059  1.4436 -1.0076
 4712SOL     OW14424   4.797   1.498   1.008 -0.1040 -0.1399  0.6507
 4712SOL    HW114425   4.741   1.456   0.937  0.5805 -0.5251  0.3239
 4712SOL    HW214426   4.891   1.465   1.000  0.5741  1.7429  0.1068
 4713SOL     OW14427   5.346   1.630   1.596  0.0550  0.1052  0.2690
 4713SOL    HW114428   5.373   1.534   1.584 -0.6526  0.2956 -4.5660
 4713SOL    HW214429   5.383   1.663   1.683  2.1671 -3.8755  1.1719
 4714SOL     OW14430   5.095   2.275   3.148  0.0620  0.4761 -0.0414
 4714SOL    HW114431   5.151   2.232   3.218  0.5024  1.1560  0.0317
 4714SOL    HW214432   5.142   2.356   3.112 -1.1414  1.4455  0.4879
 4715SOL     OW14433   1.860   1.225   3.117  0.5810 -0.3277  0.2113
 4715SOL    HW114434   1.842   1.322   3.099 -1.0179 -0.8007 -1.0432
 4715SOL    HW214435   1.795   1.191   3.185 -1.3044 -1.2840 -1.9330
 4716SOL     OW14436   4.506   1.447   2.412 -0.0021 -0.3412 -0.3163
 4716SOL    HW114437   4.459   1.427   2.326  1.8436 -0.5582 -1.3247
 4716SOL    HW214438   4.592   1.494   2.393  0.2968 -0.0914  1.4523
 4717SOL     OW14439   4.550   5.854   1.736  0.5996 -0.1808  0.0855
 4717SOL    HW114440   4.485   5.849   1.811 -0.6328 -1.5557 -1.0319
 4717SOL    HW214441   4.615   5.929   1.754 -1.6556  1.7125  0.9106
 4718SOL     OW14442   3.736   0.780   2.765  0.1132 -0.1903 -0.3520
 4718SOL    HW114443   3.780   0.841   2.700 -0.2862  1.7614  1.1142
 4718SOL    HW214444   3.652   0.743   2.725 -0.6848  1.8052 -0.6234
 4719SOL     OW14445   5.333   1.581   3.093  0.4599 -0.5854 -0.8226
 4719SOL    HW114446   5.271   1.553   3.167  0.5479  1.8955  0.2738
 4719SOL    HW214447   5.428   1.574   3.126  0.5794 -0.9003 -1.2309
 4720SOL     OW14448   2.497   1.336   1.942  0.4611 -0.0421 -0.3632
 4720SOL    HW114449   2.529   1.258   1.888 -1.4219 -0.3952 -1.0329
 4720SOL    HW214450   2.465   1.408   1.880  1.0710  0.7978  0.2708
 4721SOL     OW14451   5.071   1.528   3.552 -0.1458 -0.2161  0.0089
 4721SOL    HW114452   5.158   1.574   3.534 -0.0796  0.2483  1.3564
 4721SOL    HW214453   5.026   1.572   3.630 -1.1702 -1.0155 -0.1047
 4722SOL     OW14454   4.718   0.072   3.674  0.3218  0.1745 -0.1692
 4722SOL    HW114455   4.794   0.085   3.612  0.5279 -0.9868 -0.1916
 4722SOL    HW214456   4.712  -0.025   3.700 -1.1214  0.2367 -0.1525
 4723SOL     OW14457   3.937   5.789   1.692 -0.0989  0.1881 -0.0419
 4723SOL    HW114458   4.000   5.803   1.615  0.6709  0.3697  0.6166
 4723SOL    HW214459   3.900   5.696   1.687 -0.9734  0.5771 -1.2954
 4724SOL     OW14460   4.018   1.276   2.091 -0.4415 -0.1218  0.7906
 4724SOL    HW114461   3.976   1.187   2.108 -0.4725 -0.2932 -0.1336
 4724SOL    HW214462   4.096   1.264   2.028 -1.0331  0.6195 -0.1090
 4725SOL     OW14463   2.885   0.112   1.795 -0.1721 -0.1460 -0.1740
 4725SOL    HW114464   2.803   0.071   1.756 -2.3524  0.6641  3.0911
 4725SOL    HW214465   2.869   0.209   1.812  1.1460 -0.1417  1.2618
 4726SOL     OW14466   4.958   0.514   2.101  0.3954 -0.3072  0.3338
 4726SOL    HW114467   5.041   0.494   2.153 -0.1865 -0.8400  1.0933
 4726SOL    HW214468   4.973   0.594   2.043  1.0513  0.3708  1.3972
 4727SOL     OW14469   5.080   0.312   4.127  0.6191  0.1594 -0.3357
 4727SOL    HW114470   5.076   0.410   4.106  0.7232  0.0205 -1.0438
 4727SOL    HW214471   5.062   0.260   4.044  0.2293 -0.4265  0.1107
 4728SOL     OW14472   5.860   1.551   3.146  0.1880 -0.1474 -0.5125
 4728SOL    HW114473   5.917   1.503   3.079  1.0121 -0.2471  0.2409
 4728SOL    HW214474   5.855   1.648   3.123  0.2042 -0.2343 -0.8889
 4729SOL     OW14475   4.666   1.324   3.074 -0.1636  0.4865 -0.2283
 4729SOL    HW114476   4.646   1.336   3.171  1.7566 -0.2613  0.2967
 4729SOL    HW214477   4.730   1.394   3.044  0.5803 -0.2994 -0.5127
 4730SOL     OW14478   0.932   1.930   3.025 -0.4818  0.0873 -0.4926
 4730SOL    HW114479   0.999   1.862   3.056 -0.7238  0.2511  0.4233
 4730SOL    HW214480   0.956   1.961   2.933 -0.2285 -1.0477 -0.8223
 4731SOL     OW14481   5.176   2.074   3.309 -0.6419  0.0545 -0.3656
 4731SOL    HW114482   5.242   2.042   3.241 -0.2204  0.2750 -0.0703
 4731SOL    HW214483   5.097   2.013   3.312 -0.7183  0.1095 -1.1299
 4732SOL     OW14484   0.759   1.464   2.319 -0.0413 -0.2531  0.6167
 4732SOL    HW114485   0.688   1.488   2.385  1.5792  3.0423  1.3609
 4732SOL    HW214486   0.721   1.470   2.226 -0.8495  1.1569  1.0093
 4733SOL     OW14487   5.126   5.973   2.368  0.1763  0.3446 -0.5464
 4733SOL    HW114488   5.109   5.958   2.271  0.0926  1.8687 -0.7963
 4733SOL    HW214489   5.051   5.933   2.422  0.8403 -1.5922 -0.9994
 4734SOL     OW14490   4.508   0.921   2.780  0.1922  0.1268  0.1182
 4734SOL    HW114491   4.554   0.862   2.847 -0.1316  0.3177  0.5103
 4734SOL    HW214492   4.459   0.994   2.827  2.3112  2.0036 -0.3964
 4735SOL     OW14493   5.791   0.312   5.309 -0.0276  0.3929 -0.1196
 4735SOL    HW114494   5.742   0.244   5.254 -0.1437  1.2858 -1.1426
 4735SOL    HW214495   5.744   0.399   5.305  0.9759  0.9541 -0.1470
 4736SOL     OW14496   0.635   1.435   2.775 -0.5153  0.3453 -0.4927
 4736SOL    HW114497   0.654   1.514   2.832  0.7453 -0.2357 -0.0741
 4736SOL    HW214498   0.619   1.465   2.681 -0.1318  1.1126 -0.3196
 4737SOL     OW14499   5.376   2.033   1.809  0.0383  0.3733 -0.5983
 4737SOL    HW114500   5.431   1.950   1.795  1.0484  1.0464 -0.7179
 4737SOL    HW214501   5.435   2.113   1.804 -0.4116  1.0046  2.1446
 4738SOL     OW14502   0.121   1.296   2.419  0.2279 -0.2130  0.3210
 4738SOL    HW114503   0.031   1.304   2.376  0.9308 -0.0872 -1.2183
 4738SOL    HW214504   0.116   1.234   2.498 -0.9803 -1.1008 -0.4227
 4739SOL     OW14505   4.225   1.694   2.126  0.2655 -0.4191 -0.3769
 4739SOL    HW114506   4.151   1.636   2.092 -0.3071  0.6237 -0.9357
 4739SOL    HW214507   4.271   1.737   2.049  2.8308 -2.6083 -0.2308
 4740SOL     OW14508   3.296   5.353   0.715 -0.3119  0.6027 -0.5235
 4740SOL    HW114509   3.318   5.395   0.627 -1.4326 -1.7282 -2.0149
 4740SOL    HW214510   3.312   5.419   0.788  1.0471  2.4940 -2.4091
 4741SOL     OW14511   5.435   1.888   2.145 -0.2250  0.3254 -0.0756
 4741SOL    HW114512   5.441   1.840   2.233  0.6513  1.3605  0.4557
 4741SOL    HW214513   5.353   1.858   2.096 -1.2126  0.3724  1.4837
 4742SOL     OW14514   3.695   1.219   4.349  0.4708  0.9026 -0.1272
 4742SOL    HW114515   3.606   1.263   4.363 -0.0028 -0.3469  1.1288
 4742SOL    HW214516   3.701   1.184   4.256 -0.9722 -0.2159  0.1629
 4743SOL     OW14517   4.499   1.274   2.848 -0.3826  0.1896  0.0047
 4743SOL    HW114518   4.439   1.196   2.868  1.5250 -1.0033  1.3896
 4743SOL    HW214519   4.541   1.307   2.932 -1.0983  2.7731 -0.5560
 4744SOL     OW14520   5.765   1.381   4.596  0.1404  0.9335  0.1994
 4744SOL    HW114521   5.667   1.387   4.614  0.1520  1.8543 -0.0113
 4744SOL    HW214522   5.800   1.470   4.569  0.5549  0.1121 -2.2868
 4745SOL     OW14523   5.263   0.527   2.584 -0.6707  0.0176 -0.2472
 4745SOL    HW114524   5.166   0.549   2.572 -0.5310  1.7212  1.2990
 4745SOL    HW214525   5.275   0.474   2.668 -0.0062  2.5086  1.3246
 4746SOL     OW14526   3.786   0.341   2.520 -0.3011 -0.1590  0.0549
 4746SOL    HW114527   3.808   0.385   2.607  0.1518 -1.2591  0.5050
 4746SOL    HW214528   3.688   0.349   2.503 -0.3568  0.2594  0.5434
 4747SOL     OW14529   0.893   1.574   3.152 -0.2924  0.2242  0.0022
 4747SOL    HW114530   0.976   1.630   3.150 -1.2029  1.7003  1.2919
 4747SOL    HW214531   0.828   1.607   3.084 -0.1531 -0.4109 -0.4472
 4748SOL     OW14532   2.725   0.556   3.808  0.2837 -0.6250  0.4719
 4748SOL    HW114533   2.645   0.510   3.846  0.4351  0.2743  1.9524
 4748SOL    HW214534   2.763   0.500   3.734 -1.1405 -1.5118  0.3564
 4749SOL     OW14535   4.833   1.488   2.133  0.6497  0.0737  0.1003
 4749SOL    HW114536   4.789   1.511   2.220  0.0359 -0.5554 -0.0356
 4749SOL    HW214537   4.807   1.555   2.063  0.1997 -0.0901  0.1113
 4750SOL     OW14538   5.185   0.393   3.348 -0.4040  0.0777 -0.3431
 4750SOL    HW114539   5.088   0.408   3.325 -0.2934 -0.2140 -1.0294
 4750SOL    HW214540   5.237   0.475   3.324 -0.5025  0.2890  0.1619
 4751SOL     OW14541   3.836   0.686   4.299  0.0247  0.7095  0.2037
 4751SOL    HW114542   3.860   0.632   4.219 -1.1651  0.6595 -0.1294
 4751SOL    HW214543   3.909   0.752   4.318  0.7619  0.0585 -0.3229
 4752SOL     OW14544   4.550   2.136   1.704  0.1246  0.6070  0.0779
 4752SOL    HW114545   4.551   2.037   1.688  2.7663  0.7002 -0.8292
 4752SOL    HW214546   4.495   2.156   1.785 -2.7463 -1.2661 -1.2529
 4753SOL     OW14547   5.708   0.716   2.654  0.1448  0.0173 -0.1663
 4753SOL    HW114548   5.756   0.719   2.741 -0.5716  2.0653  0.2067
 4753SOL    HW214549   5.609   0.719   2.669  0.0194  1.8805 -1.0240
 4754SOL     OW14550   5.237   5.044   2.773  0.0096  0.0825  0.1168
 4754SOL    HW114551   5.302   5.037   2.849  0.1890 -0.3921 -0.0784
 4754SOL    HW214552   5.188   5.131   2.780  1.0941  0.7280 -0.0794
 4755SOL     OW14553   5.363   1.233   3.112 -0.2606 -0.3906 -0.0272
 4755SOL    HW114554   5.283   1.270   3.065 -2.0549 -3.5379  0.2470
 4755SOL    HW214555   5.365   1.266   3.206 -1.9868 -1.1098  0.3091
 4756SOL     OW14556   4.674   0.443   2.948 -0.5375  0.3120  0.3258
 4756SOL    HW114557   4.761   0.439   2.998  0.1198  0.1498 -0.7968
 4756SOL    HW214558   4.689   0.416   2.853 -1.8051  0.3964  0.0858
 4757SOL     OW14559   3.063   0.285   2.424 -0.2866  0.2873  0.5456
 4757SOL    HW114560   2.995   0.285   2.497  0.4388 -0.9289  1.2551
 4757SOL    HW214561   3.147   0.241   2.456 -0.4284 -1.6008 -1.4677
 4758SOL     OW14562   4.071   2.155   2.003 -0.3235 -0.3219 -0.2942
 4758SOL    HW114563   3.995   2.098   2.034  0.7410 -1.8399 -0.3548
 4758SOL    HW214564   4.036   2.230   1.948 -1.7753 -0.9862 -0.3235
 4759SOL     OW14565   2.622   0.800   3.887  0.4549 -0.1881  0.0888
 4759SOL    HW114566   2.659   0.712   3.856  1.7953 -0.0178  1.1381
 4759SOL    HW214567   2.555   0.833   3.820  0.8354 -1.4124 -0.9351
 4760SOL     OW14568   4.284   0.435   5.717  0.1401  0.4212  0.2327
 4760SOL    HW114569   4.253   0.520   5.759 -0.5165 -0.9153  2.7113
 4760SOL    HW214570   4.233   0.418   5.633 -0.4405  1.9619  0.2475
 4761SOL     OW14571   3.201   0.347   0.073  0.1879 -0.0817  0.1294
 4761SOL    HW114572   3.221   0.277   0.142 -0.4416 -0.3985 -0.0045
 4761SOL    HW214573   3.284   0.401   0.055  0.3289  0.1028  1.2471
 4762SOL     OW14574   5.965   0.971   4.109  0.1164 -0.2588  0.1134
 4762SOL    HW114575   5.969   0.872   4.096 -1.1387 -0.3006 -0.0543
 4762SOL    HW214576   5.945   1.016   4.022 -0.6944  0.0309  0.4435
 4763SOL     OW14577   1.106   1.355   4.795 -0.0519 -0.0908 -0.3134
 4763SOL    HW114578   1.198   1.363   4.834 -0.2468 -0.8592  0.3316
 4763SOL    HW214579   1.082   1.258   4.786 -1.2722  0.0881  0.6852
 4764SOL     OW14580   5.171   1.452   4.217  0.4448  0.4463 -0.0082
 4764SOL    HW114581   5.237   1.433   4.290  1.8560  1.0148 -1.1011
 4764SOL    HW214582   5.161   1.370   4.160 -0.4507  0.0930  0.6241
 4765SOL     OW14583   1.011   0.810   3.836 -0.3906  0.0248 -0.4307
 4765SOL    HW114584   1.099   0.837   3.873 -0.4874  0.1088 -0.2588
 4765SOL    HW214585   0.971   0.886   3.784 -0.4232  0.0346 -0.3919
 4766SOL     OW14586   4.049   1.461   4.186  0.6530 -0.2316  0.4872
 4766SOL    HW114587   3.985   1.530   4.154  1.7983  0.1049 -1.2025
 4766SOL    HW214588   4.077   1.402   4.110  0.9788 -1.5088  1.5511
 4767SOL     OW14589   3.765   0.597   5.372 -0.1689  0.2028 -0.3064
 4767SOL    HW114590   3.687   0.584   5.311  1.2632 -0.7675 -2.0273
 4767SOL    HW214591   3.849   0.573   5.324  0.9670 -1.7596  2.4117
 4768SOL     OW14592   2.843   0.067   4.014 -0.0360 -0.0270  0.0125
 4768SOL    HW114593   2.903   0.047   3.937  0.5281  1.1448  0.1236
 4768SOL    HW214594   2.896   0.068   4.099 -0.3320  0.3719  0.1960
 4769SOL     OW14595   3.857   0.748   5.106 -0.1521  0.0113 -0.1565
 4769SOL    HW114596   3.783   0.777   5.167 -0.5465  0.3377 -0.7788
 4769SOL    HW214597   3.913   0.678   5.151 -1.9763 -1.6744 -0.3733
 4770SOL     OW14598   4.282   2.447   4.122 -0.5802 -0.2820 -0.2711
 4770SOL    HW114599   4.278   2.347   4.131  1.2670 -0.3103  0.7770
 4770SOL    HW214600   4.331   2.485   4.200 -1.1002  1.4517 -0.7504
 4771SOL     OW14601   4.894   1.522   5.980  0.2699  0.0128 -0.2754
 4771SOL    HW114602   4.839   1.442   5.956 -0.0998  0.5711 -1.3545
 4771SOL    HW214603   4.971   1.493   6.036  0.0268 -1.0730 -0.4662
 4772SOL     OW14604   5.796   0.197   4.056  0.0549  0.3189 -0.4955
 4772SOL    HW114605   5.784   0.102   4.084  0.7636 -0.0805 -1.4668
 4772SOL    HW214606   5.745   0.257   4.117 -1.4978 -0.7799 -0.6420
 4773SOL     OW14607   0.131   5.662   4.109  0.2491 -0.5940 -0.0284
 4773SOL    HW114608   0.174   5.634   4.194 -0.8262 -0.3906  0.6021
 4773SOL    HW214609   0.072   5.741   4.125  1.6445  0.7902 -1.3820
 4774SOL     OW14610   4.234   2.852   5.582 -0.1505  0.0852  0.0022
 4774SOL    HW114611   4.174   2.788   5.533 -0.1727  0.3736 -0.3445
 4774SOL    HW214612   4.324   2.809   5.595 -0.2456 -0.1178  0.0029
 4775SOL     OW14613   5.092   1.061   4.607  0.2664  0.1526 -0.1597
 4775SOL    HW114614   5.061   1.116   4.529  0.3691  1.5163  0.7412
 4775SOL    HW214615   5.170   1.005   4.579 -0.1758  0.0417 -1.2347
 4776SOL     OW14616   4.636   1.618   4.079  0.3385 -0.0575 -0.2289
 4776SOL    HW114617   4.585   1.541   4.118  0.8032  0.8775  2.4264
 4776SOL    HW214618   4.734   1.602   4.088  0.5219 -0.2939 -2.1450
 4777SOL     OW14619   4.266   0.696   4.933  0.4855  0.8269  0.2623
 4777SOL    HW114620   4.224   0.766   4.876  0.3781  0.2536 -0.3819
 4777SOL    HW214621   4.197   0.657   4.995 -0.1021 -0.4479 -1.1243
 4778SOL     OW14622   4.399   2.387   5.847 -0.2354 -0.0383 -0.1072
 4778SOL    HW114623   4.456   2.357   5.771 -0.1262 -0.5644  0.1757
 4778SOL    HW214624   4.436   2.351   5.933 -0.0370  1.0054  0.2612
 4779SOL     OW14625   4.188   0.830   4.024 -0.4493 -0.7488  0.0489
 4779SOL    HW114626   4.277   0.788   4.013  0.1274  0.3936  0.1765
 4779SOL    HW214627   4.197   0.913   4.079 -1.6889 -0.9351  0.5676
 4780SOL     OW14628   4.925   5.513   0.567 -0.2756  0.4347 -0.6053
 4780SOL    HW114629   4.956   5.523   0.662  0.8968  0.6950 -1.0049
 4780SOL    HW214630   4.844   5.570   0.553 -0.7844 -0.0143  0.3750
 4781SOL     OW14631   1.638   0.930   5.108  0.6431  0.1563 -0.1448
 4781SOL    HW114632   1.588   0.875   5.175  0.2549  0.0269 -0.5379
 4781SOL    HW214633   1.668   1.015   5.151  2.7337 -1.0496  0.9795
 4782SOL     OW14634   5.122   1.622   3.983 -0.0781 -0.5444  0.4285
 4782SOL    HW114635   5.116   1.539   4.038 -2.8549  1.3177  3.3768
 4782SOL    HW214636   5.143   1.700   4.043  0.9473  1.1427 -1.9447
 4783SOL     OW14637   3.675   1.940   3.962 -0.6241  0.0382  0.0048
 4783SOL    HW114638   3.618   2.008   3.916  1.3145  1.0597 -0.9968
 4783SOL    HW214639   3.694   1.970   4.056  1.5554  1.7920 -0.9253
 4784SOL     OW14640   5.668   0.915   3.659  0.2433 -0.0796 -0.7187
 4784SOL    HW114641   5.644   0.880   3.750 -0.5686  1.9856 -0.0747
 4784SOL    HW214642   5.767   0.904   3.645  0.5444  0.3965  0.8052
 4785SOL     OW14643   5.830   1.363   3.625 -0.1650 -0.0499  0.4219
 4785SOL    HW114644   5.924   1.327   3.619  0.0060  0.2872  1.0252
 4785SOL    HW214645   5.781   1.340   3.541  0.3551 -0.5234  0.2368
 4786SOL     OW14646   2.444   0.129   5.444 -0.4567  0.1851  0.8087
 4786SOL    HW114647   2.482   0.152   5.534 -0.6921  0.2425  0.8953
 4786SOL    HW214648   2.393   0.207   5.409 -0.1286  0.2578  0.4991
 4787SOL     OW14649   5.338   0.613   4.818 -0.0446 -0.3725 -0.1606
 4787SOL    HW114650   5.361   0.516   4.810  2.9643  0.2068  0.4190
 4787SOL    HW214651   5.399   0.667   4.761 -1.3452  1.2533 -0.0892
 4788SOL     OW14652   4.604   3.020   4.659 -0.0471 -0.1710  0.1797
 4788SOL    HW114653   4.607   3.119   4.645 -1.7732  0.1939  1.8903
 4788SOL    HW214654   4.551   2.978   4.585  0.0847  0.2764 -0.1732
 4789SOL     OW14655   4.423   0.704   3.999  0.8499  0.2215 -0.7822
 4789SOL    HW114656   4.469   0.691   4.087  1.1782  3.2092 -0.4275
 4789SOL    HW214657   4.392   0.615   3.965  3.2252 -1.4055  0.9386
 4790SOL     OW14658   3.751   0.547   4.934 -0.0963 -0.3672 -0.0369
 4790SOL    HW114659   3.762   0.629   4.989  1.7306  0.0629 -0.9610
 4790SOL    HW214660   3.841   0.511   4.909 -0.7858 -3.3649  1.3396
 4791SOL     OW14661   0.029   1.721   4.658  0.1608 -0.6258 -0.4737
 4791SOL    HW114662   0.014   1.649   4.726 -2.1009  0.3705  0.1767
 4791SOL    HW214663   0.121   1.759   4.669  0.2981 -1.3595  1.1850
 4792SOL     OW14664   3.194   1.584   5.745 -0.5141 -0.4354  0.3289
 4792SOL    HW114665   3.116   1.618   5.692  0.0171 -2.1848 -1.7471
 4792SOL    HW214666   3.273   1.575   5.685  1.2093  0.8286  2.2848
 4793SOL     OW14667   3.621   0.380   5.218  0.4538  0.2101  0.1655
 4793SOL    HW114668   3.563   0.387   5.136 -0.2934 -0.6336  0.6076
 4793SOL    HW214669   3.600   0.295   5.266  1.7878  0.0923  0.5639
 4794SOL     OW14670   0.297   3.302   4.627 -0.5063 -0.0781  0.0961
 4794SOL    HW114671   0.316   3.300   4.529  1.4169 -0.3597  0.4533
 4794SOL    HW214672   0.341   3.381   4.668  0.0684 -0.8579  0.9985
 4795SOL     OW14673   0.079   2.034   4.195  0.2001 -0.6160  0.0418
 4795SOL    HW114674   0.073   1.970   4.118  1.1965 -0.1904 -0.4155
 4795SOL    HW214675   0.149   2.002   4.259  0.9296  0.1578 -0.3510
 4796SOL     OW14676   3.750   1.474   3.828  0.2048  0.1010 -0.5748
 4796SOL    HW114677   3.802   1.556   3.805  0.9480  0.2243  1.3928
 4796SOL    HW214678   3.783   1.396   3.774  3.1766 -0.0508  1.2409
 4797SOL     OW14679   5.716   0.769   4.189 -0.0314  0.5610 -0.3835
 4797SOL    HW114680   5.703   0.678   4.228  1.4436  0.3803 -0.2369
 4797SOL    HW214681   5.785   0.764   4.117 -3.5047  0.6388 -4.0448
 4798SOL     OW14682   5.195   1.566   4.552  0.2778  0.4632  0.3556
 4798SOL    HW114683   5.148   1.499   4.610 -0.2024  0.9634  0.5482
 4798SOL    HW214684   5.261   1.519   4.494 -0.2055 -0.2063  0.3405
 4799SOL     OW14685   5.672   0.593   4.611 -0.4362  0.4377 -0.0081
 4799SOL    HW114686   5.720   0.677   4.636  1.0497 -0.2297 -0.5391
 4799SOL    HW214687   5.577   0.615   4.588 -0.1717  1.9102  0.2055
 4800SOL     OW14688   4.717   0.546   5.147 -0.1402 -0.5263 -0.3319
 4800SOL    HW114689   4.750   0.611   5.079  2.9796  0.2777  1.7432
 4800SOL    HW214690   4.793   0.490   5.180 -0.8155  0.8049  4.1562
 4801SOL     OW14691   5.194   1.229   5.112  0.3275 -0.2342  0.3246
 4801SOL    HW114692   5.250   1.298   5.067 -1.4562  0.9904 -0.1392
 4801SOL    HW214693   5.161   1.164   5.043  1.4230 -1.1749  0.6528
 4802SOL     OW14694   5.228   0.451   4.464  0.1530 -0.3245 -0.0741
 4802SOL    HW114695   5.165   0.383   4.428 -0.7379  1.9919 -3.3720
 4802SOL    HW214696   5.182   0.508   4.531  0.3701 -1.7124  1.3206
 4803SOL     OW14697   5.164   5.787   3.571  0.6315  0.1620  0.0224
 4803SOL    HW114698   5.116   5.726   3.634  3.0893 -2.1229 -0.0902
 4803SOL    HW214699   5.144   5.760   3.477  1.1158 -0.0047 -0.0401
 4804SOL     OW14700   3.242   1.198   5.473 -0.6393 -0.2375  0.2057
 4804SOL    HW114701   3.255   1.286   5.428 -0.6005 -0.5124 -0.3416
 4804SOL    HW214702   3.243   1.125   5.403  2.0539 -0.9440  0.8815
 4805SOL     OW14703   2.854   3.112   0.511  0.3966  0.1867  0.6866
 4805SOL    HW114704   2.868   3.184   0.579 -2.8328  2.5708 -0.8989
 4805SOL    HW214705   2.882   3.145   0.421 -2.6213  0.2518 -0.3434
 4806SOL     OW14706   5.441   0.718   2.670  0.0348 -0.1796  0.1772
 4806SOL    HW114707   5.403   0.649   2.609 -2.1422 -0.7181  1.9761
 4806SOL    HW214708   5.381   0.727   2.750  2.6209  0.6266  2.1383
 4807SOL     OW14709   0.757   5.189   5.604 -0.0794  0.2380  0.3621
 4807SOL    HW114710   0.740   5.105   5.655 -0.1732  0.0908  0.0888
 4807SOL    HW214711   0.673   5.218   5.558 -0.3004  1.0051  1.2288
 4808SOL     OW14712   5.655   1.217   2.959 -0.2904 -0.5606 -0.0098
 4808SOL    HW114713   5.558   1.197   2.973 -0.1106 -0.7679  0.9940
 4808SOL    HW214714   5.665   1.283   2.884 -1.1884 -0.7098 -0.2659
 4809SOL     OW14715   4.076   1.412   3.710  0.0899  0.8623 -0.4852
 4809SOL    HW114716   4.045   1.504   3.734  1.1379  1.4544 -1.3105
 4809SOL    HW214717   4.155   1.388   3.766  0.4649  0.9020 -0.9847
 4810SOL     OW14718   4.838   1.151   3.926  0.5412 -0.2736 -0.4330
 4810SOL    HW114719   4.909   1.130   3.993 -0.0680 -0.5457  0.1306
 4810SOL    HW214720   4.756   1.098   3.946 -0.8995  2.2774  0.7559
 4811SOL     OW14721   4.390   1.284   5.223  0.1130 -0.1714 -0.6917
 4811SOL    HW114722   4.437   1.198   5.242  0.5435  0.1120 -0.4521
 4811SOL    HW214723   4.304   1.287   5.274  1.2049  0.5459  1.2086
 4812SOL     OW14724   1.103   0.726   4.287  0.1301  0.0545 -0.4656
 4812SOL    HW114725   1.046   0.760   4.362  2.1393 -0.6162  1.4789
 4812SOL    HW214726   1.183   0.785   4.276  3.5416 -3.3899  2.7661
 4813SOL     OW14727   5.838   1.681   4.997 -0.2256 -0.3659 -0.1683
 4813SOL    HW114728   5.802   1.774   4.986 -0.7716 -0.7141 -1.5224
 4813SOL    HW214729   5.844   1.659   5.094 -1.3369  0.6050  0.1436
 4814SOL     OW14730   3.813   5.353   4.617  0.1086  0.0259 -0.1050
 4814SOL    HW114731   3.810   5.271   4.559 -1.6242 -0.2929  0.3763
 4814SOL    HW214732   3.773   5.430   4.567  0.3237  0.2038 -0.0033
 4815SOL     OW14733   5.322   1.089   3.506  0.1517  0.4147 -0.2165
 4815SOL    HW114734   5.268   1.023   3.455 -0.2015 -0.4254  1.1921
 4815SOL    HW214735   5.328   1.175   3.455 -0.2266 -0.3726 -1.6071
 4816SOL     OW14736   5.094   1.652   5.437  0.3633 -0.3459  0.3157
 4816SOL    HW114737   5.071   1.741   5.398 -0.5443 -0.6921  0.0498
 4816SOL    HW214738   5.067   1.580   5.373 -0.9313 -0.9191  1.4600
 4817SOL     OW14739   4.821   2.921   5.032  0.1614 -0.1070 -0.1410
 4817SOL    HW114740   4.804   3.010   4.992  0.1327 -0.6146 -1.2909
 4817SOL    HW214741   4.840   2.931   5.130  3.4735  1.5332 -0.8314
 4818SOL     OW14742   4.146   1.273   3.969  0.1004  0.0547  1.0989
 4818SOL    HW114743   4.053   1.236   3.967 -0.4826  1.4435  0.6183
 4818SOL    HW214744   4.192   1.251   3.883 -0.4217  0.8110  0.6009
 4819SOL     OW14745   0.921   1.828   4.435 -0.1079 -0.2282  0.3479
 4819SOL    HW114746   0.952   1.812   4.341 -0.9383 -0.4170  0.0986
 4819SOL    HW214747   0.918   1.926   4.453  0.3698 -0.2022  0.2868
 4820SOL     OW14748   5.652   2.089   4.107 -0.1566  0.1711 -0.3546
 4820SOL    HW114749   5.695   2.046   4.028 -0.0517 -1.0293  0.3418
 4820SOL    HW214750   5.716   2.088   4.184 -1.2032 -1.1604  0.5361
 4821SOL     OW14751   4.648   0.401   2.678  0.2036  0.0519  0.2370
 4821SOL    HW114752   4.716   0.328   2.663 -1.2750 -1.5251  0.8630
 4821SOL    HW214753   4.604   0.423   2.592 -1.6942 -2.2797  0.5025
 4822SOL     OW14754   5.337   0.541   5.431 -0.4372  0.4102 -0.1857
 4822SOL    HW114755   5.414   0.495   5.475 -0.2084  0.9909  0.0253
 4822SOL    HW214756   5.372   0.609   5.366 -0.7547  1.0550  0.3001
 4823SOL     OW14757   4.195   1.577   4.920 -0.5494  0.0882  0.4485
 4823SOL    HW114758   4.219   1.674   4.923  0.1385 -0.0910  1.7029
 4823SOL    HW214759   4.164   1.552   4.828  0.7205  1.1461 -0.2906
 4824SOL     OW14760   5.594   1.575   3.236 -0.6681  0.7609 -0.0834
 4824SOL    HW114761   5.609   1.498   3.298 -2.2907 -0.7665 -1.4705
 4824SOL    HW214762   5.678   1.592   3.184 -0.3231 -0.1973  0.1408
 4825SOL     OW14763   4.528   0.704   5.900  0.0483 -0.0230  0.0648
 4825SOL    HW114764   4.548   0.772   5.830 -0.8727  0.0913 -0.1041
 4825SOL    HW214765   4.512   0.615   5.857  1.9237 -0.5258  0.3361
 4826SOL     OW14766   4.536   0.093   3.480  0.0075 -0.1120  0.2992
 4826SOL    HW114767   4.442   0.105   3.510 -0.5348 -1.5690 -0.6572
 4826SOL    HW214768   4.592   0.060   3.557 -0.7769 -1.3563  0.3642
 4827SOL     OW14769   5.697   0.361   4.961  0.1832  0.3102  0.0814
 4827SOL    HW114770   5.641   0.278   4.965  0.7793 -0.2982 -2.4459
 4827SOL    HW214771   5.678   0.418   5.041 -2.4758 -0.8465  0.3823
 4828SOL     OW14772   4.999   1.248   4.425 -0.2324  0.1500 -0.1604
 4828SOL    HW114773   5.054   1.308   4.367  1.6984 -0.5725  0.8551
 4828SOL    HW214774   4.940   1.303   4.485 -0.9292  0.9224 -1.5041
 4829SOL     OW14775   4.128   0.667   5.825  0.1846  0.0580 -0.3644
 4829SOL    HW114776   4.057   0.737   5.815  2.3924  2.3429 -0.9202
 4829SOL    HW214777   4.130   0.636   5.921 -0.1626  1.5133  0.1365
 4830SOL     OW14778   0.220   0.929   4.623  0.3430 -0.4621 -0.3347
 4830SOL    HW114779   0.255   0.870   4.695  1.4090 -0.2711 -0.6708
 4830SOL    HW214780   0.232   1.025   4.649 -0.6203 -0.3869 -0.1438
 4831SOL     OW14781   4.913   1.076   3.420 -0.3447  0.0784 -0.4132
 4831SOL    HW114782   4.854   1.116   3.349 -1.5580 -1.0898 -0.0963
 4831SOL    HW214783   4.857   1.035   3.491  0.8323 -1.6822 -0.4383
 4832SOL     OW14784   4.368   5.807   4.155 -0.0984 -0.1545  0.2467
 4832SOL    HW114785   4.420   5.808   4.241 -0.5653  0.9575  0.5330
 4832SOL    HW214786   4.419   5.858   4.085  1.2969 -2.7759 -0.8106
 4833SOL     OW14787   0.189   1.229   3.932  0.0363 -0.6116  0.2353
 4833SOL    HW114788   0.222   1.287   3.857 -2.2448  0.9228  0.3432
 4833SOL    HW214789   0.193   1.280   4.018  0.2921 -1.5031  0.7707
 4834SOL     OW14790   2.765   1.564   5.110 -0.1861 -0.6257  0.5086
 4834SOL    HW114791   2.833   1.566   5.037 -0.1451 -1.1729  0.5246
 4834SOL    HW214792   2.799   1.617   5.188 -0.2456 -0.0148  0.1199
 4835SOL     OW14793   4.572   1.042   4.660 -0.1188  0.1082 -0.2883
 4835SOL    HW114794   4.614   0.961   4.700  0.4330  0.6838  0.3234
 4835SOL    HW214795   4.485   1.017   4.617 -0.5626 -0.5833  0.9678
 4836SOL     OW14796   5.407   5.928   5.641  0.4928 -0.1373  0.1458
 4836SOL    HW114797   5.445   6.018   5.664  1.7851 -0.4840 -0.5150
 4836SOL    HW214798   5.421   5.911   5.543  1.0717 -1.4185  0.4359
 4837SOL     OW14799   5.622   1.698   4.613 -0.1549 -0.6612 -0.2858
 4837SOL    HW114800   5.705   1.667   4.567 -0.3332 -1.2656 -0.2032
 4837SOL    HW214801   5.641   1.783   4.662  1.0805 -2.0582  1.8017
 4838SOL     OW14802   3.201   0.562   4.271  0.2452 -0.1204  0.2048
 4838SOL    HW114803   3.129   0.615   4.317 -0.8519 -0.5983 -0.9311
 4838SOL    HW214804   3.221   0.480   4.324 -0.6527 -0.4149  0.0898
 4839SOL     OW14805   4.748   1.440   3.702 -0.4426  0.6052 -0.2492
 4839SOL    HW114806   4.818   1.369   3.696  1.1324  2.1502 -1.0220
 4839SOL    HW214807   4.791   1.528   3.720 -2.1770  1.6382 -0.8801
 4840SOL     OW14808   5.277   6.010   2.814 -0.2800  0.7793  0.2726
 4840SOL    HW114809   5.218   5.946   2.763 -0.8237  0.8783  0.7662
 4840SOL    HW214810   5.299   5.970   2.903 -0.0963  1.0084  0.3286
 4841SOL     OW14811   4.321   5.817   5.751  0.2064  0.2954 -0.1893
 4841SOL    HW114812   4.289   5.911   5.757  0.0180  0.3047 -1.1574
 4841SOL    HW214813   4.361   5.789   5.839 -0.4492  1.0106  0.3496
 4842SOL     OW14814   4.457   5.798   4.427  0.1536 -0.5965 -0.0037
 4842SOL    HW114815   4.393   5.751   4.487  1.0864 -0.2300  1.3275
 4842SOL    HW214816   4.477   5.889   4.464  0.5631 -0.2537 -1.0167
 4843SOL     OW14817   5.592   1.334   5.271 -0.1972  0.6087 -0.0342
 4843SOL    HW114818   5.603   1.431   5.249  1.7987  0.2785 -0.7274
 4843SOL    HW214819   5.583   1.323   5.370 -1.4546  1.5487 -0.0206
 4844SOL     OW14820   4.273   1.014   4.220 -0.2698 -0.3549  0.0147
 4844SOL    HW114821   4.240   1.084   4.284  0.2008 -0.0293 -0.0884
 4844SOL    HW214822   4.370   1.032   4.199 -0.6626  0.1251 -1.5524
 4845SOL     OW14823   5.681   1.478   4.026 -0.7802  0.2291 -0.7120
 4845SOL    HW114824   5.692   1.399   3.967  0.8058 -1.1435  1.3050
 4845SOL    HW214825   5.615   1.457   4.099  0.5096  0.2857  0.5175
 4846SOL     OW14826   5.765   0.337   3.594 -0.1069  0.5232 -0.6737
 4846SOL    HW114827   5.747   0.262   3.657  2.6085  0.9507  0.7714
 4846SOL    HW214828   5.788   0.301   3.503  0.0253 -0.3250 -0.3054
 4847SOL     OW14829   5.942   1.035   3.434 -0.2446  0.7406  0.3091
 4847SOL    HW114830   5.955   0.987   3.520 -1.1853 -0.0857  0.0128
 4847SOL    HW214831   5.866   0.993   3.384 -0.4312  1.9119 -0.4193
 4848SOL     OW14832   3.694   2.224   4.741  0.2690 -0.0990 -0.0676
 4848SOL    HW114833   3.598   2.243   4.764  0.6958  0.0286  1.8373
 4848SOL    HW214834   3.745   2.206   4.826  1.9323 -0.1821 -1.0431
 4849SOL     OW14835   5.262   1.117   5.455 -0.6428  0.0368 -0.3081
 4849SOL    HW114836   5.194   1.190   5.470  0.3838  0.9113  0.2596
 4849SOL    HW214837   5.255   1.050   5.528 -0.1162  0.7651  0.4350
 4850SOL     OW14838   4.558   0.435   2.429 -0.3366 -0.1493  0.0323
 4850SOL    HW114839   4.564   0.532   2.404 -0.4878 -0.4181 -1.0996
 4850SOL    HW214840   4.476   0.394   2.388 -1.7013 -0.1817  2.6186
 4851SOL     OW14841   4.278   0.442   4.293  0.5620 -0.1377 -0.2330
 4851SOL    HW114842   4.303   0.407   4.383  0.2793 -0.3649 -0.2396
 4851SOL    HW214843   4.179   0.446   4.285  0.4296 -3.3239 -1.6952
 4852SOL     OW14844   1.373   0.800   5.882 -0.2325  0.0230  0.0875
 4852SOL    HW114845   1.462   0.845   5.883  0.4141 -1.2107 -0.4596
 4852SOL    HW214846   1.361   0.752   5.795 -1.4398  0.1827  0.1512
 4853SOL     OW14847   4.206   0.320   5.013 -0.6666  0.5124  0.1801
 4853SOL    HW114848   4.194   0.259   5.091  0.7654 -2.6931 -1.9335
 4853SOL    HW214849   4.301   0.352   5.009 -0.9613  1.4448  0.2033
 4854SOL     OW14850   5.009   1.600   0.346  0.0074  0.1852  0.4815
 4854SOL    HW114851   5.027   1.697   0.330  0.4008  0.1101  0.4587
 4854SOL    HW214852   4.928   1.572   0.294 -0.0959  0.4946  0.4745
 4855SOL     OW14853   3.652   1.013   5.051  0.2377 -0.3524  0.5525
 4855SOL    HW114854   3.751   1.025   5.044  0.1182  0.1896 -0.2770
 4855SOL    HW214855   3.624   1.032   5.145  1.0064 -1.2202  0.9782
 4856SOL     OW14856   4.681   1.318   4.964 -0.8706 -0.0799  0.4282
 4856SOL    HW114857   4.709   1.250   5.032 -0.8173 -0.2594  0.2254
 4856SOL    HW214858   4.581   1.328   4.967 -0.8784 -0.1639  0.4634
 4857SOL     OW14859   5.958   0.706   4.055 -0.2980  0.2782  0.4016
 4857SOL    HW114860   5.990   0.675   4.145  2.6419  0.9060 -0.3313
 4857SOL    HW214861   5.954   0.628   3.993  2.4076  0.4633 -0.1379
 4858SOL     OW14862   4.632   2.195   5.252  0.3088 -0.5066 -0.4639
 4858SOL    HW114863   4.663   2.253   5.177  0.4921 -0.8268 -0.6372
 4858SOL    HW214864   4.675   2.224   5.338 -0.6276  0.4659 -0.3087
 4859SOL     OW14865   4.762   0.542   4.698  0.4307 -0.5376  0.2265
 4859SOL    HW114866   4.745   0.462   4.754  0.9123 -1.5032 -0.9514
 4859SOL    HW214867   4.816   0.609   4.749 -1.6404 -0.0539  1.9096
 4860SOL     OW14868   3.749   5.983   5.345 -0.5808  0.1145  0.3686
 4860SOL    HW114869   3.714   5.926   5.272 -1.3359 -0.0556  0.8472
 4860SOL    HW214870   3.795   5.927   5.413  0.7920  0.3548 -0.3332
 4861SOL     OW14871   5.580   5.390   5.667 -0.5480  0.0819 -0.2281
 4861SOL    HW114872   5.534   5.359   5.750 -0.4181 -1.9481 -0.8549
 4861SOL    HW214873   5.655   5.450   5.691  1.2714 -2.6168  1.4464
 4862SOL     OW14874   5.292   2.558   0.530  0.7566  0.1337 -0.2016
 4862SOL    HW114875   5.229   2.496   0.575  0.7613 -1.2839 -2.0063
 4862SOL    HW214876   5.377   2.509   0.508  0.7255  0.7162 -1.7617
 4863SOL     OW14877   2.826   1.223   3.493 -0.0870  0.4271 -0.2895
 4863SOL    HW114878   2.923   1.239   3.477 -0.0803  2.2162  1.1448
 4863SOL    HW214879   2.814   1.181   3.583 -0.5972 -0.9238 -0.9666
 4864SOL     OW14880   5.533   5.715   2.980 -0.5600  0.3445  0.5039
 4864SOL    HW114881   5.613   5.761   2.940  0.8066 -2.3983 -0.1146
 4864SOL    HW214882   5.472   5.684   2.907 -1.0279  0.3854  0.8733
 4865SOL     OW14883   0.948   2.088   4.512 -0.2176 -0.4501  0.0721
 4865SOL    HW114884   0.881   2.161   4.507  1.3597  1.0063 -0.8154
 4865SOL    HW214885   1.029   2.120   4.561  1.4777 -0.7355 -2.3478
 4866SOL     OW14886   5.052   2.282   4.689  0.2105  0.0742  0.3455
 4866SOL    HW114887   5.123   2.327   4.634  1.1438 -0.8650  0.7489
 4866SOL    HW214888   4.962   2.303   4.651  0.8795 -1.8441 -2.5620
 4867SOL     OW14889   5.190   0.699   3.551  0.4396  0.1019  0.2373
 4867SOL    HW114890   5.173   0.795   3.531  0.0069  0.2410  1.1986
 4867SOL    HW214891   5.215   0.651   3.467  0.2803  0.9682 -0.3176
 4868SOL     OW14892   3.688   1.115   4.101  0.3906 -0.7746  0.6765
 4868SOL    HW114893   3.725   1.079   4.015  0.4218  0.9151 -0.0572
 4868SOL    HW214894   3.603   1.067   4.123  0.1113 -0.8909 -0.5822
 4869SOL     OW14895   5.735   0.859   4.597 -0.0232 -0.1141 -0.0824
 4869SOL    HW114896   5.674   0.895   4.527  0.2915  3.5766  1.2864
 4869SOL    HW214897   5.828   0.855   4.562 -0.2660 -0.9146 -0.6563
 4870SOL     OW14898   5.311   5.593   5.457  0.2594  0.1620  0.1693
 4870SOL    HW114899   5.282   5.527   5.527 -0.0051  1.5623  1.4395
 4870SOL    HW214900   5.345   5.544   5.377 -0.1130 -1.5056  0.9835
 4871SOL     OW14901   5.317   5.381   0.703  0.3865 -0.4418  0.3796
 4871SOL    HW114902   5.386   5.313   0.677  0.9885 -0.0783  0.9927
 4871SOL    HW214903   5.315   5.389   0.803 -1.5280 -1.4535  0.4593
 4872SOL     OW14904   4.945   0.573   4.310 -0.2345  0.2693 -0.5860
 4872SOL    HW114905   4.970   0.496   4.368 -1.5742  1.5617  1.8328
 4872SOL    HW214906   5.018   0.589   4.243  2.5430  0.0971  2.1762
 4873SOL     OW14907   3.994   1.492   3.448 -0.2463 -0.8573 -0.2478
 4873SOL    HW114908   4.037   1.487   3.538 -0.4480  0.6303 -0.0529
 4873SOL    HW214909   3.896   1.479   3.458 -0.3150 -0.3158 -0.2003
 4874SOL     OW14910   0.087   0.659   4.341 -0.1897 -0.1181 -0.0423
 4874SOL    HW114911   0.186   0.649   4.354  0.0082  0.1419 -1.2136
 4874SOL    HW214912   0.048   0.708   4.419  0.4250 -1.1069  0.9188
 4875SOL     OW14913   3.632   5.840   1.594  0.0861 -0.0403 -0.4689
 4875SOL    HW114914   3.577   5.867   1.515  0.5986  0.4432 -0.6751
 4875SOL    HW214915   3.723   5.881   1.585  0.4584 -0.7739 -0.1123
 4876SOL     OW14916   5.756   5.081   4.599 -0.1661 -0.2985 -0.0751
 4876SOL    HW114917   5.773   5.040   4.509 -0.6743 -0.3888 -0.1313
 4876SOL    HW214918   5.741   5.008   4.666 -0.4607 -0.2169 -0.0526
 4877SOL     OW14919   4.307   1.370   4.540  0.6014 -0.0007 -0.5734
 4877SOL    HW114920   4.226   1.429   4.546  0.8125  0.2259  0.2355
 4877SOL    HW214921   4.380   1.409   4.596  1.1810 -0.3559 -1.0666
 4878SOL     OW14922   5.067   0.338   4.774 -0.0033  0.2721 -0.2310
 4878SOL    HW114923   5.087   0.419   4.719 -1.0637  0.0604 -0.9517
 4878SOL    HW214924   4.972   0.310   4.760 -0.4651  0.4961  2.1066
 4879SOL     OW14925   5.157   1.955   0.548  0.5593 -0.0868  0.2933
 4879SOL    HW114926   5.239   1.900   0.538 -0.0382 -1.0670  0.6084
 4879SOL    HW214927   5.102   1.948   0.465 -1.1500 -2.7866  1.4839
 4880SOL     OW14928   3.908   1.804   4.581 -0.2719 -0.2280 -0.5021
 4880SOL    HW114929   3.974   1.852   4.639 -0.6575  1.5740 -1.4661
 4880SOL    HW214930   3.957   1.738   4.524  0.8672  1.4115 -1.5529
 4881SOL     OW14931   4.936   0.733   3.281 -0.4473 -0.6251 -0.0208
 4881SOL    HW114932   5.012   0.758   3.221  0.4369  0.2160  1.3993
 4881SOL    HW214933   4.941   0.635   3.302  0.7391 -0.4297  0.6952
 4882SOL     OW14934   5.574   0.817   5.559 -0.0359 -0.4904  0.7096
 4882SOL    HW114935   5.609   0.835   5.651 -2.0597 -1.3922  1.7261
 4882SOL    HW214936   5.612   0.730   5.526  0.1209 -0.5469  1.0302
 4883SOL     OW14937   4.514   0.815   5.004  0.1734  0.0853  0.2693
 4883SOL    HW114938   4.492   0.911   4.984  1.1123  0.2785  0.1399
 4883SOL    HW214939   4.434   0.758   4.985 -1.6020  1.2240  3.5314
 4884SOL     OW14940   4.961   1.601   0.753 -0.3960 -0.0688 -0.0085
 4884SOL    HW114941   4.987   1.576   0.846 -1.2365  0.9392  0.5307
 4884SOL    HW214942   5.043   1.618   0.698  0.1912 -2.8303 -0.1373
 4885SOL     OW14943   5.018   5.837   0.218  0.1731  0.2816 -0.0114
 4885SOL    HW114944   4.969   5.919   0.190 -0.9874  0.5147  2.4283
 4885SOL    HW214945   4.968   5.755   0.188 -0.9914  0.5197  1.1771
 4886SOL     OW14946   0.102   0.630   3.452 -0.6199  0.1818 -0.6055
 4886SOL    HW114947   0.175   0.667   3.508 -0.7176  0.0708 -0.4032
 4886SOL    HW214948   0.014   0.648   3.496 -0.5827 -1.9302  0.4753
 4887SOL     OW14949   4.061   1.692   3.222 -0.0531  0.0277 -0.0112
 4887SOL    HW114950   4.033   1.613   3.276  0.3259 -1.1162 -1.4184
 4887SOL    HW214951   4.021   1.775   3.261 -1.6770 -1.0154  0.6580
 4888SOL     OW14952   0.686   1.453   4.555 -0.0329 -0.2658  0.3347
 4888SOL    HW114953   0.637   1.407   4.481  1.0487  0.1255 -0.6581
 4888SOL    HW214954   0.623   1.473   4.629 -0.8149 -2.1442  0.2357
 4889SOL     OW14955   5.707   0.532   4.307  0.1003  1.0098 -0.1327
 4889SOL    HW114956   5.696   0.544   4.406  0.1047  1.3265 -0.1692
 4889SOL    HW214957   5.646   0.460   4.275 -1.7390  2.5608 -0.2934
 4890SOL     OW14958   4.193   0.996   5.069  0.1963 -0.3424 -0.1901
 4890SOL    HW114959   4.282   1.018   5.109  1.0040  0.0294 -2.0756
 4890SOL    HW214960   4.206   0.962   4.976 -1.5999 -1.1300 -0.1980
 4891SOL     OW14961   4.492   1.444   3.789 -0.7947 -0.0257 -0.4685
 4891SOL    HW114962   4.584   1.423   3.755 -0.9886 -0.1812 -0.9027
 4891SOL    HW214963   4.480   1.404   3.880 -0.5062 -0.1802 -0.4968
 4892SOL     OW14964   4.649   0.813   4.787  0.0107  0.1182 -0.5886
 4892SOL    HW114965   4.635   0.722   4.748 -0.9742  0.4966 -1.1470
 4892SOL    HW214966   4.621   0.813   4.883 -0.3151 -0.0764 -0.6859
 4893SOL     OW14967   3.366   1.292   4.104 -0.1426  0.7829  0.2573
 4893SOL    HW114968   3.314   1.240   4.172 -0.1467 -1.0717 -1.0700
 4893SOL    HW214969   3.434   1.349   4.150  0.4813 -1.1033  1.8209
 4894SOL     OW14970   3.737   2.986   4.536  0.0002 -0.1599  0.8130
 4894SOL    HW114971   3.834   2.999   4.513 -0.7078  2.4126 -1.2064
 4894SOL    HW214972   3.727   2.972   4.634  2.3738 -0.0625  1.1232
 4895SOL     OW14973   4.372   0.903   4.513  0.1521 -0.4204 -0.5008
 4895SOL    HW114974   4.359   0.894   4.414  1.7172  0.3329 -0.8006
 4895SOL    HW214975   4.308   0.971   4.549 -1.1195 -1.4147 -0.7969
 4896SOL     OW14976   0.360   1.245   4.592  0.2032  0.0978 -0.6808
 4896SOL    HW114977   0.271   1.291   4.601  0.1748 -0.0393 -0.2256
 4896SOL    HW214978   0.427   1.293   4.648  0.0795 -0.6515  0.1277
 4897SOL     OW14979   3.647   2.232   5.218  0.5996  0.4770  0.1610
 4897SOL    HW114980   3.561   2.279   5.239 -0.5427 -1.0395 -0.8398
 4897SOL    HW214981   3.664   2.161   5.286  1.0136  0.7070  0.3003
 4898SOL     OW14982   5.049   0.166   5.879  0.3618  0.3660 -0.4087
 4898SOL    HW114983   5.052   0.238   5.811  2.4759 -1.6708 -2.6350
 4898SOL    HW214984   5.009   0.083   5.839  0.6234 -0.5813  1.1833
 4899SOL     OW14985   4.946   5.594   5.451  0.4772 -0.2594 -0.1378
 4899SOL    HW114986   4.897   5.574   5.536  0.6363 -1.0960 -0.2283
 4899SOL    HW214987   5.004   5.674   5.464 -1.5165  1.2696 -0.2890
 4900SOL     OW14988   5.352   0.307   4.013 -0.3790  0.3490  0.0953
 4900SOL    HW114989   5.352   0.258   3.926 -0.7037 -0.1402  0.3674
 4900SOL    HW214990   5.284   0.380   4.010  0.0971  0.7856 -0.3063
 4901SOL     OW14991   5.353   0.337   4.802  0.1862  0.3612  0.2874
 4901SOL    HW114992   5.388   0.260   4.748  1.8265  1.2149  0.0858
 4901SOL    HW214993   5.256   0.322   4.820 -0.2433 -0.3848 -2.1935
 4902SOL     OW14994   4.877   0.104   0.173  0.5659 -0.5046 -0.4773
 4902SOL    HW114995   4.865   0.076   0.077  0.0177  0.6871 -0.7700
 4902SOL    HW214996   4.788   0.108   0.218  0.6930  0.1432 -0.2691
 4903SOL     OW14997   4.411   0.556   3.004 -0.8381  0.2795  0.3929
 4903SOL    HW114998   4.374   0.577   2.913  0.7935  1.1909 -0.0942
 4903SOL    HW214999   4.498   0.509   2.995 -1.7937 -1.8351  1.5261
 4904SOL     OW15000   4.323   2.068   0.208  0.0517 -0.0923  0.3237
 4904SOL    HW115001   4.327   2.045   0.111  1.8935 -0.1456  0.3714
 4904SOL    HW215002   4.277   1.994   0.258  0.7508 -0.9564 -0.2798
 4905SOL     OW15003   4.275   2.136   5.660 -0.1565  0.2966 -0.4033
 4905SOL    HW115004   4.365   2.092   5.654 -1.2526 -2.1299 -0.5701
 4905SOL    HW215005   4.280   2.228   5.623  2.1167  0.0118 -0.9572
 4906SOL     OW15006   3.937   1.190   5.368  0.6691 -0.4461 -0.5588
 4906SOL    HW115007   3.941   1.114   5.303  1.0129  0.1307 -1.2316
 4906SOL    HW215008   3.864   1.252   5.342  0.6089 -0.3678 -0.2093
 4907SOL     OW15009   5.153   5.887   5.794 -0.6942  0.3378 -0.2984
 4907SOL    HW115010   5.203   5.848   5.872 -2.1660 -0.8269  0.1002
 4907SOL    HW215011   5.213   5.950   5.745  0.7114  0.0499  0.9657
 4908SOL     OW15012   5.137   1.165   4.068  0.1290 -0.6575 -0.0803
 4908SOL    HW115013   5.089   1.078   4.081 -0.2168 -0.6589 -1.3037
 4908SOL    HW215014   5.159   1.177   3.971  2.3483 -0.5235  0.3763
 4909SOL     OW15015   1.493   2.047   4.895  0.0517 -0.4125  0.2345
 4909SOL    HW115016   1.416   2.013   4.949 -1.6002 -0.3397 -1.9242
 4909SOL    HW215017   1.511   1.984   4.820  1.1115  0.3352 -0.1617
 4910SOL     OW15018   5.500   2.068   4.575 -0.4959 -0.1245  0.1769
 4910SOL    HW115019   5.544   2.130   4.509  1.4083 -1.2248  0.3565
 4910SOL    HW215020   5.567   2.038   4.642 -2.0430 -0.2722  1.7199
 4911SOL     OW15021   3.143   2.415   3.973  0.5714  0.3633 -0.7755
 4911SOL    HW115022   3.239   2.444   3.968  0.4014  1.2225  0.4863
 4911SOL    HW215023   3.084   2.496   3.977 -0.0818 -0.1468  0.3586
 4912SOL     OW15024   4.586   1.194   5.747  0.3892  0.5421  0.3201
 4912SOL    HW115025   4.573   1.112   5.692 -0.4812 -0.3882  1.8407
 4912SOL    HW215026   4.552   1.274   5.697 -1.8343 -0.4814  0.1001
 4913SOL     OW15027   4.852   0.074   4.100  0.3721  0.3651  0.2467
 4913SOL    HW115028   4.922   0.099   4.168  1.1077 -0.2169 -0.2782
 4913SOL    HW215029   4.896   0.031   4.021 -0.7426 -1.7932  0.7247
 4914SOL     OW15030   0.804   1.737   5.206  0.4238  0.1631  0.6787
 4914SOL    HW115031   0.710   1.724   5.238  0.4827 -2.5664 -0.0573
 4914SOL    HW215032   0.803   1.790   5.121 -0.5248 -0.4358  0.3070
 4915SOL     OW15033   3.393   2.255   0.780  0.0049 -0.5389  0.1793
 4915SOL    HW115034   3.365   2.256   0.876 -0.7551 -1.1224 -0.0265
 4915SOL    HW215035   3.436   2.168   0.758 -0.0571 -0.5070 -0.0729
 4916SOL     OW15036   5.096   0.716   3.797  0.2581  0.1631 -0.0500
 4916SOL    HW115037   5.060   0.809   3.787  1.0421  0.5403  0.5525
 4916SOL    HW215038   5.146   0.691   3.714  0.8281  0.6373  0.1435
 4917SOL     OW15039   4.461   0.632   5.217  0.0377 -0.0393 -0.3827
 4917SOL    HW115040   4.450   0.716   5.163 -0.3040 -0.0973 -0.4012
 4917SOL    HW215041   4.546   0.587   5.190 -0.1309 -0.0701 -0.8809
 4918SOL     OW15042   3.472   1.166   3.696  0.1713 -0.4901  0.3590
 4918SOL    HW115043   3.419   1.151   3.779 -0.6343 -1.0091 -0.2357
 4918SOL    HW215044   3.538   1.092   3.685  1.2895  0.3227  1.2687
 4919SOL     OW15045   0.328   0.609   4.462 -0.3218 -0.2404  0.2091
 4919SOL    HW115046   0.395   0.535   4.471 -0.5928 -0.4503  0.5533
 4919SOL    HW215047   0.285   0.625   4.551 -1.1120 -0.4794 -0.1192
 4920SOL     OW15048   0.163   5.808   5.244  0.1174  0.1821 -0.2945
 4920SOL    HW115049   0.243   5.869   5.243 -1.2893  2.1360 -0.7221
 4920SOL    HW215050   0.083   5.858   5.209 -1.5362 -1.3353  1.1109
 4921SOL     OW15051   3.665   5.844   5.127  0.1269  0.3816  0.1441
 4921SOL    HW115052   3.611   5.800   5.198  0.7858  1.1096  1.1309
 4921SOL    HW215053   3.682   5.779   5.052 -0.3659 -0.4766  0.7605
 4922SOL     OW15054   0.213   1.236   4.211 -0.0868 -0.3588  0.4048
 4922SOL    HW115055   0.279   1.307   4.188  0.1190 -1.0351 -1.2524
 4922SOL    HW215056   0.234   1.153   4.159 -2.4761 -0.4659 -0.5424
 4923SOL     OW15057   5.108   0.419   5.046  0.1688  0.2858 -0.0405
 4923SOL    HW115058   5.151   0.342   5.093 -0.1688  0.1196  0.0021
 4923SOL    HW215059   5.091   0.394   4.950  1.5823  0.9050 -0.4729
 4924SOL     OW15060   5.600   0.367   2.712  0.0352  0.2937 -0.0168
 4924SOL    HW115061   5.609   0.423   2.630 -0.6803 -0.0247 -0.3176
 4924SOL    HW215062   5.556   0.280   2.688 -1.1699  0.6322  0.8909
 4925SOL     OW15063   0.358   0.871   4.009 -0.1925 -0.6036  0.5854
 4925SOL    HW115064   0.395   0.801   3.948  0.2783 -0.9305  1.2313
 4925SOL    HW215065   0.374   0.844   4.104  1.2330  1.0170  0.8585
 4926SOL     OW15066   4.511   1.087   4.218 -0.6050  0.0744 -0.0216
 4926SOL    HW115067   4.580   1.018   4.241  0.7314  0.8030 -1.6584
 4926SOL    HW215068   4.554   1.177   4.211 -1.3961  0.3333 -2.4775
 4927SOL     OW15069   5.263   2.106   5.381 -0.8599  0.7756  0.4880
 4927SOL    HW115070   5.338   2.139   5.323 -0.1240  0.6881  1.3748
 4927SOL    HW215071   5.284   2.013   5.412 -1.5972  0.5409  0.3105
 4928SOL     OW15072   4.610   0.751   3.794  0.0607  0.4830  0.3072
 4928SOL    HW115073   4.552   0.757   3.875 -0.1101  0.1381  0.2147
 4928SOL    HW215074   4.684   0.687   3.812 -0.5940 -0.4314 -0.1719
 4929SOL     OW15075   4.807   0.584   3.866  0.3960 -0.6691 -0.1355
 4929SOL    HW115076   4.892   0.629   3.893 -1.7064  3.2305  0.7074
 4929SOL    HW215077   4.772   0.529   3.942  0.9837 -0.3606  0.3654
 4930SOL     OW15078   3.805   0.408   3.794 -0.0506  0.1562  0.2927
 4930SOL    HW115079   3.730   0.344   3.807  0.1981  0.0670  1.3946
 4930SOL    HW215080   3.775   0.483   3.735 -0.3962 -0.8597 -0.8527
 4931SOL     OW15081   4.799   0.307   4.826 -0.1492 -0.1178  0.3188
 4931SOL    HW115082   4.832   0.266   4.911  0.2455 -0.3165  0.0711
 4931SOL    HW215083   4.719   0.257   4.794  0.5882 -0.9749 -0.2118
 4932SOL     OW15084   4.943   1.664   3.777 -0.2946 -0.1239 -0.1046
 4932SOL    HW115085   4.889   1.747   3.793 -0.3231 -0.0089 -0.7596
 4932SOL    HW215086   4.988   1.637   3.862 -0.8125  0.1847  0.2785
 4933SOL     OW15087   3.451   0.372   5.957  0.2646  0.3407  0.0944
 4933SOL    HW115088   3.490   0.321   6.034 -2.7571 -0.1657  1.4057
 4933SOL    HW215089   3.429   0.309   5.883 -1.1204  0.0641  0.7113
 4934SOL     OW15090   4.736   0.104   4.549 -0.1007 -0.6304 -0.3457
 4934SOL    HW115091   4.699   0.061   4.632  1.2182  0.8150  1.0762
 4934SOL    HW215092   4.806   0.044   4.510 -1.4582 -1.8035 -1.0650
 4935SOL     OW15093   4.157   1.349   3.280  0.5653 -0.3657 -0.4522
 4935SOL    HW115094   4.094   1.384   3.349 -0.8707  2.0206 -2.8152
 4935SOL    HW215095   4.251   1.353   3.315  0.0084  1.8924  0.9294
 4936SOL     OW15096   5.401   1.342   5.709 -1.0763  0.1540 -0.2143
 4936SOL    HW115097   5.354   1.427   5.684 -2.1109 -0.3757 -0.1553
 4936SOL    HW215098   5.336   1.281   5.755 -0.1307 -0.3362  0.4932
 4937SOL     OW15099   4.397   0.411   4.573 -0.1343  0.7122  0.3409
 4937SOL    HW115100   4.399   0.415   4.673 -0.8929  1.1392  0.3449
 4937SOL    HW215101   4.473   0.354   4.541 -0.8274 -0.7951  1.2428
 4938SOL     OW15102   5.256   1.890   3.639  0.0664 -0.1781 -0.1641
 4938SOL    HW115103   5.281   1.810   3.693 -2.6040 -0.9039  0.1762
 4938SOL    HW215104   5.157   1.889   3.622 -0.1509  3.2136  0.1075
 4939SOL     OW15105   4.854   0.722   4.993 -0.2585  0.6760  0.4892
 4939SOL    HW115106   4.893   0.756   4.907 -0.4095  0.0534  0.1711
 4939SOL    HW215107   4.914   0.748   5.069  0.3437  0.4513  0.0991
 4940SOL     OW15108   5.186   1.208   3.814 -0.3386  0.1845  0.3541
 4940SOL    HW115109   5.243   1.126   3.815 -1.6689 -0.7917 -0.2507
 4940SOL    HW215110   5.242   1.288   3.789  0.4314 -1.0203 -2.1518
 4941SOL     OW15111   4.663   0.100   5.909  0.1822  0.2415 -0.8174
 4941SOL    HW115112   4.595   0.065   5.974 -1.3201  0.1788 -2.3562
 4941SOL    HW215113   4.735   0.032   5.897 -0.4252 -0.4847 -0.4876
 4942SOL     OW15114   5.695   0.892   5.809  0.0368  0.2459  0.3105
 4942SOL    HW115115   5.749   0.808   5.813 -0.3379 -0.0276 -0.1526
 4942SOL    HW215116   5.688   0.932   5.900  1.5368  0.6203  0.2728
 4943SOL     OW15117   1.817   2.143   0.576 -0.2621  0.5980  0.2275
 4943SOL    HW115118   1.871   2.090   0.511 -0.2314 -1.0253  1.5093
 4943SOL    HW215119   1.836   2.112   0.669 -4.4658 -1.1986  0.7063
 4944SOL     OW15120   5.028   0.842   0.221 -0.3590  0.3669  0.1762
 4944SOL    HW115121   4.959   0.863   0.150  1.5702  0.9262 -1.6303
 4944SOL    HW215122   5.075   0.758   0.197  0.9598  1.0596  0.2485
 4945SOL     OW15123   5.549   1.090   4.682  0.8570 -0.6073 -0.0689
 4945SOL    HW115124   5.612   1.042   4.743  1.2076 -0.0439  0.0148
 4945SOL    HW215125   5.593   1.107   4.594  0.9409  0.0644  0.0950
 4946SOL     OW15126   4.794   1.081   4.345  0.4543 -0.1668 -0.2344
 4946SOL    HW115127   4.780   1.012   4.416  0.4187  0.1803  0.1006
 4946SOL    HW215128   4.891   1.104   4.339  0.5016 -0.4395 -0.5315
 4947SOL     OW15129   5.124   5.802   5.450  0.3894 -0.1457  0.1113
 4947SOL    HW115130   5.213   5.755   5.451 -0.8037 -2.5681 -0.4472
 4947SOL    HW215131   5.096   5.821   5.544  1.0312 -0.2990  0.3421
 4948SOL     OW15132   0.868   0.654   5.809  0.1180 -0.1344  0.1036
 4948SOL    HW115133   0.874   0.754   5.808 -0.5955 -0.0444  1.7913
 4948SOL    HW215134   0.915   0.619   5.890 -2.8928 -0.8607  1.6614
 4949SOL     OW15135   5.738   0.965   3.269  0.0663 -0.2424  0.7955
 4949SOL    HW115136   5.795   1.023   3.211 -0.4831 -0.1603  0.3222
 4949SOL    HW215137   5.646   0.961   3.231  0.3654 -2.3399  0.1562
 4950SOL     OW15138   5.108   1.495   0.127 -0.3284  0.0614  0.1950
 4950SOL    HW115139   5.095   1.541   0.215 -2.4857 -0.7793  0.3778
 4950SOL    HW215140   5.162   1.412   0.141 -1.1513 -0.3774  0.8487
 4951SOL     OW15141   4.531   0.008   2.894  0.0153  0.2592  0.4109
 4951SOL    HW115142   4.479   0.036   2.975 -1.0863  1.4493 -0.6617
 4951SOL    HW215143   4.612   0.067   2.885 -1.0598  1.6779 -0.5461
 4952SOL     OW15144   4.271   0.641   3.219  0.0322  0.4208  0.0809
 4952SOL    HW115145   4.336   0.703   3.262 -0.5433  1.2803 -0.2515
 4952SOL    HW215146   4.314   0.596   3.141 -0.1503  2.0846 -1.0466
 4953SOL     OW15147   5.896   1.081   4.363 -0.0263 -0.4044  0.3701
 4953SOL    HW115148   5.886   1.061   4.265 -0.8902  1.7214 -0.0279
 4953SOL    HW215149   5.929   1.174   4.374 -1.8688  0.1026  2.1259
 4954SOL     OW15150   4.949   1.191   0.791 -0.1887  0.4146  0.1667
 4954SOL    HW115151   4.913   1.238   0.710  1.0181 -1.0653 -1.2922
 4954SOL    HW215152   4.873   1.161   0.848 -1.1115  0.6081 -0.9205
 4955SOL     OW15153   3.989   0.553   5.218 -0.0930 -0.2044 -0.3150
 4955SOL    HW115154   3.983   0.474   5.158 -1.8443 -0.3895  0.0595
 4955SOL    HW215155   4.081   0.559   5.256 -0.1493 -2.5601  0.3274
 4956SOL     OW15156   5.150   1.071   4.879 -0.1794 -0.0534 -0.2546
 4956SOL    HW115157   5.237   1.026   4.897 -0.8050 -1.2791 -0.2233
 4956SOL    HW215158   5.125   1.061   4.783 -0.5005 -0.0854 -0.1698
 4957SOL     OW15159   0.689   1.370   4.019  0.1937 -0.1922 -0.0191
 4957SOL    HW115160   0.732   1.396   3.932  0.7833  1.6238  0.7695
 4957SOL    HW215161   0.749   1.307   4.068  0.9996  0.6904  0.1443
 4958SOL     OW15162   4.627   0.984   3.976  0.4267 -0.5554  0.0809
 4958SOL    HW115163   4.677   0.909   4.019 -1.0161 -1.1745  0.7489
 4958SOL    HW215164   4.572   1.030   4.046  0.0034  0.0609 -0.6533
 4959SOL     OW15165   5.993   1.659   3.607 -0.9366  0.1954 -0.2132
 4959SOL    HW115166   6.029   1.620   3.522  0.3552 -1.4436  1.0124
 4959SOL    HW215167   5.902   1.623   3.625 -0.5323 -0.7887 -0.0826
 4960SOL     OW15168   3.155   1.158   4.986  0.0826  0.4207 -0.3274
 4960SOL    HW115169   3.230   1.091   4.989 -0.3983 -0.1107  0.7997
 4960SOL    HW215170   3.097   1.139   4.907  1.6644  1.4709 -1.8103
 4961SOL     OW15171   5.533   1.833   3.911  0.4310  0.1932 -0.2158
 4961SOL    HW115172   5.478   1.771   3.855  0.0623  1.2605 -1.0642
 4961SOL    HW215173   5.492   1.842   4.001  0.6484 -1.0153  0.0127
 4962SOL     OW15174   0.511   0.296   4.499  0.7176  0.1417  0.1579
 4962SOL    HW115175   0.419   0.298   4.460  1.0333 -1.8536 -0.8134
 4962SOL    HW215176   0.511   0.238   4.581  1.1814 -0.1977 -0.0781
 4963SOL     OW15177   3.738   5.848   3.449 -0.2855 -0.4292  0.4645
 4963SOL    HW115178   3.749   5.791   3.531  0.0637  0.5977  1.1475
 4963SOL    HW215179   3.702   5.937   3.475  0.2505  0.0669 -0.4482
 4964SOL     OW15180   5.127   1.362   4.743  0.1837  0.4806 -0.1343
 4964SOL    HW115181   5.127   1.262   4.746  0.6928  0.4778 -0.1176
 4964SOL    HW215182   5.188   1.397   4.814 -0.7487  0.8339  0.5211
 4965SOL     OW15183   5.309   2.330   4.273  0.4233 -0.8311 -0.1646
 4965SOL    HW115184   5.229   2.277   4.246  1.0718 -2.1493  0.4164
 4965SOL    HW215185   5.376   2.330   4.198  0.3268 -0.6315 -0.2514
 4966SOL     OW15186   4.445   5.682   3.222  0.0521  0.4272  0.4994
 4966SOL    HW115187   4.525   5.738   3.244 -0.0401  1.2217 -1.0617
 4966SOL    HW215188   4.474   5.602   3.169 -0.1670  0.7106 -0.0595
 4967SOL     OW15189   5.789   0.673   4.970 -0.5775  0.0518  0.1745
 4967SOL    HW115190   5.877   0.709   4.999 -0.7827  1.3158 -0.6735
 4967SOL    HW215191   5.794   0.574   4.963  1.0222  0.1625 -0.6268
 4968SOL     OW15192   5.730   0.314   4.676 -0.4304 -0.0488  0.4211
 4968SOL    HW115193   5.703   0.397   4.628 -0.1486 -0.0970  0.1704
 4968SOL    HW215194   5.777   0.338   4.761  0.4226  0.0722 -0.0705
 4969SOL     OW15195   2.950   2.610   3.998 -0.1112  0.5780 -0.0200
 4969SOL    HW115196   2.893   2.543   3.950  0.1189 -0.0102  0.5106
 4969SOL    HW215197   2.921   2.617   4.093  1.4353 -0.6115  0.5769
 4970SOL     OW15198   4.399   1.350   4.967 -0.2515 -0.0693  0.3612
 4970SOL    HW115199   4.389   1.324   5.063  0.3091  0.5943  0.6157
 4970SOL    HW215200   4.330   1.418   4.943  0.6934  1.1007  0.8216
 4971SOL     OW15201   3.438   1.101   1.182  0.5094 -0.2930 -0.3775
 4971SOL    HW115202   3.526   1.148   1.172  0.6817 -0.3638  0.6889
 4971SOL    HW215203   3.451   1.003   1.169  0.4347 -0.2202 -1.0310
 4972SOL     OW15204   4.684   2.359   5.048 -0.1563 -0.8533  0.6160
 4972SOL    HW115205   4.770   2.408   5.065  0.0266 -1.6797  2.3261
 4972SOL    HW215206   4.610   2.425   5.039  0.6839 -0.1065 -1.2523
 4973SOL     OW15207   4.830   1.209   0.164 -0.0713  0.5968 -0.0181
 4973SOL    HW115208   4.889   1.255   0.230 -0.3114  1.9747 -0.7323
 4973SOL    HW215209   4.775   1.139   0.211 -0.1536  1.4634  1.2123
 4974SOL     OW15210   4.825   1.521   5.121 -0.1993 -0.2218  0.3107
 4974SOL    HW115211   4.745   1.530   5.180 -0.7829 -1.4331 -0.2617
 4974SOL    HW215212   4.802   1.465   5.042  0.8820  0.4409 -0.5113
 4975SOL     OW15213   4.378   2.573   4.728  0.0187  0.2997  0.3755
 4975SOL    HW115214   4.478   2.571   4.721  0.1016  1.9912  0.7319
 4975SOL    HW215215   4.338   2.555   4.639  0.6855  1.3907 -0.1662
 4976SOL     OW15216   2.996   1.992   4.829 -0.3477  0.4660 -0.5993
 4976SOL    HW115217   3.085   1.969   4.867 -0.0238 -4.0166 -3.3827
 4976SOL    HW215218   2.926   1.932   4.868 -1.2535  0.6073 -1.9289
 4977SOL     OW15219   5.429   0.911   0.120  0.2557 -0.0886  0.2229
 4977SOL    HW115220   5.360   0.896   0.191 -0.1840 -0.9435 -0.3606
 4977SOL    HW215221   5.498   0.976   0.153 -0.6494  0.5364  0.9356
 4978SOL     OW15222   0.837   0.478   5.292 -0.1711 -0.3544  0.1628
 4978SOL    HW115223   0.930   0.478   5.255 -1.4772  0.5927 -3.5690
 4978SOL    HW215224   0.818   0.565   5.336  0.1996  0.0854 -0.5379
 4979SOL     OW15225   5.369   0.233   5.643  0.2391 -0.2296 -0.3388
 4979SOL    HW115226   5.280   0.249   5.600  0.1726  0.6598  0.1233
 4979SOL    HW215227   5.439   0.286   5.595  0.4580 -0.5738 -0.4114
 4980SOL     OW15228   4.466   5.987   0.096 -0.1958  0.1964  0.1470
 4980SOL    HW115229   4.526   6.023   0.167 -0.3597 -1.3994  1.1524
 4980SOL    HW215230   4.486   5.890   0.081 -1.4890  0.0131 -0.5676
 4981SOL     OW15231   4.069   0.096   4.872  0.3702 -0.0571  0.3957
 4981SOL    HW115232   4.008   0.072   4.948 -0.3401  1.6212  0.4111
 4981SOL    HW215233   4.110   0.185   4.890  0.3529  0.2782 -1.0982
 4982SOL     OW15234   4.014   0.135   5.699  0.3564 -0.8363 -0.3485
 4982SOL    HW115235   3.973   0.190   5.771  0.8472 -0.3542 -0.4255
 4982SOL    HW215236   3.970   0.156   5.611  4.0674  3.7968 -1.5452
 4983SOL     OW15237   5.054   1.871   0.299 -0.4129 -0.3499 -0.0977
 4983SOL    HW115238   5.017   1.961   0.324 -0.1024 -0.4765  0.8498
 4983SOL    HW215239   5.107   1.879   0.214 -0.2697  0.3890  0.0568
 4984SOL     OW15240   4.719   1.317   5.945  0.3028 -0.5367  0.3696
 4984SOL    HW115241   4.668   1.258   5.882  0.4248 -0.1570 -0.0839
 4984SOL    HW215242   4.729   1.270   6.033  1.1920 -1.5735 -0.2680
 4985SOL     OW15243   5.663   1.575   0.362 -0.1616  0.3089 -0.0514
 4985SOL    HW115244   5.651   1.513   0.440  0.2908  0.7613  0.3964
 4985SOL    HW215245   5.597   1.649   0.368  0.1696  0.5908  0.1587
 4986SOL     OW15246   3.882   0.798   5.828  0.0667 -0.1344  0.4973
 4986SOL    HW115247   3.880   0.863   5.752 -0.6168 -1.8423 -1.0136
 4986SOL    HW215248   3.828   0.717   5.804  1.2280 -1.4560  2.1387
 4987SOL     OW15249   3.478   0.748   4.589  0.3279  0.0770 -0.7575
 4987SOL    HW115250   3.502   0.760   4.492  1.8703  0.6227 -0.3299
 4987SOL    HW215251   3.561   0.740   4.643 -0.5331 -0.8486  0.4693
 4988SOL     OW15252   4.264   0.304   5.460  0.0523  0.2081  0.5429
 4988SOL    HW115253   4.201   0.235   5.424  0.1784 -1.6965  3.6481
 4988SOL    HW215254   4.352   0.261   5.481  0.6713  1.6768  1.1059
 4989SOL     OW15255   2.973   0.083   4.242  0.0109 -0.6412  0.2327
 4989SOL    HW115256   3.044   0.153   4.240 -0.2413 -0.3961 -0.4867
 4989SOL    HW215257   2.954   0.058   4.337  1.6118 -1.2888  0.4182
 4990SOL     OW15258   0.317   1.155   5.186 -0.5606  0.1177 -0.2692
 4990SOL    HW115259   0.304   1.057   5.171 -1.7909  0.0717  0.9726
 4990SOL    HW215260   0.297   1.178   5.281 -0.1151  1.5527 -0.4957
 4991SOL     OW15261   4.804   1.319   0.595  0.7378 -0.4279  0.2991
 4991SOL    HW115262   4.750   1.367   0.525 -2.0382 -1.4738  1.5523
 4991SOL    HW215263   4.788   1.362   0.684  1.6429 -1.0729  0.7913
 4992SOL     OW15264   4.986   1.901   5.349  0.1285 -0.0006 -0.4710
 4992SOL    HW115265   4.996   1.991   5.306  1.8319 -0.2762 -0.7109
 4992SOL    HW215266   4.965   1.913   5.446 -0.3187  0.6467 -0.6411
 4993SOL     OW15267   4.225   1.115   4.611  0.6674 -0.4717 -0.2370
 4993SOL    HW115268   4.132   1.131   4.645  0.3358  1.0767 -1.7379
 4993SOL    HW215269   4.260   1.199   4.569  3.4315 -0.4785  1.7544
 4994SOL     OW15270   3.428   1.229   5.657  0.3913 -0.0666  0.0084
 4994SOL    HW115271   3.503   1.168   5.631  0.2713 -0.2024 -0.0180
 4994SOL    HW215272   3.350   1.213   5.597 -0.3741 -1.3194  1.2665
 4995SOL     OW15273   3.965   0.602   0.832 -0.0881  0.3983 -0.3199
 4995SOL    HW115274   4.044   0.655   0.801  1.6464 -2.4071 -1.1043
 4995SOL    HW215275   3.909   0.575   0.754  0.2986 -0.7407 -0.2182
 4996SOL     OW15276   5.121   0.579   4.086  0.2299  0.0557 -0.6610
 4996SOL    HW115277   5.106   0.666   4.038 -1.3290 -0.4378 -1.1266
 4996SOL    HW215278   5.207   0.584   4.138  0.5603  1.5856 -1.2923
 4997SOL     OW15279   0.278   4.671   5.190 -0.2641  0.0283  0.4534
 4997SOL    HW115280   0.224   4.601   5.235  1.0521 -1.0798  0.3870
 4997SOL    HW215281   0.355   4.698   5.248  0.8500 -0.6583 -0.6241
 4998SOL     OW15282   0.344   1.090   0.194  0.2290 -0.0025  0.0994
 4998SOL    HW115283   0.387   0.999   0.201  1.2988  0.5119  0.3919
 4998SOL    HW215284   0.415   1.160   0.191 -0.5897  0.9856  2.0590
 4999SOL     OW15285   3.626   0.306   4.714  1.2761 -0.0559  0.0532
 4999SOL    HW115286   3.527   0.304   4.708  1.2684 -0.7084  0.3784
 4999SOL    HW215287   3.662   0.377   4.653  0.6412 -0.1305 -0.4112
 5000SOL     OW15288   3.682   5.618   5.691  0.0070  0.0997 -0.4891
 5000SOL    HW115289   3.671   5.519   5.689  1.3071 -0.0687 -0.1431
 5000SOL    HW215290   3.710   5.646   5.783  0.2870  0.7136 -0.7585
 5001SOL     OW15291   5.257   5.472   5.856 -0.1902  0.5248  0.3921
 5001SOL    HW115292   5.333   5.423   5.899 -1.3201  0.2833  2.2251
 5001SOL    HW215293   5.246   5.439   5.762  1.0949 -0.4251  0.5394
 5002SOL     OW15294   4.243   1.280   1.332  0.1191 -0.2813  0.1819
 5002SOL    HW115295   4.230   1.181   1.326 -2.0225  0.0455 -1.2586
 5002SOL    HW215296   4.247   1.320   1.241 -0.1124  1.1081  0.7441
 5003SOL     OW15297   4.173   2.515   5.748  0.3608 -0.1802  0.2531
 5003SOL    HW115298   4.133   2.525   5.839  1.0319 -0.4210  0.5807
 5003SOL    HW215299   4.267   2.482   5.757  0.9182  1.1482 -0.4651
 5004SOL     OW15300   4.056   3.344   5.041  0.5203  0.0763 -0.2807
 5004SOL    HW115301   4.112   3.332   4.959 -0.3257 -0.9703 -0.7364
 5004SOL    HW215302   4.104   3.305   5.120 -0.8956 -4.2352 -1.2383
 5005SOL     OW15303   5.282   0.182   0.343 -0.1741 -0.3558  0.1758
 5005SOL    HW115304   5.191   0.166   0.380  0.2596 -1.2007  0.9093
 5005SOL    HW215305   5.278   0.185   0.243 -1.0373 -0.1452  0.2149
 5006SOL     OW15306   5.086   1.834   4.462  0.2034  0.5301 -0.6133
 5006SOL    HW115307   5.102   1.739   4.490  0.3218  0.6480 -0.2760
 5006SOL    HW215308   5.059   1.888   4.541 -0.7675  0.5862 -0.9714
 5007SOL     OW15309   4.037   0.371   0.058 -0.0968  0.0745  0.2204
 5007SOL    HW115310   4.059   0.446   0.121 -0.7038  0.4819 -0.0466
 5007SOL    HW215311   4.102   0.296   0.072  1.3270  1.1456 -0.3780
 5008SOL     OW15312   4.179   2.424   0.172  0.1013  0.4479  0.4483
 5008SOL    HW115313   4.232   2.398   0.253 -1.4248  1.5107  1.8857
 5008SOL    HW215314   4.189   2.355   0.101  1.7977 -0.3385  1.4050
 5009SOL     OW15315   3.169   5.949   5.707 -0.0254 -0.2134  0.2327
 5009SOL    HW115316   3.088   5.898   5.678  1.1340 -1.1325 -1.5858
 5009SOL    HW215317   3.222   5.894   5.772  0.5743 -0.8677 -0.7705
 5010SOL     OW15318   3.204   0.668   1.496 -0.6721 -0.3699 -0.2586
 5010SOL    HW115319   3.188   0.589   1.556 -0.3756 -0.2429 -0.0056
 5010SOL    HW215320   3.126   0.679   1.434 -0.8341 -0.7039 -0.1207
 5011SOL     OW15321   5.626   0.210   0.279 -0.0324 -0.2511  0.0164
 5011SOL    HW115322   5.593   0.143   0.213 -0.6278  1.0792 -1.0830
 5011SOL    HW215323   5.628   0.169   0.370 -1.1014 -1.5228 -0.5073
 5012SOL     OW15324   4.717   5.231   0.892  0.1622 -0.1932  0.0830
 5012SOL    HW115325   4.666   5.280   0.821 -0.0148 -0.7738 -0.1923
 5012SOL    HW215326   4.812   5.221   0.863  0.1322 -0.2676  0.0093
 5013SOL     OW15327   4.023   5.840   5.257 -0.3150  0.6983 -0.0985
 5013SOL    HW115328   3.943   5.803   5.305  0.3222  0.6809  0.9728
 5013SOL    HW215329   4.100   5.777   5.268  0.9100  2.4519  2.1014
 5014SOL     OW15330   4.678   5.859   4.743  0.1833 -0.2359 -0.0886
 5014SOL    HW115331   4.721   5.776   4.778  0.3082 -0.2696 -0.3203
 5014SOL    HW215332   4.638   5.911   4.819  0.9926  0.0002  0.1841
 5015SOL     OW15333   0.430   0.973   4.882  0.2808  0.1834 -0.4676
 5015SOL    HW115334   0.416   0.977   4.981  0.7346 -1.3492 -0.3211
 5015SOL    HW215335   0.443   0.878   4.854  3.8654  0.8270 -1.4846
 5016SOL     OW15336   4.228   5.496   5.898 -0.1426  0.0676 -0.2844
 5016SOL    HW115337   4.194   5.553   5.824 -1.3728  0.2782  0.4223
 5016SOL    HW215338   4.288   5.551   5.957 -2.3542  1.0641  1.1388
 5017SOL     OW15339   4.883   1.966   4.964  0.3445 -0.1395 -0.2190
 5017SOL    HW115340   4.799   1.947   5.014  0.7069  0.7755  0.7770
 5017SOL    HW215341   4.956   1.906   4.998 -0.1019 -1.5835 -1.7216
 5018SOL     OW15342   4.328   2.756   5.264  0.4541  0.4473 -0.5633
 5018SOL    HW115343   4.386   2.769   5.183  0.6406  1.8100 -0.2279
 5018SOL    HW215344   4.289   2.844   5.292  0.3231 -0.0194  0.7844
 5019SOL     OW15345   3.054   1.868   1.781 -0.3509 -0.0465  0.5142
 5019SOL    HW115346   3.034   1.789   1.840 -0.3806  0.1753  0.8027
 5019SOL    HW215347   3.071   1.836   1.688 -2.9105 -0.2029  0.0248
 5020SOL     OW15348   2.602   2.660   1.360  0.0547  0.4195  0.0755
 5020SOL    HW115349   2.653   2.745   1.375  1.1813 -0.2923  0.4269
 5020SOL    HW215350   2.666   2.583   1.364 -0.6242 -0.3164 -2.0377
 5021SOL     OW15351   4.076   2.787   2.172 -0.6022  0.1556 -0.6724
 5021SOL    HW115352   4.098   2.884   2.161  0.3436 -0.1885 -2.2680
 5021SOL    HW215353   4.150   2.732   2.133 -1.6081 -1.1868 -0.7581
 5022SOL     OW15354   0.265   3.525   1.973  0.0753 -0.0677  0.3461
 5022SOL    HW115355   0.236   3.618   1.952  0.3013 -0.0939 -0.0856
 5022SOL    HW215356   0.192   3.478   2.024 -1.2843 -0.6056 -1.9362
 5023SOL     OW15357   4.224   3.035   0.254 -0.3230 -0.6166 -0.0922
 5023SOL    HW115358   4.297   2.967   0.248 -1.4229 -1.9866  1.0945
 5023SOL    HW215359   4.147   3.006   0.198 -0.7184 -0.2355  0.2514
 5024SOL     OW15360   4.379   1.996   5.930 -0.1606  0.2951 -0.0361
 5024SOL    HW115361   4.345   1.986   5.836 -0.9816 -2.1118  0.4270
 5024SOL    HW215362   4.455   1.933   5.944  1.0020  1.7828  0.4937
 5025SOL     OW15363   4.515   3.138   2.075 -0.2753 -0.5727  0.3322
 5025SOL    HW115364   4.531   3.041   2.092 -0.1348 -0.6515 -0.2147
 5025SOL    HW215365   4.452   3.149   1.998  1.5020 -0.2508 -1.1802
 5026SOL     OW15366   4.771   2.213   2.471 -0.2515  0.1539  0.0411
 5026SOL    HW115367   4.715   2.142   2.514  1.0779 -1.2448 -0.4134
 5026SOL    HW215368   4.853   2.228   2.526  0.8336 -0.7184 -1.2620
 5027SOL     OW15369   3.776   3.048   0.616  0.3008 -0.1265 -0.1743
 5027SOL    HW115370   3.734   2.967   0.657 -0.9410  0.0946 -0.9661
 5027SOL    HW215371   3.870   3.057   0.649  0.2804 -1.5749  0.3507
 5028SOL     OW15372   4.458   3.448   2.922  0.1365 -0.3272  0.5074
 5028SOL    HW115373   4.453   3.388   2.842 -1.4739  1.2854 -0.6945
 5028SOL    HW215374   4.380   3.431   2.982 -0.6781  0.9140 -0.1548
 5029SOL     OW15375   4.103   5.197   1.865 -0.2841  0.0674 -0.0378
 5029SOL    HW115376   4.003   5.194   1.875 -0.1460 -1.6867  1.3076
 5029SOL    HW215377   4.136   5.287   1.892 -1.3389 -0.0121  1.7327
 5030SOL     OW15378   0.196   2.933   0.392  0.2636  0.0547 -0.4591
 5030SOL    HW115379   0.182   2.835   0.381  1.1894 -0.2266  0.6219
 5030SOL    HW215380   0.295   2.952   0.393  0.1306  1.2625 -2.6519
 5031SOL     OW15381   4.635   1.863   1.708 -0.5907 -0.3560  0.0165
 5031SOL    HW115382   4.702   1.793   1.681 -0.7603 -0.5452  0.0859
 5031SOL    HW215383   4.652   1.892   1.802 -1.2796 -1.1957  0.4091
 5032SOL     OW15384   0.157   2.270   0.886 -0.4348 -0.2230 -0.5142
 5032SOL    HW115385   0.130   2.181   0.922  2.1830 -1.0215 -0.3186
 5032SOL    HW215386   0.160   2.336   0.961  0.7172 -0.8044 -0.0133
 5033SOL     OW15387   4.472   2.974   0.595  0.2654 -0.0315  0.1707
 5033SOL    HW115388   4.493   2.926   0.510  0.1551 -0.0378  0.1461
 5033SOL    HW215389   4.422   3.058   0.574 -2.0847 -1.2892  0.3465
 5034SOL     OW15390   4.023   2.557   0.932 -0.7460 -0.8116 -0.0787
 5034SOL    HW115391   4.054   2.545   1.027  0.7631 -0.1362 -0.4684
 5034SOL    HW215392   3.929   2.522   0.924 -0.7613 -1.2545  1.5609
 5035SOL     OW15393   3.579   3.487   5.914  0.4672  0.1361  0.1104
 5035SOL    HW115394   3.511   3.463   5.845 -0.3564  0.1042  0.9173
 5035SOL    HW215395   3.662   3.433   5.898 -0.2423 -0.9610  0.0233
 5036SOL     OW15396   3.310   2.499   0.411 -0.1360 -0.3900  0.1879
 5036SOL    HW115397   3.255   2.499   0.327  0.1223  0.2726  0.0093
 5036SOL    HW215398   3.254   2.466   0.487 -0.6261 -0.2340 -0.0940
 5037SOL     OW15399   5.500   3.386   1.222 -0.2364 -0.2188 -0.0116
 5037SOL    HW115400   5.512   3.330   1.304  0.6557 -0.4079 -0.2580
 5037SOL    HW215401   5.419   3.444   1.232  0.3935  0.4747  1.4202
 5038SOL     OW15402   3.771   2.228   1.973 -0.2286 -0.2078  0.7269
 5038SOL    HW115403   3.679   2.266   1.987 -0.6257 -0.5449 -0.7520
 5038SOL    HW215404   3.831   2.300   1.937 -0.2128 -0.2489  0.6705
 5039SOL     OW15405   4.736   1.587   2.368  0.1321  0.1961 -0.3386
 5039SOL    HW115406   4.750   1.659   2.437  2.4343 -1.0958  0.6577
 5039SOL    HW215407   4.760   1.498   2.407 -1.6961 -1.0296 -1.8540
 5040SOL     OW15408   4.053   3.110   1.480 -0.3894  0.2922 -0.1541
 5040SOL    HW115409   4.115   3.044   1.437 -1.1604 -0.7924  0.3380
 5040SOL    HW215410   3.999   3.156   1.409  0.5072  0.7636 -0.5363
 5041SOL     OW15411   5.213   3.172   0.185 -0.4499 -0.0440 -0.0748
 5041SOL    HW115412   5.141   3.145   0.121  0.6710 -1.0117 -0.9750
 5041SOL    HW215413   5.187   3.257   0.231 -1.8442 -0.0111 -0.8827
 5042SOL     OW15414   5.257   3.098   5.384 -0.3486 -0.8957  0.4240
 5042SOL    HW115415   5.352   3.109   5.354 -0.0003 -1.0519  1.4240
 5042SOL    HW215416   5.197   3.093   5.304  0.3494  0.3914 -0.2121
 5043SOL     OW15417   4.593   3.623   0.294 -0.1163 -0.4185 -0.2365
 5043SOL    HW115418   4.505   3.577   0.282 -1.2291  1.3475  0.7528
 5043SOL    HW215419   4.579   3.722   0.297  2.0410 -0.0279 -0.9976
 5044SOL     OW15420   4.917   3.077   0.860  0.7569 -0.0502  0.0850
 5044SOL    HW115421   4.967   2.994   0.837 -0.0681 -1.1281  1.9576
 5044SOL    HW215422   4.823   3.054   0.885  0.4913  1.4386  0.5988
 5045SOL     OW15423   3.639   2.466   2.174  0.2335 -0.0843  0.3100
 5045SOL    HW115424   3.590   2.440   2.090  0.5833 -1.5246  0.5248
 5045SOL    HW215425   3.734   2.485   2.151  0.8918 -2.6100  0.6209
 5046SOL     OW15426   3.859   2.772   1.175  0.4427  0.3311  0.1640
 5046SOL    HW115427   3.944   2.723   1.198 -0.2943 -0.9923  0.2094
 5046SOL    HW215428   3.873   2.870   1.186  1.8051  0.1041  0.7138
 5047SOL     OW15429   4.721   2.485   1.442 -0.6363  0.1600  0.3213
 5047SOL    HW115430   4.785   2.465   1.515 -1.5421  2.1934  1.7638
 5047SOL    HW215431   4.771   2.515   1.360  0.3445 -1.2492  0.3795
 5048SOL     OW15432   4.906   1.875   5.620 -0.6155  0.0968  0.0132
 5048SOL    HW115433   4.959   1.810   5.674 -0.9169  0.3623  0.6470
 5048SOL    HW215434   4.810   1.847   5.619 -0.6475  0.2087 -0.2094
 5049SOL     OW15435   3.997   2.833   1.743 -0.4701 -0.3899  0.0202
 5049SOL    HW115436   3.932   2.909   1.735  0.2029  0.5135  2.3800
 5049SOL    HW215437   3.956   2.759   1.796  0.4169  0.2652  1.6906
 5050SOL     OW15438   0.175   4.032   0.761 -0.0240 -0.6174  0.4518
 5050SOL    HW115439   0.128   3.956   0.805 -0.4295 -0.1300  0.8783
 5050SOL    HW215440   0.109   4.083   0.705  0.3882 -0.9678 -0.3680
 5051SOL     OW15441   3.529   3.396   0.711 -0.4409 -0.2516 -0.3678
 5051SOL    HW115442   3.529   3.310   0.762  0.9841 -0.2674 -0.3552
 5051SOL    HW215443   3.516   3.472   0.775 -0.1645 -0.3603 -0.1821
 5052SOL     OW15444   3.097   1.237   2.916  0.1769  0.0354 -0.4680
 5052SOL    HW115445   3.142   1.181   2.846  2.9256  0.2324  0.9880
 5052SOL    HW215446   3.007   1.199   2.937  1.7446 -3.7574  0.2086
 5053SOL     OW15447   5.128   3.741   0.793  0.2548  0.2350 -0.1855
 5053SOL    HW115448   5.190   3.781   0.725 -1.0515  0.7288 -1.1378
 5053SOL    HW215449   5.089   3.814   0.850  2.4819 -0.2919  2.1845
 5054SOL     OW15450   5.413   4.130   1.396 -0.4619  0.2587  0.7096
 5054SOL    HW115451   5.335   4.185   1.366 -0.6696  0.2903  1.3009
 5054SOL    HW215452   5.480   4.189   1.441  1.4361  0.8493 -2.5313
 5055SOL     OW15453   4.433   1.781   1.361  0.1009 -0.0236 -0.0357
 5055SOL    HW115454   4.513   1.841   1.365  0.8498 -1.0556  1.5294
 5055SOL    HW215455   4.357   1.822   1.410  0.4164 -0.0642  0.4950
 5056SOL     OW15456   5.604   1.917   1.240  0.5545  0.0691  0.1988
 5056SOL    HW115457   5.558   1.845   1.291 -0.6266  0.6663  0.0070
 5056SOL    HW215458   5.700   1.893   1.228  0.0394 -1.8182 -0.5068
 5057SOL     OW15459   3.830   3.284   0.440  0.5527  0.2169  0.0165
 5057SOL    HW115460   3.810   3.381   0.447 -0.7300 -0.0079 -0.2796
 5057SOL    HW215461   3.772   3.233   0.505 -0.0728 -0.4899 -1.0644
 5058SOL     OW15462   0.621   2.114   1.474  0.6578 -0.3761  0.5748
 5058SOL    HW115463   0.599   2.164   1.558 -1.0042 -2.1271  1.2683
 5058SOL    HW215464   0.574   2.026   1.475  0.1028 -0.2199 -2.4882
 5059SOL     OW15465   0.230   2.081   0.417  0.1531 -0.4231 -0.3145
 5059SOL    HW115466   0.185   2.045   0.498 -0.0106  0.0125 -0.2079
 5059SOL    HW215467   0.166   2.079   0.340 -0.1405  0.4029 -0.1108
 5060SOL     OW15468   5.468   3.142   2.480  0.2021 -0.5732  0.1398
 5060SOL    HW115469   5.493   3.113   2.572  0.8051  0.5552  0.3548
 5060SOL    HW215470   5.369   3.135   2.468  0.2492 -2.0496  0.3823
 5061SOL     OW15471   5.232   1.896   1.017 -0.3767  0.2634 -0.1458
 5061SOL    HW115472   5.162   1.893   0.946 -0.5322 -1.4994  0.0172
 5061SOL    HW215473   5.192   1.926   1.103 -1.5522 -2.6668  0.4752
 5062SOL     OW15474   3.898   3.815   1.129  0.2421 -0.1232 -0.5418
 5062SOL    HW115475   3.833   3.828   1.204 -0.9445 -1.0930 -1.3652
 5062SOL    HW215476   3.969   3.885   1.134 -0.5695  0.6456  0.6916
 5063SOL     OW15477   4.150   1.464   0.892 -0.3851 -0.0675 -0.3644
 5063SOL    HW115478   4.066   1.516   0.910 -1.0235 -1.3663  0.6190
 5063SOL    HW215479   4.128   1.383   0.838  0.4868  0.3226 -1.3253
 5064SOL     OW15480   2.851   4.060   1.961 -0.0068  0.1339  0.2829
 5064SOL    HW115481   2.883   4.013   1.879  0.9394  1.9334 -0.4341
 5064SOL    HW215482   2.757   4.034   1.980 -0.3511 -0.0857 -1.5517
 5065SOL     OW15483   3.450   2.522   5.759  0.0005 -0.2722  0.0777
 5065SOL    HW115484   3.391   2.564   5.829 -0.1686  0.0971 -0.2864
 5065SOL    HW215485   3.540   2.505   5.798  0.2525  0.9529  0.0743
 5066SOL     OW15486   4.682   2.548   1.759 -0.0624  0.0817  0.1564
 5066SOL    HW115487   4.702   2.643   1.737 -1.2791  0.2670 -0.2392
 5066SOL    HW215488   4.767   2.498   1.776  0.5523  1.8083  2.8480
 5067SOL     OW15489   4.682   3.286   0.164  0.3836 -0.1971  0.0522
 5067SOL    HW115490   4.619   3.295   0.242 -0.7410  0.1633 -0.8641
 5067SOL    HW215491   4.768   3.332   0.184  0.1760 -0.2621  1.1421
 5068SOL     OW15492   3.191   0.537   2.445 -0.0814 -0.5259 -0.2674
 5068SOL    HW115493   3.134   0.455   2.450 -0.3543 -0.3119  0.1554
 5068SOL    HW215494   3.287   0.511   2.452 -0.2149 -0.7191  0.9283
 5069SOL     OW15495   4.929   3.239   0.461  0.3403  0.0040  0.4362
 5069SOL    HW115496   4.869   3.308   0.501 -0.4462 -1.4815  1.9380
 5069SOL    HW215497   5.018   3.241   0.508  0.2468 -0.1431  0.6184
 5070SOL     OW15498   3.674   2.796   1.646  0.4805  0.2671 -0.6995
 5070SOL    HW115499   3.686   2.745   1.561 -0.2500  2.3163 -2.1340
 5070SOL    HW215500   3.723   2.883   1.639  1.6351 -0.1219  1.6089
 5071SOL     OW15501   4.782   2.730   1.010 -0.0918  0.4829 -0.9562
 5071SOL    HW115502   4.737   2.697   0.927  0.3411  0.9447 -1.3750
 5071SOL    HW215503   4.718   2.788   1.061 -0.9196 -1.0694 -0.1349
 5072SOL     OW15504   4.770   2.180   2.200 -0.1463  0.1789  0.3392
 5072SOL    HW115505   4.762   2.174   2.300  0.0133 -2.1696  0.2785
 5072SOL    HW215506   4.864   2.159   2.173 -0.9021 -2.6019 -0.4089
 5073SOL     OW15507   5.033   2.190   1.391  0.4983 -0.0804  0.2608
 5073SOL    HW115508   5.036   2.267   1.455  0.3643  1.1485 -1.1628
 5073SOL    HW215509   5.010   2.223   1.300 -1.6176 -2.0900 -0.0184
 5074SOL     OW15510   4.952   3.102   1.701 -0.4445 -0.0317  0.2441
 5074SOL    HW115511   4.865   3.057   1.718 -0.7637  0.9548  1.3215
 5074SOL    HW215512   4.947   3.156   1.617 -0.9990  0.3090  0.4934
 5075SOL     OW15513   4.365   2.882   2.355  0.2481  0.0464  0.3355
 5075SOL    HW115514   4.300   2.807   2.367  0.3709  0.1007  1.3753
 5075SOL    HW215515   4.418   2.896   2.439 -1.3262  2.7519  1.0188
 5076SOL     OW15516   4.855   4.765   0.500 -0.1644  0.2227  0.1340
 5076SOL    HW115517   4.868   4.667   0.512  3.0429  0.3313 -1.4966
 5076SOL    HW215518   4.810   4.782   0.413  1.2940  0.2062 -0.6514
 5077SOL     OW15519   2.752   0.922   2.799 -0.1316 -0.0546 -0.5289
 5077SOL    HW115520   2.722   0.862   2.873  2.2736  1.0886  1.4709
 5077SOL    HW215521   2.677   0.983   2.774 -1.0017 -0.4856  0.9145
 5078SOL     OW15522   5.250   2.509   5.491  0.1963 -0.1325  0.3841
 5078SOL    HW115523   5.345   2.536   5.474  0.4074 -1.1420 -0.1124
 5078SOL    HW215524   5.191   2.589   5.480  0.5644 -0.1869 -3.1613
 5079SOL     OW15525   3.848   2.016   0.968  0.6675 -0.3143 -0.4559
 5079SOL    HW115526   3.947   2.026   0.976  0.7104 -0.5692 -0.6576
 5079SOL    HW215527   3.810   2.099   0.926  0.6281  0.3452  0.8280
 5080SOL     OW15528   4.530   2.686   0.089 -0.2445  0.0698 -0.2471
 5080SOL    HW115529   4.626   2.709   0.073 -0.0035 -0.8802 -0.2098
 5080SOL    HW215530   4.477   2.705   0.007 -0.1793  1.3703 -0.0024
 5081SOL     OW15531   3.858   2.844   5.457 -0.1059 -0.5213  0.4463
 5081SOL    HW115532   3.772   2.872   5.499  0.2244 -0.6220  1.2077
 5081SOL    HW215533   3.896   2.766   5.507 -0.6173 -1.8498 -1.1701
 5082SOL     OW15534   5.024   3.735   0.105  0.0013  0.4819  0.4286
 5082SOL    HW115535   5.087   3.667   0.067  0.9719  0.0391  2.7141
 5082SOL    HW215536   5.060   3.827   0.088 -0.3049  0.3853 -0.9020
 5083SOL     OW15537   4.857   1.372   1.283  0.1661 -0.8477 -0.8259
 5083SOL    HW115538   4.824   1.450   1.231  4.5477  1.9324  0.0795
 5083SOL    HW215539   4.933   1.329   1.234  1.0307 -1.4049  0.9208
 5084SOL     OW15540   0.619   2.227   1.229  0.1038  0.3940 -0.3147
 5084SOL    HW115541   0.630   2.168   1.310 -0.3061  0.6282 -0.0864
 5084SOL    HW215542   0.704   2.277   1.213  0.3493 -0.0197 -0.3204
 5085SOL     OW15543   5.021   1.691   5.818 -0.4463 -0.5138  0.6939
 5085SOL    HW115544   5.097   1.656   5.763 -0.7511 -0.4703  0.2386
 5085SOL    HW215545   4.980   1.616   5.870 -0.8067 -0.7535  0.0722
 5086SOL     OW15546   5.199   2.942   2.064  0.0774 -0.2170  0.2277
 5086SOL    HW115547   5.151   2.896   1.989  0.1842 -0.8029  0.5130
 5086SOL    HW215548   5.181   3.040   2.060  0.9248 -0.1054 -1.1878
 5087SOL     OW15549   0.103   3.088   1.302 -0.4897  0.7897  0.2940
 5087SOL    HW115550   0.011   3.084   1.263 -0.9287 -0.4749  1.3594
 5087SOL    HW215551   0.097   3.116   1.398 -0.0556 -1.5546  1.0771
 5088SOL     OW15552   0.457   2.235   0.382  0.2702  0.1166 -0.1210
 5088SOL    HW115553   0.382   2.169   0.390 -0.3567  0.7050 -0.9005
 5088SOL    HW215554   0.447   2.305   0.452  0.5254 -0.2204  0.2535
 5089SOL     OW15555   5.561   3.978   2.246 -0.7455 -0.2087 -0.1939
 5089SOL    HW115556   5.633   3.990   2.178  0.3040  0.1873  0.9658
 5089SOL    HW215557   5.562   4.054   2.311 -1.5815 -0.6906  0.4066
 5090SOL     OW15558   4.771   1.855   2.492  0.2774 -0.3476  0.1953
 5090SOL    HW115559   4.702   1.918   2.528  1.5520  0.0644  2.0853
 5090SOL    HW215560   4.860   1.877   2.533  1.1630 -2.0800 -0.7064
 5091SOL     OW15561   3.236   2.220   1.322  0.0862  0.8146 -0.2564
 5091SOL    HW115562   3.287   2.144   1.363  0.2431  1.1087  0.1017
 5091SOL    HW215563   3.165   2.251   1.386  1.1173  2.0762  0.3263
 5092SOL     OW15564   5.563   2.794   0.345  0.1076 -0.4052 -0.0775
 5092SOL    HW115565   5.474   2.837   0.330 -0.6500 -2.3658 -1.8204
 5092SOL    HW215566   5.565   2.752   0.436  0.4135  2.0643  1.1511
 5093SOL     OW15567   3.468   2.762   1.109  0.2557 -0.1689 -0.2604
 5093SOL    HW115568   3.432   2.727   1.196 -0.5294 -0.1134 -0.5572
 5093SOL    HW215569   3.536   2.832   1.128  1.4451 -1.4202  0.3408
 5094SOL     OW15570   4.098   2.348   1.233  0.2359 -0.5468  0.0097
 5094SOL    HW115571   4.168   2.345   1.304 -0.1582  0.5606  0.4742
 5094SOL    HW215572   4.118   2.280   1.163  0.3630 -2.0122  1.4205
 5095SOL     OW15573   4.570   3.292   1.345  0.6718 -0.5237 -0.5333
 5095SOL    HW115574   4.499   3.320   1.410 -0.0879 -2.1930 -0.5797
 5095SOL    HW215575   4.589   3.367   1.282 -0.4067  0.2697  0.0456
 5096SOL     OW15576   3.764   2.625   1.405  0.3927 -0.0910  0.1485
 5096SOL    HW115577   3.855   2.621   1.447  0.6825 -0.0757 -0.4724
 5096SOL    HW215578   3.766   2.688   1.328  0.2754 -1.3129 -0.8804
 5097SOL     OW15579   5.234   3.377   0.896 -0.3492 -0.7984  0.3981
 5097SOL    HW115580   5.328   3.390   0.926 -0.3218 -2.3067  1.0497
 5097SOL    HW215581   5.188   3.313   0.957 -1.4105 -1.0919 -0.6650
 5098SOL     OW15582   4.037   2.016   5.723 -0.3204  0.3090 -0.5295
 5098SOL    HW115583   4.047   1.994   5.820  1.9047 -1.5845 -1.0725
 5098SOL    HW215584   4.117   2.069   5.692  0.8065 -2.0285 -1.9473
 5099SOL     OW15585   3.604   0.895   1.839  0.2431  0.6477  0.4797
 5099SOL    HW115586   3.653   0.808   1.839 -0.2738  0.3243 -1.0210
 5099SOL    HW215587   3.598   0.930   1.933  0.7974 -0.7269  1.0566
 5100SOL     OW15588   4.825   1.902   2.998 -0.6805  0.5882 -0.6292
 5100SOL    HW115589   4.764   1.969   2.957 -2.6870 -0.0644  1.0852
 5100SOL    HW215590   4.772   1.836   3.051  1.4246 -0.8763 -0.1788
 5101SOL     OW15591   5.486   3.747   1.081  0.9626  0.1282 -0.1189
 5101SOL    HW115592   5.416   3.679   1.104  1.4301 -0.0360  0.8923
 5101SOL    HW215593   5.453   3.838   1.108  0.8995  0.1221 -0.1771
 5102SOL     OW15594   5.072   2.174   0.918  0.3532 -0.3283  0.0300
 5102SOL    HW115595   5.036   2.186   1.010  1.2286 -2.9333  0.8014
 5102SOL    HW215596   5.068   2.078   0.893  2.5572 -0.0730 -1.6218
 5103SOL     OW15597   0.454   3.407   1.179  0.6806 -0.6958 -0.0939
 5103SOL    HW115598   0.375   3.348   1.165 -0.2517  0.6300 -0.6239
 5103SOL    HW215599   0.504   3.377   1.260 -1.6368 -0.2561  1.6021
 5104SOL     OW15600   4.990   2.822   1.124  0.2465 -0.6023  0.0094
 5104SOL    HW115601   4.966   2.908   1.169  1.7218  0.8144 -1.7605
 5104SOL    HW215602   4.908   2.782   1.083 -0.3423  0.3200  0.2558
 5105SOL     OW15603   0.327   3.655   1.526 -0.4172 -0.1267 -0.5527
 5105SOL    HW115604   0.258   3.709   1.575  1.2318  0.9035  0.7554
 5105SOL    HW215605   0.415   3.661   1.574  0.3428 -2.3320 -1.5275
 5106SOL     OW15606   4.131   2.602   4.857  0.0153  0.0968 -0.4655
 5106SOL    HW115607   4.221   2.590   4.815  0.7582  0.8037  0.8208
 5106SOL    HW215608   4.109   2.521   4.911  0.5494  0.4814  0.3545
 5107SOL     OW15609   4.982   2.840   0.736 -0.2197 -0.4360 -0.3810
 5107SOL    HW115610   4.919   2.790   0.677  1.9287 -1.4511 -1.9714
 5107SOL    HW215611   5.074   2.836   0.697  1.0984 -0.0854  2.4378
 5108SOL     OW15612   5.103   3.207   0.700 -0.3147 -0.6091  0.0223
 5108SOL    HW115613   5.147   3.278   0.755 -1.3965 -0.2818  0.4930
 5108SOL    HW215614   5.020   3.174   0.747 -1.2477 -0.3517 -1.3739
 5109SOL     OW15615   4.082   2.636  -0.012  0.2863 -0.1407  0.3103
 5109SOL    HW115616   4.107   2.569   0.058  0.1526  0.4365  0.9221
 5109SOL    HW215617   4.156   2.702  -0.023 -1.0459  1.9009  2.5233
 5110SOL     OW15618   0.202   2.471   1.796  0.1721 -0.8084  0.0821
 5110SOL    HW115619   0.242   2.559   1.820  0.8834 -1.1505  0.1965
 5110SOL    HW215620   0.104   2.481   1.783  0.3000  0.0793 -0.2923
 5111SOL     OW15621   4.766   1.980   1.947  0.1080 -0.0477  0.1336
 5111SOL    HW115622   4.765   1.898   2.003  1.5886  0.2664  0.6701
 5111SOL    HW215623   4.792   2.059   2.002  0.4129  0.4795 -0.7309
 5112SOL     OW15624   0.459   2.702   3.598 -0.6118  0.0746 -0.1062
 5112SOL    HW115625   0.362   2.690   3.577 -0.1756 -0.8887 -1.7841
 5112SOL    HW215626   0.497   2.774   3.540  0.1028 -0.9550 -0.9529
 5113SOL     OW15627   5.894   2.599   0.826 -0.1428  0.0646  0.0051
 5113SOL    HW115628   5.960   2.643   0.887  0.8872  0.5335 -1.3943
 5113SOL    HW215629   5.808   2.650   0.828  0.7287  1.6323 -0.8807
 5114SOL     OW15630   5.539   3.682   2.509  0.7508  0.0806  0.2816
 5114SOL    HW115631   5.601   3.699   2.432 -0.0404 -0.6015 -0.5198
 5114SOL    HW215632   5.477   3.607   2.487 -2.3113  2.5271 -0.1458
 5115SOL     OW15633   5.089   1.957   1.227 -0.1997 -0.3240 -0.1215
 5115SOL    HW115634   5.006   1.920   1.269 -0.3186  0.2838  0.1867
 5115SOL    HW215635   5.120   2.037   1.278  1.5047 -1.4726  0.7233
 5116SOL     OW15636   4.497   3.140   2.469  0.5902  0.1483 -0.3649
 5116SOL    HW115637   4.573   3.099   2.420  1.6561  2.5103 -0.8137
 5116SOL    HW215638   4.491   3.101   2.561  3.7128  1.2800  0.4458
 5117SOL     OW15639   4.218   2.960   1.304 -0.4879 -0.1909  0.2010
 5117SOL    HW115640   4.258   2.869   1.300 -1.1272 -0.5090  0.8554
 5117SOL    HW215641   4.281   3.026   1.264  0.2259 -0.8366  0.2499
 5118SOL     OW15642   4.215   3.051   2.178 -0.0085  0.3582  0.3387
 5118SOL    HW115643   4.303   3.008   2.200  0.1158 -1.4154 -2.9292
 5118SOL    HW215644   4.228   3.114   2.101 -1.3309  1.4322  0.9705
 5119SOL     OW15645   4.248   1.998   1.859 -0.4370  0.1336  0.1249
 5119SOL    HW115646   4.193   2.034   1.934 -1.7804 -0.2336 -0.6380
 5119SOL    HW215647   4.299   2.073   1.816  1.3454  0.1723  2.1152
 5120SOL     OW15648   4.000   3.039   1.151 -0.0399 -0.2911 -0.2777
 5120SOL    HW115649   4.079   2.996   1.194  0.2016 -1.0671 -1.4563
 5120SOL    HW215650   4.027   3.081   1.065 -1.0070 -1.0111 -0.9538
 5121SOL     OW15651   3.448   3.957   0.197 -0.0433  0.1122 -0.3288
 5121SOL    HW115652   3.420   3.881   0.255  1.0830 -0.7293 -0.8496
 5121SOL    HW215653   3.486   3.922   0.112  0.6948  1.2575 -0.4939
 5122SOL     OW15654   5.242   2.390   0.871  0.3755 -0.0189 -0.0976
 5122SOL    HW115655   5.179   2.317   0.899 -0.8353  0.6127 -1.1152
 5122SOL    HW215656   5.203   2.479   0.894  0.8698  0.3857 -0.7816
 5123SOL     OW15657   4.242   3.224   1.984  0.1556  0.1193  0.2773
 5123SOL    HW115658   4.226   3.314   2.025  0.7338  0.1312  0.4792
 5123SOL    HW215659   4.191   3.217   1.898 -0.6638  0.2804  0.7347
 5124SOL     OW15660   4.874   2.520   1.203  0.0131 -0.3959  0.6775
 5124SOL    HW115661   4.964   2.561   1.220  0.2510 -0.5771 -0.0917
 5124SOL    HW215662   4.815   2.586   1.158 -0.0482 -0.4695  0.6494
 5125SOL     OW15663   4.598   3.040   0.334  1.0085  0.3026 -0.4211
 5125SOL    HW115664   4.698   3.041   0.339  1.0109  2.0492 -0.2065
 5125SOL    HW215665   4.561   3.118   0.385 -0.5265 -0.8990  0.3914
 5126SOL     OW15666   3.993   3.751   1.766 -0.6442 -0.0995  0.5189
 5126SOL    HW115667   4.066   3.805   1.807 -1.0391  0.1274  0.9236
 5126SOL    HW215668   3.955   3.688   1.834  0.0972 -1.2060 -0.0535
 5127SOL     OW15669   4.064   1.492   2.545 -0.3003  0.4121 -0.0130
 5127SOL    HW115670   4.072   1.480   2.644 -1.0886  2.6459  0.3794
 5127SOL    HW215671   4.152   1.521   2.508  0.4633 -2.0563 -0.3021
 5128SOL     OW15672   5.048   2.540   2.802 -0.5732 -0.1166 -0.1048
 5128SOL    HW115673   5.086   2.552   2.894 -2.1627  1.0758  0.4524
 5128SOL    HW215674   5.121   2.514   2.738  0.7426  0.0348  1.2860
 5129SOL     OW15675   5.684   2.761   0.937 -0.9207  0.3413 -0.6583
 5129SOL    HW115676   5.589   2.748   0.965 -0.7764  2.4384  1.0066
 5129SOL    HW215677   5.690   2.842   0.878 -0.0043  0.9826  0.2968
 5130SOL     OW15678   4.681   1.827   2.211  0.3110  0.3500  0.4019
 5130SOL    HW115679   4.737   1.862   2.287  1.3449  0.7420 -0.5202
 5130SOL    HW215680   4.694   1.728   2.204  1.9398  0.5928 -0.5929
 5131SOL     OW15681   4.873   3.038   1.222  0.0108  0.0854 -0.5036
 5131SOL    HW115682   4.835   3.115   1.170 -0.2800  0.6543  0.5121
 5131SOL    HW215683   4.809   3.013   1.295  1.7185  1.3790  1.5699
 5132SOL     OW15684   5.523   3.575   1.725  0.3215  0.1943 -0.3295
 5132SOL    HW115685   5.595   3.519   1.684  0.8237  0.4976  0.1325
 5132SOL    HW215686   5.563   3.653   1.772 -0.1101 -0.8879  1.9653
 5133SOL     OW15687   5.417   2.452   0.118 -0.1571 -0.5753  0.3677
 5133SOL    HW115688   5.494   2.494   0.166  0.7200  1.9355 -2.8537
 5133SOL    HW215689   5.451   2.389   0.048 -0.9320  0.4977 -1.0314
 5134SOL     OW15690   3.747   2.802   2.268  0.1841 -0.1665  0.1236
 5134SOL    HW115691   3.842   2.831   2.258 -0.6237  2.6927 -0.0830
 5134SOL    HW215692   3.725   2.735   2.197  1.3806  1.0551 -1.4717
 5135SOL     OW15693   2.576   3.258   1.721  0.0453 -0.1272  0.4654
 5135SOL    HW115694   2.552   3.354   1.707  1.2414  0.0727 -0.3314
 5135SOL    HW215695   2.492   3.205   1.735 -0.5899  1.1703  1.9388
 5136SOL     OW15696   3.905   2.255   1.395 -0.5491  0.3977  0.4122
 5136SOL    HW115697   3.948   2.302   1.318  0.3375  0.5445  0.9889
 5136SOL    HW215698   3.972   2.239   1.467 -1.1307 -0.6495  0.7436
 5137SOL     OW15699   5.069   2.614   1.409  0.7606 -0.0489  0.0538
 5137SOL    HW115700   4.982   2.663   1.401  1.0517  0.2902 -1.2517
 5137SOL    HW215701   5.139   2.674   1.446  0.6732 -0.0348  0.1965
 5138SOL     OW15702   3.962   1.536   1.609 -0.3760 -0.4950  0.4994
 5138SOL    HW115703   3.994   1.624   1.643 -1.1295 -0.0808  0.1314
 5138SOL    HW215704   3.971   1.468   1.682  0.0429 -0.0838  0.8374
 5139SOL     OW15705   5.053   3.131   5.720  0.2753  0.2577  0.1421
 5139SOL    HW115706   5.150   3.139   5.744  0.6711 -0.4673 -1.1211
 5139SOL    HW215707   5.038   3.171   5.630 -0.3827 -0.5971 -0.1405
 5140SOL     OW15708   5.167   3.534   5.972  0.1247 -0.5096 -0.4850
 5140SOL    HW115709   5.091   3.470   5.963  1.2616 -1.8741 -0.6363
 5140SOL    HW215710   5.250   3.493   5.936  0.3848  2.0922 -3.2294
 5141SOL     OW15711   5.058   3.150   2.194  0.5490  0.2810  0.5460
 5141SOL    HW115712   4.992   3.103   2.135 -1.2046  1.3413  1.5703
 5141SOL    HW215713   5.016   3.232   2.231  2.7984  1.5220  0.5224
 5142SOL     OW15714   5.668   2.325   0.691 -0.2340  0.2622  0.0388
 5142SOL    HW115715   5.585   2.321   0.747 -1.7671  2.4492 -1.9078
 5142SOL    HW215716   5.740   2.372   0.742 -1.3602  1.5651  0.4813
 5143SOL     OW15717   4.125   3.892   2.836  0.3126 -0.6586  0.3673
 5143SOL    HW115718   4.093   3.979   2.798 -1.6521 -0.6777  1.7826
 5143SOL    HW215719   4.088   3.817   2.782  0.5333 -0.6319  0.1808
 5144SOL     OW15720   5.071   3.935   5.764  0.1346 -0.5430  0.7191
 5144SOL    HW115721   5.117   3.956   5.679 -0.4721 -0.8396  0.3084
 5144SOL    HW215722   5.048   3.837   5.766  0.5887 -0.6447  1.4425
 5145SOL     OW15723   4.952   3.486   5.281 -0.0009  0.5831  0.1385
 5145SOL    HW115724   4.948   3.423   5.204 -1.2111 -0.0446  0.6898
 5145SOL    HW215725   4.874   3.549   5.278  0.7875  1.5859  0.0059
 5146SOL     OW15726   4.402   5.006   0.943  0.0658  0.1145  0.1675
 5146SOL    HW115727   4.492   5.030   0.980  1.1173  0.6824 -2.5226
 5146SOL    HW215728   4.377   4.914   0.974 -0.0541  1.1633  3.6418
 5147SOL     OW15729   4.540   2.670   0.642 -0.3638 -0.1301 -0.4632
 5147SOL    HW115730   4.498   2.597   0.586 -2.1509 -0.2865  0.9762
 5147SOL    HW215731   4.468   2.721   0.688  1.0191  0.5562  1.0080
 5148SOL     OW15732   4.745   1.782   1.089  0.4602  0.2701 -0.0281
 5148SOL    HW115733   4.776   1.810   1.180  0.8118 -1.4848  0.4370
 5148SOL    HW215734   4.783   1.692   1.068 -1.4201 -0.3449 -0.9743
 5149SOL     OW15735   0.348   2.777   1.122 -0.0570  0.4414 -0.1408
 5149SOL    HW115736   0.368   2.743   1.215 -0.4485 -0.8412 -0.5097
 5149SOL    HW215737   0.415   2.738   1.058  0.9485  2.2516 -0.2551
 5150SOL     OW15738   5.294   3.098   1.294 -0.1478  0.7424 -0.0169
 5150SOL    HW115739   5.277   3.006   1.329  2.8235  0.9493  2.3782
 5150SOL    HW215740   5.233   3.163   1.338 -1.0428  0.1746 -0.3903
 5151SOL     OW15741   3.015   3.669   1.421 -0.2360  0.2551  0.6688
 5151SOL    HW115742   2.950   3.711   1.357  1.1352  1.5293  0.0494
 5151SOL    HW215743   3.034   3.734   1.495  1.9264  0.8191 -0.3052
 5152SOL     OW15744   3.258   3.483   0.330  0.0238  0.0946  0.1313
 5152SOL    HW115745   3.252   3.508   0.233 -1.4384  0.0892  0.1936
 5152SOL    HW215746   3.353   3.465   0.354  0.4592  0.4846 -1.2037
 5153SOL     OW15747   4.215   4.870   1.131 -0.0228  0.2755  0.3606
 5153SOL    HW115748   4.220   4.968   1.111  3.0174  0.2245  0.4027
 5153SOL    HW215749   4.264   4.851   1.216  1.3748 -1.5190 -0.7692
 5154SOL     OW15750   4.006   1.267   1.466 -0.0700 -0.5625  0.3068
 5154SOL    HW115751   4.003   1.335   1.539  0.9603  0.6419 -0.7371
 5154SOL    HW215752   4.093   1.274   1.417 -0.8472 -1.1449 -1.2152
 5155SOL     OW15753   4.442   2.455   0.972 -0.6770 -0.0135 -0.0768
 5155SOL    HW115754   4.532   2.474   0.932  0.1739 -0.9504  1.2959
 5155SOL    HW215755   4.450   2.381   1.038 -1.8259  1.9096  2.3978
 5156SOL     OW15756   4.333   3.207   1.240 -0.0591  0.1099 -0.1094
 5156SOL    HW115757   4.426   3.234   1.262 -0.6469  1.8889  0.3850
 5156SOL    HW215758   4.318   3.213   1.142  0.3838 -0.3436 -0.2066
 5157SOL     OW15759   3.584   2.622   0.118  0.1689 -0.0615 -0.3186
 5157SOL    HW115760   3.620   2.647   0.028 -0.7858 -0.2370 -0.7552
 5157SOL    HW215761   3.499   2.671   0.135 -0.1075 -0.6822  0.1220
 5158SOL     OW15762   4.670   1.425   0.400 -0.4896  0.1692  0.6262
 5158SOL    HW115763   4.708   1.487   0.330  0.3626 -0.3236  0.6434
 5158SOL    HW215764   4.582   1.390   0.368 -1.4875  2.1636  1.0548
 5159SOL     OW15765   4.247   3.479   2.073 -0.5164 -0.0693 -0.4729
 5159SOL    HW115766   4.165   3.479   2.130 -2.0361 -1.7150 -2.5211
 5159SOL    HW215767   4.278   3.574   2.061 -2.4690  0.6670 -0.1351
 5160SOL     OW15768   3.832   2.624   0.626 -0.3158 -0.0145  0.1556
 5160SOL    HW115769   3.760   2.594   0.564 -1.2234 -1.0633  1.6371
 5160SOL    HW215770   3.839   2.559   0.702 -0.5326  2.1603  2.1415
 5161SOL     OW15771   4.841   5.213   1.567  0.4800  0.0445  0.0366
 5161SOL    HW115772   4.803   5.147   1.502  0.8734  1.0522 -1.2469
 5161SOL    HW215773   4.862   5.299   1.520  0.3203  0.9816  1.5968
 5162SOL     OW15774   4.211   1.866   0.375  0.6458 -0.2458 -0.2011
 5162SOL    HW115775   4.188   1.862   0.472  2.7884 -1.1245  0.3269
 5162SOL    HW215776   4.196   1.777   0.333  2.3677 -0.6772  0.0256
 5163SOL     OW15777   3.372   2.787   5.959  0.5980  0.0969  0.3012
 5163SOL    HW115778   3.327   2.873   5.983 -0.6622 -0.7265  1.0455
 5163SOL    HW215779   3.470   2.801   5.952  0.3057  1.8525 -0.8096
 5164SOL     OW15780   5.419   3.278   1.779  0.2169 -0.4098 -0.1212
 5164SOL    HW115781   5.436   3.376   1.783  2.4112 -0.6992 -0.9282
 5164SOL    HW215782   5.328   3.258   1.814 -0.6294  1.9905 -0.8035
 5165SOL     OW15783   5.430   4.001   1.816 -0.1185 -0.7238 -0.6846
 5165SOL    HW115784   5.383   3.991   1.729 -0.3126  1.3227 -0.8607
 5165SOL    HW215785   5.500   3.930   1.825  0.1681 -0.7473 -2.6724
 5166SOL     OW15786   5.169   3.274   1.892 -0.3953 -0.3508  0.2534
 5166SOL    HW115787   5.090   3.302   1.946 -1.0151 -1.0010 -0.2799
 5166SOL    HW215788   5.139   3.252   1.799 -0.0005 -2.7597  0.6156
 5167SOL     OW15789   4.700   4.169   1.583 -0.6046 -0.0590  0.0186
 5167SOL    HW115790   4.751   4.097   1.629 -0.2272  0.9806  1.2715
 5167SOL    HW215791   4.653   4.226   1.650  0.9818  2.2861 -0.7381
 5168SOL     OW15792   4.517   2.827   1.884 -0.0265  0.1749  0.1751
 5168SOL    HW115793   4.419   2.811   1.872 -0.0746  1.0388 -0.7312
 5168SOL    HW215794   4.534   2.859   1.978 -0.5379 -0.4540  0.4905
 5169SOL     OW15795   2.575   2.649   5.392  0.0879 -0.6119 -0.8269
 5169SOL    HW115796   2.672   2.670   5.403 -0.1014  0.9613 -1.8649
 5169SOL    HW215797   2.541   2.693   5.309 -1.6464 -0.6951 -0.1923
 5170SOL     OW15798   4.480   2.389   0.409  0.0686  0.1216 -0.4807
 5170SOL    HW115799   4.532   2.362   0.490  0.6255  2.7406  0.1206
 5170SOL    HW215800   4.383   2.396   0.432  0.4209  2.5990  0.5597
 5171SOL     OW15801   0.206   2.312   0.624  0.9660  0.2272  0.0269
 5171SOL    HW115802   0.200   2.223   0.580  0.1211  0.4748 -0.3745
 5171SOL    HW215803   0.202   2.300   0.724  0.3882 -0.1434 -0.0405
 5172SOL     OW15804   0.177   3.847   1.628 -0.5905  0.1341 -0.2817
 5172SOL    HW115805   0.207   3.943   1.628 -0.5845  0.2124 -2.9629
 5172SOL    HW215806   0.091   3.840   1.577 -1.8787 -1.0110  1.8901
 5173SOL     OW15807   0.878   4.613   5.896 -0.0812  0.2347  0.0952
 5173SOL    HW115808   0.928   4.531   5.866  0.5117  1.3889 -2.3174
 5173SOL    HW215809   0.790   4.616   5.850  0.8247  2.0391 -1.6784
 5174SOL     OW15810   3.433   3.322   0.464 -0.0341 -0.8659  0.1124
 5174SOL    HW115811   3.485   3.240   0.440  0.3845 -0.9177  1.1522
 5174SOL    HW215812   3.466   3.358   0.551 -1.7793 -0.9419  0.8462
 5175SOL     OW15813   3.362   3.822   0.734  0.1478 -0.3417 -0.0625
 5175SOL    HW115814   3.307   3.862   0.808  0.2646 -2.9392  1.5777
 5175SOL    HW215815   3.344   3.871   0.649 -0.8854  2.0550  1.4065
 5176SOL     OW15816   4.850   3.069   2.017 -0.2288  0.2831 -0.1996
 5176SOL    HW115817   4.821   3.011   1.941  2.1935 -1.2838 -0.0524
 5176SOL    HW215818   4.855   3.164   1.987 -2.9923  0.2934 -0.8452
 5177SOL     OW15819   0.324   1.478   0.534 -0.0567  0.2126 -0.7639
 5177SOL    HW115820   0.243   1.530   0.562 -0.1730  0.3019 -1.2592
 5177SOL    HW215821   0.302   1.423   0.454  0.1237 -0.4539 -0.3613
 5178SOL     OW15822   4.827   2.554   0.374 -0.3289 -0.2556 -0.2835
 5178SOL    HW115823   4.756   2.511   0.319 -2.5845  2.3753  0.3152
 5178SOL    HW215824   4.917   2.519   0.347 -1.6401 -2.0282 -2.7232
 5179SOL     OW15825   0.100   2.756   0.083  0.1446 -0.2532 -0.2029
 5179SOL    HW115826   0.133   2.690   0.150 -0.3121  0.2747  0.5534
 5179SOL    HW215827   0.020   2.804   0.119  0.6833  0.9806 -0.5878
 5180SOL     OW15828   4.072   3.886   0.467 -0.5886  0.4185  0.1257
 5180SOL    HW115829   4.024   3.801   0.444  0.1422  0.0612 -0.0807
 5180SOL    HW215830   4.004   3.957   0.487 -1.2370  0.2728 -1.4061
 5181SOL     OW15831   3.002   3.261   5.058 -0.3171 -0.4488 -0.3535
 5181SOL    HW115832   3.029   3.337   5.117  0.2755  0.6175 -1.9264
 5181SOL    HW215833   3.016   3.175   5.106  1.8315  0.2889  0.4701
 5182SOL     OW15834   4.222   2.417   0.459  0.5026 -1.1269  0.4776
 5182SOL    HW115835   4.126   2.425   0.434  0.6846  1.3088  0.2831
 5182SOL    HW215836   4.231   2.411   0.558  0.1905  1.7918  0.7603
 5183SOL     OW15837   4.844   3.751   1.122  0.4310  0.4404 -0.3212
 5183SOL    HW115838   4.870   3.743   1.218 -0.0633 -3.0893 -0.3482
 5183SOL    HW215839   4.747   3.774   1.115  0.2141 -0.3291  0.0728
 5184SOL     OW15840   4.210   2.390   0.794  0.1137 -0.2512  0.1431
 5184SOL    HW115841   4.148   2.458   0.832 -0.1665 -0.1295 -0.5148
 5184SOL    HW215842   4.297   2.394   0.843  0.6647  1.6667 -0.8789
 5185SOL     OW15843   3.782   3.341   0.979  0.0354  0.0619  0.3268
 5185SOL    HW115844   3.851   3.357   0.908 -0.1692 -0.5650 -0.0207
 5185SOL    HW215845   3.779   3.420   1.041  0.8564  0.2183  0.1747
 5186SOL     OW15846   4.478   2.614   1.414 -0.2785  0.3436 -0.4370
 5186SOL    HW115847   4.563   2.561   1.425 -0.2611  0.3799 -0.3937
 5186SOL    HW215848   4.419   2.569   1.348 -0.1438  0.4172 -0.6093
 5187SOL     OW15849   4.899   3.506   1.034 -0.2820 -0.5663 -0.4644
 5187SOL    HW115850   4.915   3.510   0.935 -0.4283  0.3074 -0.4577
 5187SOL    HW215851   4.875   3.597   1.068  0.8634 -0.6138  0.5624
 5188SOL     OW15852   5.576   2.164   1.342 -0.3605 -0.1392  0.0752
 5188SOL    HW115853   5.550   2.074   1.308 -1.9322 -0.2676  1.4747
 5188SOL    HW215854   5.608   2.221   1.266 -1.6027 -1.1094 -1.2261
 5189SOL     OW15855   4.813   3.817   5.947 -0.5065  0.0050 -0.2314
 5189SOL    HW115856   4.884   3.794   6.014 -0.9026  0.3279  0.3062
 5189SOL    HW215857   4.802   3.741   5.883  0.8463  0.2424 -0.7849
 5190SOL     OW15858   4.384   2.467   2.409 -0.0919 -0.5176  0.0838
 5190SOL    HW115859   4.474   2.508   2.414 -0.0293 -0.5043 -0.9712
 5190SOL    HW215860   4.388   2.383   2.354 -0.9255  0.1082 -0.9799
 5191SOL     OW15861   5.477   2.270   1.685 -0.1648 -0.1328 -0.7409
 5191SOL    HW115862   5.427   2.280   1.599  2.9702  1.0950 -2.5920
 5191SOL    HW215863   5.473   2.356   1.736  0.7988  0.3202 -1.3905
 5192SOL     OW15864   3.532   2.019   1.072  0.0115  0.1499  0.3178
 5192SOL    HW115865   3.597   1.952   1.110  0.0198  0.1227  0.2571
 5192SOL    HW215866   3.554   2.110   1.107 -0.2536  0.0604  0.7224
 5193SOL     OW15867   5.828   1.933   0.324 -0.0533  0.0719 -0.0881
 5193SOL    HW115868   5.791   2.007   0.380 -1.1739  0.1807 -0.9433
 5193SOL    HW215869   5.827   1.847   0.375  0.0811  0.4038  0.4708
 5194SOL     OW15870   4.747   1.143   5.177 -0.4431  0.0121 -0.2113
 5194SOL    HW115871   4.695   1.059   5.163 -1.5620  0.9650 -2.2314
 5194SOL    HW215872   4.843   1.121   5.191 -0.9451 -1.6523  0.8437
 5195SOL     OW15873   5.220   2.822   0.569 -0.1061  0.2381 -0.3727
 5195SOL    HW115874   5.217   2.870   0.481 -1.2448 -1.7867 -1.5137
 5195SOL    HW215875   5.239   2.725   0.553  2.9924  0.3365  1.9070
 5196SOL     OW15876   4.451   2.878   2.622  0.2663  0.4660  0.5538
 5196SOL    HW115877   4.385   2.908   2.690 -0.6818 -1.2460  0.4523
 5196SOL    HW215878   4.530   2.838   2.668 -0.8977 -1.7891  0.7469
 5197SOL     OW15879   5.232   3.580   1.775 -0.6096 -0.5336  0.3296
 5197SOL    HW115880   5.328   3.588   1.803 -0.3060  0.1878 -0.8745
 5197SOL    HW215881   5.215   3.638   1.696 -1.3978 -2.6595 -1.1419
 5198SOL     OW15882   5.862   2.198   0.197  0.6243  0.4081 -0.3184
 5198SOL    HW115883   5.923   2.126   0.231  0.4528  0.9275  1.1616
 5198SOL    HW215884   5.771   2.161   0.180  0.5689  0.2552  0.3246
 5199SOL     OW15885   5.463   2.776   1.279  0.1258 -0.5578 -0.1163
 5199SOL    HW115886   5.502   2.851   1.226 -1.5491  1.7264  1.6481
 5199SOL    HW215887   5.483   2.689   1.234  1.3569  0.9804 -2.7895
 5200SOL     OW15888   3.020   2.743   1.925  0.3294  0.1175  0.6044
 5200SOL    HW115889   2.958   2.809   1.884 -0.2690 -0.8677 -0.1129
 5200SOL    HW215890   3.114   2.772   1.911  0.1675 -0.3766 -1.8348
 5201SOL     OW15891   4.348   2.467   1.221  0.2690 -0.8373  0.1243
 5201SOL    HW115892   4.354   2.384   1.276 -0.4496 -0.4297  0.8463
 5201SOL    HW215893   4.348   2.444   1.124  1.0131 -1.6059  0.2975
 5202SOL     OW15894   3.817   2.118   1.711 -0.0734 -0.4422 -0.1531
 5202SOL    HW115895   3.788   2.152   1.801  0.7962  1.1899 -0.4667
 5202SOL    HW215896   3.902   2.163   1.684  0.7167 -2.3105 -0.9673
 5203SOL     OW15897   3.884   2.686   5.811 -0.2903 -0.9478 -0.5535
 5203SOL    HW115898   3.944   2.672   5.732  0.5794 -2.2222  0.2846
 5203SOL    HW215899   3.939   2.683   5.895 -1.3892 -1.0332  0.1835
 5204SOL     OW15900   4.572   2.239   1.457 -0.5133 -0.5442  0.2604
 5204SOL    HW115901   4.633   2.317   1.442 -0.0028 -1.1700 -1.1139
 5204SOL    HW215902   4.569   2.217   1.554  1.2897 -0.3448  0.4018
 5205SOL     OW15903   4.962   2.605   0.084 -0.3169 -0.0304  0.6298
 5205SOL    HW115904   5.005   2.604  -0.006  0.3652  1.4978  0.9065
 5205SOL    HW215905   5.032   2.613   0.155 -0.9787  2.0029  1.1174
 5206SOL     OW15906   3.887   4.532   5.602 -0.7940  0.0754 -0.2025
 5206SOL    HW115907   3.903   4.532   5.701 -1.7587 -0.8160 -0.0292
 5206SOL    HW215908   3.903   4.623   5.565  2.4740 -0.1924  0.2738
 5207SOL     OW15909   4.662   2.978   1.733  0.0144 -0.2004 -0.4327
 5207SOL    HW115910   4.607   3.056   1.703  0.3653  0.4923  0.6466
 5207SOL    HW215911   4.613   2.926   1.803  0.1832 -0.3687 -0.4363
 5208SOL     OW15912   4.241   2.837   1.867 -0.0696 -0.1850  0.4476
 5208SOL    HW115913   4.159   2.852   1.812  0.2242 -3.5112 -1.1541
 5208SOL    HW215914   4.223   2.768   1.936  0.7720  0.8261  1.7307
 5209SOL     OW15915   0.079   2.479   1.105 -0.4336  0.4994  0.3224
 5209SOL    HW115916   0.118   2.558   1.057 -0.1270 -0.2486 -0.7103
 5209SOL    HW215917   0.082   2.495   1.204  1.8655  0.7846  0.2619
 5210SOL     OW15918   5.099   3.554   0.521  0.0690  0.0183  0.5978
 5210SOL    HW115919   5.196   3.564   0.543  0.4411 -1.2759 -0.3244
 5210SOL    HW215920   5.047   3.539   0.605  0.8625 -0.6768  0.9844
 5211SOL     OW15921   3.378   2.296   1.055 -0.0497  0.2676  0.1455
 5211SOL    HW115922   3.357   2.213   1.106  1.6206 -2.6161 -3.3758
 5211SOL    HW215923   3.471   2.325   1.076  0.6607 -0.9553 -1.1270
 5212SOL     OW15924   4.054   3.162   0.908 -0.2951  0.1017  0.5201
 5212SOL    HW115925   4.028   3.252   0.874  2.0281  0.5743 -0.1796
 5212SOL    HW215926   4.046   3.095   0.835  0.5846  0.2870  0.2444
 5213SOL     OW15927   5.063   1.258   1.185 -0.1551 -0.0716  0.3269
 5213SOL    HW115928   5.124   1.269   1.107  0.0876 -2.0987  0.1840
 5213SOL    HW215929   5.106   1.296   1.267  0.0068  1.1670 -0.3064
 5214SOL     OW15930   5.820   3.296   1.418  0.4412  0.1045 -0.5048
 5214SOL    HW115931   5.812   3.377   1.360  0.6265  0.2069 -0.3882
 5214SOL    HW215932   5.744   3.234   1.400  0.2384  0.3560 -0.5129
 5215SOL     OW15933   0.250   4.084   0.317  0.0381  0.0193  0.3250
 5215SOL    HW115934   0.306   4.040   0.388 -0.7727 -1.6241 -0.0122
 5215SOL    HW215935   0.160   4.105   0.353  0.0123  0.2697  0.1185
 5216SOL     OW15936   3.419   2.878   1.539  0.2068 -0.3318 -0.0321
 5216SOL    HW115937   3.502   2.869   1.595  0.0248 -1.1123  0.1223
 5216SOL    HW215938   3.340   2.893   1.598  0.1985  0.1795 -0.1665
 5217SOL     OW15939   4.658   4.225   1.115 -0.4748 -0.4895 -0.1119
 5217SOL    HW115940   4.601   4.162   1.062  0.1566  0.3913 -1.9290
 5217SOL    HW215941   4.746   4.182   1.135 -0.7716 -0.8809  0.3756
 5218SOL     OW15942   5.391   1.774   0.534 -0.0145 -0.1037 -0.3073
 5218SOL    HW115943   5.433   1.783   0.624  0.0346  0.1831 -0.3569
 5218SOL    HW215944   5.313   1.712   0.539  0.3726 -0.5880 -0.2001
 5219SOL     OW15945   5.608   3.392   1.993 -0.1774  0.3268 -0.9098
 5219SOL    HW115946   5.550   3.349   2.061  1.8529  1.0684  1.4382
 5219SOL    HW215947   5.638   3.324   1.926 -0.3373 -0.9807  0.3071
 5220SOL     OW15948   4.231   2.532   4.511  0.4109  0.5225 -0.3177
 5220SOL    HW115949   4.158   2.472   4.478 -0.5357  0.9531  0.9294
 5220SOL    HW215950   4.202   2.627   4.504  1.3334  0.7773 -0.9074
 5221SOL     OW15951   5.362   3.426   5.833 -0.3317 -0.4615 -0.1646
 5221SOL    HW115952   5.356   3.326   5.832 -2.0803 -0.4859  2.3167
 5221SOL    HW215953   5.453   3.453   5.864 -0.2669 -1.3381  0.4644
 5222SOL     OW15954   5.008   3.265   5.485  0.5706 -0.0846  0.2171
 5222SOL    HW115955   5.092   3.252   5.432  0.0387  0.8973 -0.9069
 5222SOL    HW215956   4.972   3.356   5.468 -1.3278 -0.8735 -0.1733
 5223SOL     OW15957   5.734   2.523   1.528  0.6069  0.1588  0.0478
 5223SOL    HW115958   5.753   2.605   1.474  1.2433 -0.5131 -0.7667
 5223SOL    HW215959   5.753   2.442   1.474 -2.4185 -0.6031 -0.0468
 5224SOL     OW15960   4.067   1.923   1.263  0.0205 -0.0488  0.1623
 5224SOL    HW115961   4.049   1.828   1.239  0.6684 -0.4563  1.2159
 5224SOL    HW215962   3.991   1.958   1.318 -0.0049 -0.1091  0.1654
 5225SOL     OW15963   3.439   2.735   0.383 -0.1702 -0.3769 -0.3460
 5225SOL    HW115964   3.393   2.652   0.415 -1.9013 -0.6245 -3.0561
 5225SOL    HW215965   3.378   2.813   0.394  0.0930 -0.0908 -0.8634
 5226SOL     OW15966   4.582   3.309   0.428  0.0957 -0.6178  0.2690
 5226SOL    HW115967   4.643   3.366   0.482 -0.2541  1.3201 -1.2552
 5226SOL    HW215968   4.491   3.309   0.469 -0.4947  1.8458 -0.7983
 5227SOL     OW15969   5.059   2.110   2.909  0.1872 -0.2666  0.5353
 5227SOL    HW115970   5.111   2.167   2.973  0.5478  0.2500 -0.2027
 5227SOL    HW215971   4.976   2.076   2.954  0.4330  0.0878  1.2697
 5228SOL     OW15972   3.158   1.806   4.116  0.0667 -0.3827 -0.3340
 5228SOL    HW115973   3.136   1.903   4.130 -2.0931 -0.9789  0.7961
 5228SOL    HW215974   3.199   1.794   4.026  1.1897  1.6795 -0.1608
 5229SOL     OW15975   3.017   1.231   2.585 -0.2437  0.4371  0.5857
 5229SOL    HW115976   2.925   1.194   2.603 -0.0139 -0.0494  0.7932
 5229SOL    HW215977   3.085   1.173   2.630  0.2398  0.2060 -0.4189
 5230SOL     OW15978   3.946   4.096   2.735 -0.0440 -0.4024  0.0297
 5230SOL    HW115979   3.916   4.017   2.682  1.5006 -1.3056  0.4512
 5230SOL    HW215980   3.976   4.168   2.672 -0.6411 -0.4828 -0.3502
 5231SOL     OW15981   4.939   3.388   2.266  0.0415  0.2142 -0.0054
 5231SOL    HW115982   4.951   3.367   2.363 -2.5636 -0.3502  0.2782
 5231SOL    HW215983   4.884   3.472   2.256 -0.1881 -0.0320 -0.9562
 5232SOL     OW15984   4.278   2.595   2.045 -0.0585  0.4055 -0.0573
 5232SOL    HW115985   4.369   2.562   2.022 -1.0269 -0.4774 -3.1540
 5232SOL    HW215986   4.216   2.516   2.057 -1.4272  0.9079 -3.0402
 5233SOL     OW15987   5.886   2.269   1.076  0.2093 -0.6896  0.2191
 5233SOL    HW115988   5.893   2.234   0.982 -0.9368  0.4933 -0.3527
 5233SOL    HW215989   5.950   2.345   1.088  0.0194 -0.5288  0.2291
 5234SOL     OW15990   5.484   3.063   2.749  0.1438  0.2243 -0.5496
 5234SOL    HW115991   5.399   3.014   2.770 -1.5342  2.3808 -1.9522
 5234SOL    HW215992   5.520   3.103   2.833 -0.3089 -0.5427  0.0305
 5235SOL     OW15993   5.329   1.669   3.804  0.1070  0.4771 -0.0420
 5235SOL    HW115994   5.242   1.656   3.852  0.0932  1.4662  0.2149
 5235SOL    HW215995   5.363   1.580   3.773 -0.5381 -0.0250  0.6507
 5236SOL     OW15996   4.895   3.762   1.398 -0.0231  0.2242  0.5508
 5236SOL    HW115997   4.955   3.834   1.434  0.5138 -0.1480  0.4028
 5236SOL    HW215998   4.865   3.703   1.473 -0.7036  0.7711  0.7189
 5237SOL     OW15999   4.295   4.480   3.625 -0.4050  0.1599 -0.2035
 5237SOL    HW116000   4.212   4.440   3.585 -0.9671  0.1297  0.9433
 5237SOL    HW216001   4.305   4.574   3.593  0.0188 -0.3363 -1.6139
 5238SOL     OW16002   4.555   2.600   3.374  0.2254  0.0372 -0.0901
 5238SOL    HW116003   4.466   2.626   3.411  0.4793  0.1930  0.4208
 5238SOL    HW216004   4.562   2.501   3.368 -0.9069  0.0377 -2.4291
 5239SOL     OW16005   4.219   3.884   3.227  0.0458 -0.2987 -0.1140
 5239SOL    HW116006   4.143   3.948   3.239 -0.0472 -0.7226  1.9918
 5239SOL    HW216007   4.302   3.935   3.203 -0.8508  0.1635 -2.4096
 5240SOL     OW16008   4.057   3.540   2.903 -0.3629  0.1701 -0.2788
 5240SOL    HW116009   4.105   3.590   2.830 -1.2137  1.5712  0.0692
 5240SOL    HW216010   3.959   3.554   2.893 -0.6124 -1.2189  0.0384
 5241SOL     OW16011   5.110   2.029   1.876  0.1055 -0.3008  0.3311
 5241SOL    HW116012   5.205   2.048   1.852 -0.1835 -0.0867 -0.7320
 5241SOL    HW216013   5.070   1.969   1.806 -0.1248 -1.6312  1.5500
 5242SOL     OW16014   5.226   3.469   3.148 -0.0824 -0.4096 -0.2992
 5242SOL    HW116015   5.156   3.409   3.185 -0.4683 -0.3064 -0.8443
 5242SOL    HW216016   5.183   3.551   3.110  0.0268 -1.5099 -2.9992
 5243SOL     OW16017   4.528   4.599   2.543  0.3143  0.5770 -0.2210
 5243SOL    HW116018   4.625   4.592   2.567  0.4482  1.3223 -0.5347
 5243SOL    HW216019   4.519   4.631   2.449 -0.2378  1.0892  0.0034
 5244SOL     OW16020   4.723   3.543   1.960 -0.3806 -0.0709  0.1821
 5244SOL    HW116021   4.627   3.517   1.958 -0.5569  0.4563 -2.5880
 5244SOL    HW216022   4.734   3.633   1.919  1.4346 -0.7755 -1.0050
 5245SOL     OW16023   0.014   2.554   2.319 -0.2715  0.5324  0.2681
 5245SOL    HW116024  -0.051   2.603   2.261  1.2269  1.6973 -0.4945
 5245SOL    HW216025   0.097   2.535   2.268 -0.2705 -1.6459  0.9836
 5246SOL     OW16026   3.898   2.532   2.206  0.0570  0.1043 -0.5740
 5246SOL    HW116027   3.875   2.552   2.301  0.1681 -0.4395 -0.4300
 5246SOL    HW216028   3.976   2.469   2.203  1.3740  1.6590 -1.0420
 5247SOL     OW16029   5.898   3.745   1.540  0.3236 -0.4517  0.2147
 5247SOL    HW116030   5.907   3.748   1.440  0.6829 -1.2759  0.2140
 5247SOL    HW216031   5.824   3.683   1.565  1.1990 -1.4154  0.4847
 5248SOL     OW16032   4.999   2.819   2.772 -0.3863  0.0174 -0.1750
 5248SOL    HW116033   4.992   2.720   2.778 -0.0703 -0.2822 -3.4382
 5248SOL    HW216034   4.907   2.858   2.764 -0.4557 -0.0730  0.1451
 5249SOL     OW16035   4.775   4.428   0.916  0.2229  0.0705 -0.3167
 5249SOL    HW116036   4.695   4.371   0.898 -0.1160  0.3064  0.4022
 5249SOL    HW216037   4.845   4.410   0.846  0.6700 -2.2330  0.6328
 5250SOL     OW16038   3.797   2.315   2.891  0.2071  0.2825  0.2056
 5250SOL    HW116039   3.842   2.265   2.817 -0.4100  0.4399 -0.2807
 5250SOL    HW216040   3.700   2.327   2.870  0.2598  1.3446  0.4959
 5251SOL     OW16041   4.874   3.170   2.492 -0.0613 -0.4490  0.1461
 5251SOL    HW116042   4.819   3.156   2.410 -0.2381  0.4731  0.1053
 5251SOL    HW216043   4.820   3.219   2.561  0.0553 -1.2812  0.8514
 5252SOL     OW16044   5.756   1.983   3.876  0.0516 -0.2749  0.5338
 5252SOL    HW116045   5.693   1.909   3.900 -2.0905  0.8549 -1.2108
 5252SOL    HW216046   5.747   2.004   3.778  1.6287  1.3441  0.6863
 5253SOL     OW16047   5.160   3.193   2.770 -0.0990  0.1813  0.2701
 5253SOL    HW116048   5.173   3.094   2.777 -0.3043  0.0920 -0.5386
 5253SOL    HW216049   5.070   3.213   2.733 -1.3306  0.7489  3.2301
 5254SOL     OW16050   4.096   3.368   3.110  0.0118 -0.2787 -0.0003
 5254SOL    HW116051   4.128   3.401   3.198 -0.4614 -1.4653  0.6465
 5254SOL    HW216052   4.079   3.445   3.049 -2.2863  0.7833  1.8385
 5255SOL     OW16053   4.893   3.980   1.774  0.2307  0.2937 -0.1334
 5255SOL    HW116054   4.989   3.968   1.796  0.2925 -0.1365 -0.6523
 5255SOL    HW216055   4.840   3.904   1.813  0.1395  0.3627 -0.1222
 5256SOL     OW16056   4.556   4.191   3.621  0.4778 -0.1261 -0.0148
 5256SOL    HW116057   4.464   4.169   3.654  0.4050  0.5099  0.2152
 5256SOL    HW216058   4.609   4.107   3.613  0.3117 -0.3522  1.1551
 5257SOL     OW16059   4.751   1.963   3.494  0.2955  0.1549  0.2232
 5257SOL    HW116060   4.715   2.040   3.545 -0.0646  0.1497 -0.0152
 5257SOL    HW216061   4.793   1.996   3.409  0.6292  0.1360  0.3766
 5258SOL     OW16062   5.675   3.264   2.325 -0.7183  0.2469  0.6553
 5258SOL    HW116063   5.710   3.188   2.270 -0.2690 -0.2073  1.5421
 5258SOL    HW216064   5.594   3.234   2.375  0.2282 -0.0916  2.0457
 5259SOL     OW16065   5.900   3.224   2.814  0.0855  0.0457  0.0421
 5259SOL    HW116066   5.827   3.233   2.745  0.5360  1.1989 -0.3110
 5259SOL    HW216067   5.989   3.220   2.768  0.2678 -1.2843  0.4738
 5260SOL     OW16068   4.512   2.469   1.962  0.4385 -0.2369  0.5902
 5260SOL    HW116069   4.582   2.467   2.034  0.7623  0.7281  0.3140
 5260SOL    HW216070   4.552   2.502   1.877 -0.2366 -0.1661  0.2940
 5261SOL     OW16071   5.918   1.120   3.897  0.0051 -0.1963 -0.1343
 5261SOL    HW116072   5.840   1.182   3.883 -0.3651 -0.1723  1.6781
 5261SOL    HW216073   6.002   1.174   3.903 -0.1175 -0.0113 -0.0518
 5262SOL     OW16074   5.081   3.700   3.037 -0.4463 -0.1744  0.2428
 5262SOL    HW116075   5.145   3.714   2.961 -0.5895  0.3753  0.2239
 5262SOL    HW216076   5.123   3.730   3.122 -1.6145  2.7031 -0.1106
 5263SOL     OW16077   4.666   2.657   4.096 -1.0377 -0.4700 -0.6842
 5263SOL    HW116078   4.713   2.634   4.011  1.3451  2.9572 -0.4977
 5263SOL    HW216079   4.615   2.742   4.084  1.4926  1.5920  1.8033
 5264SOL     OW16080   5.992   2.752   3.348  0.2204 -0.1916 -0.3159
 5264SOL    HW116081   5.973   2.784   3.255 -2.2722  1.1797  0.5580
 5264SOL    HW216082   6.009   2.653   3.346  0.1933 -0.2052 -2.2119
 5265SOL     OW16083   4.462   2.446   3.896  0.5642  0.2875  0.0338
 5265SOL    HW116084   4.389   2.438   3.965  1.5501  0.7799  1.1746
 5265SOL    HW216085   4.550   2.429   3.940  1.3808  2.3165 -0.7086
 5266SOL     OW16086   5.045   2.159   3.579  0.5719  0.0953 -0.4619
 5266SOL    HW116087   4.969   2.134   3.640  0.2697  1.0408 -0.4267
 5266SOL    HW216088   5.091   2.077   3.547  0.7490 -0.4429  1.0588
 5267SOL     OW16089   4.544   3.235   1.720 -0.8872 -0.4326  0.4643
 5267SOL    HW116090   4.549   3.293   1.801 -0.8406  0.8470 -0.4336
 5267SOL    HW216091   4.477   3.273   1.656 -0.6321 -1.2101 -0.2808
 5268SOL     OW16092   3.824   2.724   2.626 -0.0461  0.0977  0.3385
 5268SOL    HW116093   3.763   2.734   2.705  0.0804 -1.5146  0.6773
 5268SOL    HW216094   3.801   2.639   2.578  0.4003  0.6682 -0.9062
 5269SOL     OW16095   3.501   3.760   4.157 -0.1072  0.1519  1.0364
 5269SOL    HW116096   3.530   3.836   4.215  1.8702  0.0730  0.2202
 5269SOL    HW216097   3.526   3.674   4.200  0.2758  0.0603  0.6418
 5270SOL     OW16098   5.070   1.865   2.314  0.6671 -0.2346  0.6265
 5270SOL    HW116099   5.069   1.918   2.399  1.6377 -0.1269  0.5878
 5270SOL    HW216100   5.039   1.923   2.238  1.1641  0.1049  0.6801
 5271SOL     OW16101   4.410   3.331   3.829  0.0112 -0.6534  0.0107
 5271SOL    HW116102   4.328   3.343   3.885  0.5627  2.4437  0.2995
 5271SOL    HW216103   4.389   3.272   3.751 -2.2918 -0.4503  0.4175
 5272SOL     OW16104   5.061   2.814   2.493 -0.3083  0.0196 -0.5993
 5272SOL    HW116105   5.124   2.850   2.562 -0.4271 -0.9283  0.0230
 5272SOL    HW216106   4.987   2.764   2.538 -1.1005  0.4880 -1.3643
 5273SOL     OW16107   0.445   2.395   2.525 -0.1963 -0.5868  0.5691
 5273SOL    HW116108   0.347   2.380   2.536 -0.1136 -1.3003  0.3708
 5273SOL    HW216109   0.486   2.416   2.614 -0.6535  0.5334  0.5313
 5274SOL     OW16110   4.946   3.912   2.477 -0.1893 -0.2747  0.3105
 5274SOL    HW116111   4.893   3.945   2.399 -1.4525 -2.6339  0.0991
 5274SOL    HW216112   5.041   3.940   2.466 -0.9991  2.7419 -0.0800
 5275SOL     OW16113   3.690   3.976   2.883  0.1551  0.4764  0.0793
 5275SOL    HW116114   3.744   4.056   2.858  0.2870  0.8911  1.5571
 5275SOL    HW216115   3.700   3.905   2.813  2.7244  0.4953  0.3421
 5276SOL     OW16116   5.311   3.392   2.876 -0.9464  0.1708 -0.1595
 5276SOL    HW116117   5.272   3.304   2.848  1.6656 -1.4353  0.8840
 5276SOL    HW216118   5.286   3.410   2.972 -0.4355 -0.0695  0.0194
 5277SOL     OW16119   4.870   3.436   3.927 -0.3807 -0.1313 -0.1620
 5277SOL    HW116120   4.785   3.384   3.931  0.3308 -1.3023  0.9175
 5277SOL    HW216121   4.896   3.464   4.020  1.3466 -1.4621 -0.1919
 5278SOL     OW16122   3.966   2.361   1.797 -0.0867  0.1979  0.3906
 5278SOL    HW116123   4.055   2.322   1.773 -0.1909 -0.1537  0.5709
 5278SOL    HW216124   3.974   2.460   1.804  0.0515  0.2582 -0.6012
 5279SOL     OW16125   4.895   3.503   3.002 -0.3895  0.1275  0.5964
 5279SOL    HW116126   4.803   3.537   3.017 -0.3000  0.0759  1.3200
 5279SOL    HW216127   4.961   3.576   3.017 -0.3705  0.6620 -1.6865
 5280SOL     OW16128   4.338   3.707   3.837 -0.2660  0.1910  0.1061
 5280SOL    HW116129   4.386   3.791   3.861  0.1467 -0.5531  2.1247
 5280SOL    HW216130   4.395   3.652   3.776 -0.3484  1.1298 -0.8566
 5281SOL     OW16131   3.176   3.931   0.921  0.1421  0.6015  0.5540
 5281SOL    HW116132   3.221   3.870   0.987 -0.6670 -0.8597 -0.1815
 5281SOL    HW216133   3.208   4.025   0.934 -0.3332  0.4603  3.3446
 5282SOL     OW16134   4.321   3.048   2.850 -0.0561 -0.1654 -0.3181
 5282SOL    HW116135   4.246   3.064   2.914  1.3723  0.4808  1.2791
 5282SOL    HW216136   4.402   3.020   2.901  1.3149  0.9983 -1.7696
 5283SOL     OW16137   1.007   3.642   1.713  0.2176  0.1563 -0.1502
 5283SOL    HW116138   0.969   3.571   1.653  0.1286  0.1051 -0.0329
 5283SOL    HW216139   1.042   3.717   1.657 -1.7140  1.0593 -0.2252
 5284SOL     OW16140   5.404   2.335   1.439  0.2650 -0.5234  0.0791
 5284SOL    HW116141   5.335   2.341   1.366 -1.0227 -1.9507  1.1203
 5284SOL    HW216142   5.478   2.275   1.409  0.3145 -0.1866 -0.4852
 5285SOL     OW16143   3.846   3.909   2.567 -0.1256 -0.4074  0.1098
 5285SOL    HW116144   3.831   3.837   2.635  1.0790 -0.8257 -0.0403
 5285SOL    HW216145   3.865   3.867   2.479  1.3940  0.0681  0.1912
 5286SOL     OW16146   5.146   4.356   1.662 -0.6214 -0.0919 -0.3192
 5286SOL    HW116147   5.236   4.329   1.626  0.0335  4.3871 -2.7433
 5286SOL    HW216148   5.074   4.310   1.609  0.1343 -2.5846  0.6715
 5287SOL     OW16149   4.807   2.766   1.635 -0.2019 -0.0419  0.7022
 5287SOL    HW116150   4.739   2.839   1.636 -1.4264 -1.1387  1.9567
 5287SOL    HW216151   4.827   2.741   1.540 -1.1314  0.6644  0.2983
 5288SOL     OW16152   5.678   2.513   3.702 -0.0827  0.2858 -0.2296
 5288SOL    HW116153   5.753   2.459   3.741 -0.1506  0.8104  0.6565
 5288SOL    HW216154   5.596   2.500   3.758  0.3043  2.4918  0.9316
 5289SOL     OW16155   5.289   2.252   2.524 -0.0202  0.2302  0.1693
 5289SOL    HW116156   5.205   2.197   2.528  0.7553 -1.0333 -0.3809
 5289SOL    HW216157   5.274   2.338   2.573 -1.7637  0.2179 -0.2510
 5290SOL     OW16158   4.878   2.374   3.484  0.1193 -0.6249  0.5016
 5290SOL    HW116159   4.820   2.314   3.430  1.5010  0.3989 -2.3468
 5290SOL    HW216160   4.948   2.320   3.530 -1.0171 -1.5271  1.2189
 5291SOL     OW16161   4.660   3.622   2.266 -0.1220  0.0551  0.0789
 5291SOL    HW116162   4.753   3.645   2.237 -1.3777  1.3850 -3.4915
 5291SOL    HW216163   4.635   3.532   2.228 -0.9998  0.7214 -0.9820
 5292SOL     OW16164   0.138   1.395   4.575  0.7065  0.3423  0.1037
 5292SOL    HW116165   0.077   1.388   4.495  1.0564 -0.2501 -0.1172
 5292SOL    HW216166   0.084   1.422   4.655  0.2636  0.4567 -0.2243
 5293SOL     OW16167   5.536   4.441   3.351 -0.1349 -0.3022  0.4827
 5293SOL    HW116168   5.454   4.397   3.315  1.8593 -2.4933 -1.7871
 5293SOL    HW216169   5.546   4.532   3.313 -0.2019 -1.0386 -1.3965
 5294SOL     OW16170   4.963   2.258   2.692  0.0304  0.7087 -0.3946
 5294SOL    HW116171   4.920   2.341   2.726 -0.7836 -0.4945  1.6879
 5294SOL    HW216172   5.010   2.211   2.767 -0.0283 -1.0043 -1.3619
 5295SOL     OW16173   3.506   0.847   2.541 -0.1194 -0.0262  0.1527
 5295SOL    HW116174   3.411   0.877   2.532 -0.9193 -2.5407 -0.7514
 5295SOL    HW216175   3.510   0.768   2.602  1.2544 -0.5496 -0.5767
 5296SOL     OW16176   5.741   3.495   1.276  0.5250  0.4178  0.3938
 5296SOL    HW116177   5.800   3.553   1.218  1.6552 -2.0280 -1.0970
 5296SOL    HW216178   5.654   3.480   1.230  0.5067  0.3959  0.4356
 5297SOL     OW16179   4.619   1.697   2.717  0.1144  0.1156 -0.0650
 5297SOL    HW116180   4.710   1.655   2.718 -0.9567 -2.3690  1.2015
 5297SOL    HW216181   4.575   1.682   2.805 -2.3213 -0.6062 -1.3311
 5298SOL     OW16182   5.490   3.504   3.299  0.3476 -0.1948 -0.1806
 5298SOL    HW116183   5.503   3.600   3.321  1.2234  0.2135 -2.2205
 5298SOL    HW216184   5.397   3.489   3.266  0.3820  0.0569 -0.3891
 5299SOL     OW16185   4.662   2.814   3.556 -0.1633  0.3744  0.5275
 5299SOL    HW116186   4.721   2.894   3.545  1.4286 -0.0957  3.9808
 5299SOL    HW216187   4.719   2.732   3.565 -1.6373 -0.8161 -0.4085
 5300SOL     OW16188   4.961   3.494   3.273  0.0955 -0.2520  0.2484
 5300SOL    HW116189   4.886   3.477   3.337 -0.3875  0.2155 -0.1744
 5300SOL    HW216190   4.929   3.476   3.180  0.4381  0.1527  0.0486
 5301SOL     OW16191   4.504   4.413   3.045  0.4107 -0.1151 -0.6244
 5301SOL    HW116192   4.540   4.496   3.001 -0.5177  0.1300 -0.9418
 5301SOL    HW216193   4.416   4.389   3.003  1.2251 -1.9540 -1.3828
 5302SOL     OW16194   5.169   1.385   1.400  0.0768 -0.4357  0.1744
 5302SOL    HW116195   5.262   1.379   1.434  0.5128 -0.0309 -0.8849
 5302SOL    HW216196   5.161   1.464   1.339 -1.0124 -0.3470  0.4171
 5303SOL     OW16197   3.642   1.846   3.129  0.1357  0.6680  0.0943
 5303SOL    HW116198   3.647   1.937   3.169 -1.1364  0.8570 -0.1419
 5303SOL    HW216199   3.704   1.840   3.051 -0.7197  1.7646 -0.7000
 5304SOL     OW16200   4.544   2.891   2.159  0.0503 -0.3801 -0.0011
 5304SOL    HW116201   4.621   2.826   2.162  0.3438 -0.0329  0.0111
 5304SOL    HW216202   4.489   2.880   2.241  0.4903 -0.1412  0.3306
 5305SOL     OW16203   4.382   1.768   1.831  0.3345  0.2652  0.0253
 5305SOL    HW116204   4.332   1.852   1.853  0.2930 -0.0165  1.0562
 5305SOL    HW216205   4.446   1.786   1.756  1.0367  1.4797  0.8796
 5306SOL     OW16206   4.071   1.418   2.811  0.3536 -0.6989  0.3054
 5306SOL    HW116207   3.994   1.472   2.844 -0.3458 -2.1363  1.0925
 5306SOL    HW216208   4.105   1.359   2.884  1.4411 -0.9557 -0.3795
 5307SOL     OW16209   5.237   2.442   1.246  0.1263 -0.2756 -0.1954
 5307SOL    HW116210   5.324   2.480   1.215  0.2717  0.6865  1.2717
 5307SOL    HW216211   5.185   2.513   1.293 -1.0528 -1.0802 -0.2484
 5308SOL     OW16212   5.523   3.768   3.165 -0.5160 -0.1422 -0.0956
 5308SOL    HW116213   5.528   3.862   3.131 -0.5991 -0.2360 -0.3699
 5308SOL    HW216214   5.589   3.711   3.117  0.2858 -0.0101  0.8027
 5309SOL     OW16215   5.000   2.842   1.801  0.4106  0.0727  0.3407
 5309SOL    HW116216   4.928   2.796   1.748  0.1519 -0.3481  1.0402
 5309SOL    HW216217   5.015   2.934   1.764 -0.5631  0.2060  0.2391
 5310SOL     OW16218   4.274   2.620   2.726  0.3578 -0.1434  0.2562
 5310SOL    HW116219   4.267   2.547   2.659  0.6319 -2.0669  2.1949
 5310SOL    HW216220   4.369   2.648   2.735  0.0867  1.4515 -1.4328
 5311SOL     OW16221   4.513   3.916   3.897  0.2191 -0.3131 -0.3293
 5311SOL    HW116222   4.591   3.927   3.835  0.3459  1.0898  0.0648
 5311SOL    HW216223   4.543   3.921   3.992 -0.2990 -0.1397 -0.1671
 5312SOL     OW16224   0.208   3.270   1.114  0.7246  0.3419 -0.2184
 5312SOL    HW116225   0.169   3.185   1.149 -0.6490  1.2405  0.5047
 5312SOL    HW216226   0.155   3.348   1.148  2.3229  1.5405 -0.3625
 5313SOL     OW16227   3.731   1.870   1.171 -0.3744  0.1858  0.1873
 5313SOL    HW116228   3.792   1.901   1.098 -0.1137  0.2086  0.4124
 5313SOL    HW216229   3.764   1.906   1.259  0.9540 -2.1039  0.7161
 5314SOL     OW16230   5.494   3.426   2.671  0.8284  0.9630 -0.0378
 5314SOL    HW116231   5.563   3.474   2.726  0.3867  1.2202  0.2987
 5314SOL    HW216232   5.409   3.420   2.723  0.3760  1.2833 -0.7325
 5315SOL     OW16233   4.782   3.598   3.719  0.8352  0.7133 -0.0673
 5315SOL    HW116234   4.808   3.558   3.631 -0.8087 -0.1351 -0.2083
 5315SOL    HW216235   4.800   3.532   3.792 -0.0135  0.4732 -0.0645
 5316SOL     OW16236   5.851   1.631   4.475  0.2496  0.4629 -0.5203
 5316SOL    HW116237   5.886   1.636   4.382  1.5039 -1.9852 -0.2697
 5316SOL    HW216238   5.914   1.679   4.537  0.1434  0.9137 -0.7624
 5317SOL     OW16239   4.576   3.297   3.346 -0.0305 -0.2347 -0.0730
 5317SOL    HW116240   4.503   3.336   3.289 -1.2938 -1.5401  0.5913
 5317SOL    HW216241   4.651   3.267   3.288  0.0813  1.2909 -0.7622
 5318SOL     OW16242   4.281   3.747   3.462 -0.4535 -0.1811  0.3583
 5318SOL    HW116243   4.361   3.694   3.433 -0.6667  0.0624 -0.6817
 5318SOL    HW216244   4.262   3.819   3.396 -0.6450  0.7169  1.3586
 5319SOL     OW16245   0.725   1.236   3.517  0.1482  0.2023  0.2455
 5319SOL    HW116246   0.741   1.138   3.514 -0.1447 -0.0005  2.6932
 5319SOL    HW216247   0.811   1.285   3.503  0.5577 -0.4559  0.4206
 5320SOL     OW16248   4.789   2.818   4.676  0.6417  0.0747 -0.2814
 5320SOL    HW116249   4.735   2.903   4.673  1.6131  0.7183 -0.0339
 5320SOL    HW216250   4.731   2.742   4.705 -0.8170  0.2038 -2.5983
 5321SOL     OW16251   4.757   2.981   2.808  0.0772  0.0212 -0.6509
 5321SOL    HW116252   4.680   2.978   2.872 -1.6120 -1.4888 -2.6259
 5321SOL    HW216253   4.774   3.076   2.781 -2.0636  0.2964 -1.2359
 5322SOL     OW16254   5.718   3.393   3.197 -0.0904 -0.0261 -0.1079
 5322SOL    HW116255   5.633   3.424   3.241 -1.4645 -0.7156 -2.1310
 5322SOL    HW216256   5.748   3.463   3.132  0.1969 -0.3255 -0.2951
 5323SOL     OW16257   5.474   2.478   2.914 -0.2348  0.4536  0.4285
 5323SOL    HW116258   5.461   2.566   2.868  0.1243 -0.8874 -2.4596
 5323SOL    HW216259   5.569   2.469   2.944  1.4949 -1.0142 -4.4903
 5324SOL     OW16260   4.007   4.064   3.183  0.1491 -0.0549 -0.1098
 5324SOL    HW116261   3.945   4.128   3.229 -0.0898 -0.1510 -0.2999
 5324SOL    HW216262   3.955   3.987   3.147  0.2472  0.3180 -1.0844
 5325SOL     OW16263   3.285   2.842   2.161 -0.9187 -0.7381  0.1778
 5325SOL    HW116264   3.353   2.846   2.234 -0.9372  1.1088  0.1345
 5325SOL    HW216265   3.195   2.821   2.201 -0.7301 -0.8720  0.5350
 5326SOL     OW16266   3.279   2.213   2.060 -0.4064  0.7691  0.2343
 5326SOL    HW116267   3.193   2.258   2.036 -0.4408 -0.1385 -1.4426
 5326SOL    HW216268   3.275   2.117   2.032  0.5552  0.2960  1.6175
 5327SOL     OW16269   5.478   3.933   2.617  0.1012  0.4105 -0.1684
 5327SOL    HW116270   5.416   3.989   2.562 -1.2118 -1.2550 -0.4455
 5327SOL    HW216271   5.501   3.850   2.567 -3.0452 -2.3592  2.5150
 5328SOL     OW16272   4.726   3.872   3.704 -0.1726 -0.1522 -0.2166
 5328SOL    HW116273   4.752   3.915   3.618 -0.1323  1.2511  0.4742
 5328SOL    HW216274   4.755   3.776   3.703  0.4063  0.0137 -1.4888
 5329SOL     OW16275   5.667   3.719   2.257  0.8581 -0.4116  0.4536
 5329SOL    HW116276   5.647   3.817   2.257  1.1845 -0.3474  0.7788
 5329SOL    HW216277   5.695   3.692   2.165  0.5233 -0.2483  0.3023
 5330SOL     OW16278   3.818   3.632   3.719  0.1005  0.1167  0.2386
 5330SOL    HW116279   3.758   3.554   3.701 -1.0187  0.7257  1.2382
 5330SOL    HW216280   3.901   3.624   3.662 -1.3606 -0.1924 -1.9873
 5331SOL     OW16281   5.632   2.765   3.021  0.1335 -0.1386 -0.4333
 5331SOL    HW116282   5.645   2.857   3.059  1.2525 -0.3553 -0.2421
 5331SOL    HW216283   5.651   2.767   2.923  0.1224 -0.1609 -0.4359
 5332SOL     OW16284   4.196   3.293   3.409  0.1763  0.1458 -0.0618
 5332SOL    HW116285   4.183   3.355   3.486  1.8448 -0.9036  1.1341
 5332SOL    HW216286   4.118   3.231   3.402  1.2303 -1.6111  2.6230
 5333SOL     OW16287   4.483   3.025   3.252 -0.1868  0.4951  0.7662
 5333SOL    HW116288   4.383   3.024   3.257 -0.2271 -0.9624  0.3699
 5333SOL    HW216289   4.519   3.096   3.312 -1.3730 -0.6376  2.9456
 5334SOL     OW16290   4.958   2.363   3.851  0.1329 -0.3977  0.2861
 5334SOL    HW116291   4.867   2.376   3.890 -0.2201 -0.4448 -0.5041
 5334SOL    HW216292   4.963   2.274   3.805 -0.0909  0.4443 -1.4425
 5335SOL     OW16293   4.947   2.877   3.304 -0.3060  0.3227 -0.0798
 5335SOL    HW116294   4.849   2.866   3.290 -0.4308  1.7831 -0.4636
 5335SOL    HW216295   4.991   2.787   3.303 -1.2501 -0.2100 -2.8662
 5336SOL     OW16296   5.170   3.397   4.379 -0.3246 -0.6477  0.0242
 5336SOL    HW116297   5.211   3.309   4.403 -0.8288 -0.4885  1.5894
 5336SOL    HW216298   5.109   3.426   4.453 -0.4134  0.8649 -0.6193
 5337SOL     OW16299   5.205   2.418   2.062 -0.0576  0.3169 -0.3386
 5337SOL    HW116300   5.252   2.334   2.090 -1.3963 -0.1309  0.6630
 5337SOL    HW216301   5.270   2.495   2.065  0.9703 -0.5225 -0.4559
 5338SOL     OW16302   4.221   2.304   1.743  0.2166 -1.2615 -0.5663
 5338SOL    HW116303   4.256   2.386   1.697 -0.3797 -0.9857 -0.5415
 5338SOL    HW216304   4.289   2.272   1.809 -0.3969  0.5077  1.0214
 5339SOL     OW16305   3.949   3.774   3.053  0.2886 -0.2268 -0.2582
 5339SOL    HW116306   4.000   3.838   2.995  0.2794 -0.1375 -0.1686
 5339SOL    HW216307   3.888   3.719   2.996 -1.8356  1.7720 -0.1021
 5340SOL     OW16308   4.080   1.021   2.284  0.0196 -0.1886  0.5779
 5340SOL    HW116309   4.061   0.932   2.325  0.1268 -0.3870  0.1947
 5340SOL    HW216310   4.045   1.093   2.344  0.3146 -0.4721  1.0967
 5341SOL     OW16311   4.791   4.369   3.790 -0.3668 -0.4750 -0.3756
 5341SOL    HW116312   4.712   4.415   3.748 -2.3234 -2.8360  0.4257
 5341SOL    HW216313   4.875   4.417   3.766 -2.0833  2.6607 -0.6067
 5342SOL     OW16314   5.292   2.512   2.651 -0.0566 -0.4130  0.2284
 5342SOL    HW116315   5.311   2.544   2.558 -2.0855 -0.2553 -0.1945
 5342SOL    HW216316   5.341   2.568   2.717  2.1994 -1.1259 -0.7376
 5343SOL     OW16317   5.077   2.396   1.834  0.2208 -0.1529 -0.1335
 5343SOL    HW116318   5.004   2.328   1.843 -0.7634  0.7628 -0.9725
 5343SOL    HW216319   5.119   2.412   1.924 -0.8971 -0.3729  0.4470
 5344SOL     OW16320   4.753   2.433   2.102  0.3387  0.8187  1.4042
 5344SOL    HW116321   4.740   2.337   2.127  1.3586  0.3521  0.2483
 5344SOL    HW216322   4.850   2.457   2.110  0.5184  1.0178 -0.6705
 5345SOL     OW16323   4.186   3.249   4.466  0.1976  0.4666  0.4480
 5345SOL    HW116324   4.273   3.268   4.420  0.1047  1.6405  0.7263
 5345SOL    HW216325   4.192   3.275   4.562 -0.6731  1.3003  0.3041
 5346SOL     OW16326   5.869   3.870   3.745  0.0439  0.2025  0.4912
 5346SOL    HW116327   5.864   3.774   3.774  0.2046  0.1283  0.2707
 5346SOL    HW216328   5.841   3.877   3.650 -0.1565  0.4028  0.5652
 5347SOL     OW16329   3.731   2.497   5.225 -0.4163 -0.0476  0.4477
 5347SOL    HW116330   3.675   2.529   5.148  0.0018  0.1505  0.2266
 5347SOL    HW216331   3.750   2.400   5.214  2.1977  0.5643 -1.3282
 5348SOL     OW16332   5.534   3.188   1.406  0.6284 -0.0102 -0.4242
 5348SOL    HW116333   5.453   3.152   1.361 -0.5364  1.6827  0.2387
 5348SOL    HW216334   5.527   3.174   1.504 -0.4137  2.8223  0.0152
 5349SOL     OW16335   5.107   3.297   1.403 -0.4718 -0.1175  0.0201
 5349SOL    HW116336   5.016   3.273   1.369 -0.0593  0.6822 -1.7517
 5349SOL    HW216337   5.098   3.356   1.484 -1.4851 -1.6120  1.0456
 5350SOL     OW16338   5.041   3.475   2.762 -0.7145 -0.0429 -0.2987
 5350SOL    HW116339   5.118   3.412   2.763 -0.0454  0.7703  0.3592
 5350SOL    HW216340   4.995   3.473   2.851 -0.8401  0.2174 -0.3554
 5351SOL     OW16341   4.545   2.589   2.792 -0.6508  0.1365  0.1743
 5351SOL    HW116342   4.633   2.565   2.753 -0.9586 -1.1795  0.2572
 5351SOL    HW216343   4.556   2.619   2.887 -0.2225  0.7266 -0.0540
 5352SOL     OW16344   3.808   2.312   3.299  0.5467  0.2516  0.8611
 5352SOL    HW116345   3.883   2.377   3.286  1.2241 -0.6498  0.0174
 5352SOL    HW216346   3.824   2.231   3.241 -1.2798  0.1947  0.3599
 5353SOL     OW16347   4.001   2.932   3.438 -0.7445  0.2006  0.5496
 5353SOL    HW116348   3.947   3.015   3.424 -2.9480 -1.0349  1.2603
 5353SOL    HW216349   3.986   2.898   3.531  1.5557 -0.0485  0.8971
 5354SOL     OW16350   5.020   3.108   3.183  0.3648  0.1589  0.3485
 5354SOL    HW116351   5.109   3.095   3.140  0.0976 -0.6563  0.0321
 5354SOL    HW216352   4.977   3.019   3.200 -0.5246  0.5502  0.2200
 5355SOL     OW16353   4.213   4.287   3.291  0.1545  0.1510 -0.2848
 5355SOL    HW116354   4.160   4.209   3.259 -0.9861  0.5473  0.5741
 5355SOL    HW216355   4.308   4.277   3.261 -0.2050 -0.9977 -1.1266
 5356SOL     OW16356   4.226   2.239   3.027 -0.0622  0.3485 -0.1399
 5356SOL    HW116357   4.148   2.186   2.995  1.3208 -0.9149 -1.5726
 5356SOL    HW216358   4.232   2.324   2.974  1.2061 -0.9299 -2.1717
 5357SOL     OW16359   4.568   1.780   3.418  0.1613 -0.0989  0.3475
 5357SOL    HW116360   4.625   1.858   3.443 -1.2242  0.8492  0.6088
 5357SOL    HW216361   4.489   1.775   3.478 -0.3713 -1.0338 -0.3968
 5358SOL     OW16362   4.740   2.150   4.823  0.2586  0.1462 -0.6635
 5358SOL    HW116363   4.757   2.230   4.880 -0.8781 -0.5827  0.8053
 5358SOL    HW216364   4.797   2.074   4.855 -1.0566 -0.5335  0.1790
 5359SOL     OW16365   5.268   3.017   3.132  0.0659  0.6157  0.6415
 5359SOL    HW116366   5.344   3.067   3.172  0.6231 -0.4016  0.8936
 5359SOL    HW216367   5.274   2.921   3.158 -2.0897  0.7378  1.8394
 5360SOL     OW16368   2.197   1.416   1.700  0.3231 -0.1558  0.0371
 5360SOL    HW116369   2.162   1.464   1.620 -0.3724  2.0100  1.5421
 5360SOL    HW216370   2.121   1.389   1.759  0.8374 -1.5171  0.1296
 5361SOL     OW16371   0.237   2.548   2.189 -0.0181  0.4826  0.1786
 5361SOL    HW116372   0.292   2.632   2.194  1.2476 -0.3723  1.2048
 5361SOL    HW216373   0.298   2.469   2.181 -1.2163 -0.2847 -2.6086
 5362SOL     OW16374   4.570   2.064   2.577  0.1599  0.1254 -0.2015
 5362SOL    HW116375   4.564   2.145   2.636  0.1479 -0.1432  0.1740
 5362SOL    HW216376   4.489   2.008   2.591  0.0503  0.1738 -0.6479
 5363SOL     OW16377   4.910   2.392   4.295 -0.1229  0.0924 -0.0080
 5363SOL    HW116378   4.981   2.459   4.317 -1.6673  1.8113 -0.0155
 5363SOL    HW216379   4.835   2.400   4.361 -1.0187 -0.5942 -0.9115
 5364SOL     OW16380   4.383   3.825   2.935  0.2611  0.3910 -0.2509
 5364SOL    HW116381   4.295   3.827   2.887  0.1452 -0.8816 -0.1391
 5364SOL    HW216382   4.418   3.731   2.934  0.8955  0.5983  1.0136
 5365SOL     OW16383   2.981   2.116   1.722  0.2410  0.1413 -0.0821
 5365SOL    HW116384   2.922   2.155   1.792 -0.8118  0.5266 -1.1548
 5365SOL    HW216385   2.994   2.019   1.738  0.7136  0.3895  1.1118
 5366SOL     OW16386   3.973   3.631   4.012 -0.5380  0.1756 -0.1774
 5366SOL    HW116387   3.968   3.634   3.912 -0.0728  0.9345 -0.1866
 5366SOL    HW216388   4.065   3.603   4.040 -0.4983  0.5039  0.0344
 5367SOL     OW16389   5.986   2.273   3.483 -0.0223  0.2956 -0.6416
 5367SOL    HW116390   5.887   2.273   3.497 -0.1410 -0.5906 -1.3547
 5367SOL    HW216391   6.029   2.211   3.549 -0.0654 -0.1482 -1.0244
 5368SOL     OW16392   5.045   3.440   1.643 -0.5031 -0.7807  0.2536
 5368SOL    HW116393   4.967   3.471   1.696 -0.7684 -1.4448  0.2620
 5368SOL    HW216394   5.127   3.488   1.673 -0.7568 -0.7066  0.8430
 5369SOL     OW16395   5.452   4.398   2.741  0.3027 -0.2457  0.4364
 5369SOL    HW116396   5.438   4.309   2.697  0.8560 -0.5079  0.7743
 5369SOL    HW216397   5.452   4.470   2.672  0.1903 -0.5500  0.1180
 5370SOL     OW16398   4.388   3.301   2.707 -0.4342 -0.2127  0.0434
 5370SOL    HW116399   4.350   3.221   2.753 -0.3591 -1.5510 -2.0730
 5370SOL    HW216400   4.314   3.352   2.663 -0.4299  0.6780  1.0267
 5371SOL     OW16401   3.847   3.278   3.051 -0.0265 -0.4155  0.2719
 5371SOL    HW116402   3.941   3.293   3.082  1.1151 -1.2426 -2.4633
 5371SOL    HW216403   3.814   3.359   3.003 -0.4570 -0.3942  0.5950
 5372SOL     OW16404   4.851   4.576   3.012  0.2759  0.3576 -0.0700
 5372SOL    HW116405   4.837   4.531   3.100  2.6101 -1.8376 -0.6879
 5372SOL    HW216406   4.949   4.593   2.999 -0.2093  2.4776 -1.4369
 5373SOL     OW16407   5.011   1.875   3.556  0.2838  0.7258 -0.2281
 5373SOL    HW116408   4.946   1.805   3.585 -0.6499  1.3887 -0.6515
 5373SOL    HW216409   4.991   1.901   3.462  1.6893  0.3764 -0.6481
 5374SOL     OW16410   5.643   3.634   2.749 -0.3966 -0.6407 -0.5040
 5374SOL    HW116411   5.739   3.656   2.733 -0.7343  1.5603  0.1991
 5374SOL    HW216412   5.589   3.653   2.667 -0.7026  1.5246  0.1295
 5375SOL     OW16413   4.205   4.314   3.823  0.1635  0.5161 -0.6304
 5375SOL    HW116414   4.236   4.221   3.804 -0.0487  0.0403  1.1121
 5375SOL    HW216415   4.255   4.379   3.766  1.7197 -0.5135 -0.5052
 5376SOL     OW16416   4.429   1.679   2.960 -0.8487 -0.6552 -0.9321
 5376SOL    HW116417   4.383   1.613   2.901 -0.6012  0.0722 -1.9808
 5376SOL    HW216418   4.361   1.742   2.998 -1.3246 -2.5089  1.4815
 5377SOL     OW16419   4.797   4.655   3.883 -0.0588  0.1002 -0.9190
 5377SOL    HW116420   4.730   4.702   3.826 -0.7769 -1.2213 -1.1961
 5377SOL    HW216421   4.887   4.696   3.869 -0.3997  0.4544 -2.2330
 5378SOL     OW16422   3.713   3.490   1.666  0.0363 -0.3358 -0.0698
 5378SOL    HW116423   3.728   3.497   1.764  0.8933 -0.8696 -0.1487
 5378SOL    HW216424   3.784   3.432   1.625  1.2360  1.8846 -1.3710
 5379SOL     OW16425   4.748   4.062   3.488 -0.3313  0.4250  0.1926
 5379SOL    HW116426   4.782   3.998   3.419  0.0602  0.2351  0.5617
 5379SOL    HW216427   4.767   4.155   3.459 -0.0475  0.3400  0.1067
 5380SOL     OW16428   5.685   1.789   2.649 -0.1493  0.0994 -0.4979
 5380SOL    HW116429   5.690   1.859   2.721  3.5027 -0.6657  0.1685
 5380SOL    HW216430   5.689   1.834   2.559 -3.4932  0.9767 -0.3238
 5381SOL     OW16431   4.995   2.009   2.532  0.2338 -0.7448  0.4962
 5381SOL    HW116432   4.962   2.092   2.577 -0.8152 -1.6190  1.3896
 5381SOL    HW216433   5.067   1.967   2.587  0.0246 -0.9922  0.5824
 5382SOL     OW16434   4.898   3.339   2.006  0.0787 -0.0869  0.2638
 5382SOL    HW116435   4.837   3.412   1.975  1.8079  2.2593  2.0902
 5382SOL    HW216436   4.916   3.348   2.104  3.5650 -0.4463 -0.1971
 5383SOL     OW16437   4.465   3.988   3.159 -0.7548 -0.0248  0.1745
 5383SOL    HW116438   4.529   4.064   3.170 -0.0135 -0.7530  1.1660
 5383SOL    HW216439   4.481   3.943   3.072  2.5214 -2.2696  1.7172
 5384SOL     OW16440   0.029   1.559   3.373 -0.4247 -0.0528 -0.3687
 5384SOL    HW116441  -0.050   1.581   3.316 -0.0954  0.7370 -0.5355
 5384SOL    HW216442   0.107   1.536   3.314  0.1637  1.5987 -0.3100
 5385SOL     OW16443   4.630   3.512   3.094 -0.2838 -0.2096  0.1703
 5385SOL    HW116444   4.578   3.565   3.161 -0.1099 -0.9191  0.8767
 5385SOL    HW216445   4.568   3.480   3.022 -0.5334  0.2655  0.1709
 5386SOL     OW16446   4.226   4.464   2.919 -0.0990  0.3067  0.2686
 5386SOL    HW116447   4.177   4.378   2.903  0.1645  0.2150 -0.0637
 5386SOL    HW216448   4.162   4.534   2.948 -0.6861  0.5926 -1.5867
 5387SOL     OW16449   5.135   3.149   3.449  0.3633  0.2505 -0.0263
 5387SOL    HW116450   5.088   3.131   3.363 -0.6449  1.4963  0.2362
 5387SOL    HW216451   5.211   3.211   3.433 -0.0084  0.7193  0.0286
 5388SOL     OW16452   4.781   2.859   2.554  0.2094 -0.5158  0.4374
 5388SOL    HW116453   4.850   2.917   2.511 -0.4335  0.3656  0.5549
 5388SOL    HW216454   4.759   2.896   2.644 -1.3719  0.0082 -0.1291
 5389SOL     OW16455   0.678   1.647   2.983 -0.2818  0.6726  0.5302
 5389SOL    HW116456   0.711   1.704   2.908 -1.2709  0.4629 -0.0828
 5389SOL    HW216457   0.618   1.701   3.042  1.3329  1.1432  1.8267
 5390SOL     OW16458   4.269   3.482   2.508  0.4232  0.3873 -0.5274
 5390SOL    HW116459   4.306   3.551   2.447  0.4331  0.0950 -0.8559
 5390SOL    HW216460   4.269   3.393   2.462  2.2709 -0.2284  0.5894
 5391SOL     OW16461   5.681   2.855   2.741 -0.4477 -0.1196  0.1053
 5391SOL    HW116462   5.770   2.863   2.697 -0.5380 -1.5515 -0.4233
 5391SOL    HW216463   5.641   2.945   2.755 -0.4135  0.4576 -2.7917
 5392SOL     OW16464   5.526   3.184   2.990 -0.1354 -0.1298 -0.6035
 5392SOL    HW116465   5.473   3.156   3.070 -1.9570  0.3065 -1.6074
 5392SOL    HW216466   5.530   3.283   2.984 -1.5491 -0.1113 -1.9616
 5393SOL     OW16467   5.411   1.782   3.304 -0.2838  0.5657 -0.4920
 5393SOL    HW116468   5.358   1.813   3.226  0.0379  1.0922 -0.5073
 5393SOL    HW216469   5.481   1.717   3.274 -0.6261  0.2145 -0.5342
 5394SOL     OW16470   4.394   1.850   2.631  0.4754  0.6115  0.1140
 5394SOL    HW116471   4.353   1.782   2.570  0.9191 -0.2972  0.8138
 5394SOL    HW216472   4.469   1.808   2.683  0.3900  1.4821  0.9665
 5395SOL     OW16473   0.551   2.227   3.232 -0.3883  0.0898 -0.2684
 5395SOL    HW116474   0.474   2.179   3.274 -0.3118  1.2370  1.2713
 5395SOL    HW216475   0.518   2.282   3.155 -0.4815 -2.2981 -2.0630
 5396SOL     OW16476   3.877   1.951   2.095 -0.5273  0.1617 -0.5019
 5396SOL    HW116477   3.781   1.935   2.117 -0.6826  1.4310 -0.1190
 5396SOL    HW216478   3.935   1.899   2.158 -0.9550 -0.5004 -0.6446
 5397SOL     OW16479   5.724   3.598   3.023 -0.2034  0.1065 -0.4583
 5397SOL    HW116480   5.813   3.644   3.019  1.2693 -2.5656 -0.9323
 5397SOL    HW216481   5.680   3.602   2.933  0.3440 -0.1552 -0.7439
 5398SOL     OW16482   3.746   3.959   3.394  0.0404  0.0917  0.0025
 5398SOL    HW116483   3.675   3.910   3.444 -0.1426  1.2195  0.9021
 5398SOL    HW216484   3.795   4.019   3.457  2.0503 -0.9065 -0.5102
 5399SOL     OW16485   4.613   4.306   3.389 -1.0581  0.0047 -0.0130
 5399SOL    HW116486   4.607   4.248   3.470  0.5076 -0.7938 -0.4440
 5399SOL    HW216487   4.629   4.250   3.308 -3.6138  0.6699 -1.1104
 5400SOL     OW16488   4.934   1.254   3.703  0.3105 -0.0586 -0.3646
 5400SOL    HW116489   5.031   1.240   3.719  0.5087 -0.7602 -1.9273
 5400SOL    HW216490   4.882   1.225   3.783  1.2876 -1.4545 -0.2033
 5401SOL     OW16491   3.862   2.134   3.102 -0.0021  0.1631 -0.2423
 5401SOL    HW116492   3.840   2.207   3.037 -0.7211  1.0132  0.9327
 5401SOL    HW216493   3.912   2.062   3.054  0.8324  1.4600 -1.4137
 5402SOL     OW16494   4.613   4.500   4.031 -0.4451 -0.6063  0.0772
 5402SOL    HW116495   4.664   4.566   3.976 -1.3989  0.0289 -0.0703
 5402SOL    HW216496   4.631   4.407   3.997 -1.0846 -0.2286 -1.3987
 5403SOL     OW16497   0.467   2.874   3.372 -0.1480 -0.5537 -0.0177
 5403SOL    HW116498   0.373   2.900   3.352 -1.3406 -0.0373  4.9194
 5403SOL    HW216499   0.523   2.956   3.386  0.2425 -0.8280  0.0719
 5404SOL     OW16500   4.844   2.583   2.434 -0.4951  0.3525  0.4248
 5404SOL    HW116501   4.883   2.542   2.352  0.1422 -0.3910  1.0790
 5404SOL    HW216502   4.819   2.678   2.416  0.1741  0.3683 -0.4598
 5405SOL     OW16503   4.402   2.212   1.929 -0.5101  0.9019  0.6014
 5405SOL    HW116504   4.415   2.150   2.006  0.2014  1.1390  0.6849
 5405SOL    HW216505   4.465   2.290   1.938  0.3186  0.4319 -0.7210
 5406SOL     OW16506   5.550   3.010   3.759  0.6252 -1.0532 -0.2428
 5406SOL    HW116507   5.499   3.095   3.742  2.2393 -0.1422 -0.7530
 5406SOL    HW216508   5.611   3.023   3.837  1.2579 -1.5726 -0.6435
 5407SOL     OW16509   5.288   3.152   4.425 -0.3260  0.0870 -0.8714
 5407SOL    HW116510   5.247   3.073   4.470 -0.4893 -0.1001 -1.3497
 5407SOL    HW216511   5.377   3.171   4.466 -1.3696  1.2462  1.0408
 5408SOL     OW16512   4.814   3.643   1.628 -0.2587 -0.1900  0.1274
 5408SOL    HW116513   4.813   3.720   1.692  2.3918  0.3060 -0.3378
 5408SOL    HW216514   4.724   3.636   1.584 -0.0619  4.1159 -1.4713
 5409SOL     OW16515   3.321   4.637   3.756 -0.3041  0.1089 -0.4755
 5409SOL    HW116516   3.379   4.556   3.755  0.4699  0.5920  1.4473
 5409SOL    HW216517   3.225   4.610   3.751 -0.0192 -0.8231 -1.2498
 5410SOL     OW16518   4.272   3.246   2.363  0.1847 -0.4884  0.1088
 5410SOL    HW116519   4.240   3.199   2.281  1.8451  0.7984 -1.3524
 5410SOL    HW216520   4.353   3.200   2.399  0.0545 -0.4640  0.4408
 5411SOL     OW16521   4.660   1.713   3.105 -0.4769  0.2601  0.1104
 5411SOL    HW116522   4.681   1.674   3.194  0.7521  0.1688 -0.1930
 5411SOL    HW216523   4.574   1.676   3.071 -0.8143  0.0842  1.1202
 5412SOL     OW16524   5.406   4.352   4.153  0.2815 -0.4527 -0.6082
 5412SOL    HW116525   5.452   4.282   4.099  2.4405 -0.3202  0.9326
 5412SOL    HW216526   5.314   4.367   4.117  0.8516 -1.8870 -2.8342
 5413SOL     OW16527   4.213   3.476   3.597 -0.3076  0.0651  0.0555
 5413SOL    HW116528   4.265   3.446   3.677  1.1053 -1.4908 -1.3855
 5413SOL    HW216529   4.229   3.574   3.581 -0.0271  0.2182  1.2157
 5414SOL     OW16530   3.521   2.988   3.751 -0.6444  0.0407 -0.2986
 5414SOL    HW116531   3.591   2.947   3.693  0.9030  0.4453  1.2030
 5414SOL    HW216532   3.564   3.027   3.832 -2.0274  4.3231 -1.3751
 5415SOL     OW16533   4.222   2.500   2.960  0.2335 -0.0938  0.0791
 5415SOL    HW116534   4.217   2.557   3.042  0.7967 -0.0539  0.0876
 5415SOL    HW216535   4.226   2.558   2.879 -1.2099 -0.1317 -0.0441
 5416SOL     OW16536   3.480   2.541   2.662  0.2215  0.0683  0.2878
 5416SOL    HW116537   3.506   2.621   2.716 -1.7525  0.1556  1.2090
 5416SOL    HW216538   3.530   2.541   2.576  2.2544  0.8071  1.4062
 5417SOL     OW16539   6.013   4.284   3.208  0.2868  0.4532 -0.2277
 5417SOL    HW116540   5.957   4.254   3.285  0.3928  0.3749 -0.1811
 5417SOL    HW216541   5.979   4.243   3.124  1.3830 -1.0752  0.0293
 5418SOL     OW16542   3.700   1.466   3.373 -0.1858  0.1298  0.0765
 5418SOL    HW116543   3.618   1.414   3.396  0.1764 -0.5544 -0.1496
 5418SOL    HW216544   3.688   1.561   3.401 -1.6682  0.4001 -1.3607
 5419SOL     OW16545   4.100   3.644   2.662  0.1424 -0.0291 -0.7513
 5419SOL    HW116546   4.005   3.631   2.634 -0.5394  2.2924  0.2186
 5419SOL    HW216547   4.159   3.581   2.612 -1.9086 -1.6119 -1.2814
 5420SOL     OW16548   3.977   2.832   2.920 -0.5842  0.0776  0.8007
 5420SOL    HW116549   3.923   2.908   2.957 -0.3191 -1.1251  3.9126
 5420SOL    HW216550   3.939   2.745   2.951  1.6714 -0.9023  1.0306
 5421SOL     OW16551   5.719   1.377   2.719 -0.1627  0.0687 -0.2684
 5421SOL    HW116552   5.699   1.302   2.655 -0.5700 -0.8424  0.8800
 5421SOL    HW216553   5.815   1.404   2.711 -0.2347  0.0354 -1.3223
 5422SOL     OW16554   5.216   3.121   2.437  0.0434  0.0263 -0.1491
 5422SOL    HW116555   5.170   3.106   2.350  0.3956  1.6011 -0.6552
 5422SOL    HW216556   5.174   3.199   2.484  0.7353  0.0528  0.4486
 5423SOL     OW16557   4.963   5.149   3.394 -0.5039 -0.5785 -0.6032
 5423SOL    HW116558   4.897   5.223   3.379  0.2571  0.3325  0.3771
 5423SOL    HW216559   5.046   5.168   3.342 -0.7977 -1.4583 -1.4230
 5424SOL     OW16560   4.900   2.205   1.825  0.6252  0.3176 -0.0370
 5424SOL    HW116561   4.980   2.149   1.846  1.8976  1.0658 -2.4811
 5424SOL    HW216562   4.823   2.147   1.803  1.5248 -0.4998 -1.1374
 5425SOL     OW16563   4.302   3.013   3.964  0.6618 -0.1071 -0.1163
 5425SOL    HW116564   4.245   3.094   3.974 -0.4953 -1.1832  4.0651
 5425SOL    HW216565   4.254   2.945   3.909 -0.3060  0.5069 -0.0528
 5426SOL     OW16566   4.093   2.075   2.429 -0.1442  0.1119 -0.3303
 5426SOL    HW116567   4.067   2.160   2.383  1.4443  0.4325 -0.6984
 5426SOL    HW216568   4.096   2.001   2.361 -0.7563 -0.0794 -0.1557
 5427SOL     OW16569   4.090   1.998   2.917  0.1780  0.4583 -0.6399
 5427SOL    HW116570   4.116   1.984   2.821 -0.9379  0.4593 -0.9526
 5427SOL    HW216571   4.138   1.931   2.974  1.1538  0.7122 -1.1417
 5428SOL     OW16572   4.536   3.394   2.208  0.0924  0.0280 -0.3662
 5428SOL    HW116573   4.471   3.373   2.281  2.9871 -1.3674  2.0243
 5428SOL    HW216574   4.541   3.318   2.144  1.0121 -0.9272  0.8017
 5429SOL     OW16575   3.779   3.366   4.730 -0.3558 -0.0279 -0.6996
 5429SOL    HW116576   3.785   3.333   4.825 -2.5613  0.5541 -0.2936
 5429SOL    HW216577   3.850   3.434   4.714  0.8671 -1.0637  0.1191
 5430SOL     OW16578   4.521   0.717   5.511 -0.0190 -0.0091 -0.3089
 5430SOL    HW116579   4.609   0.671   5.519 -0.8518 -1.7216 -0.3104
 5430SOL    HW216580   4.495   0.722   5.414 -1.3908 -2.6822 -0.2037
 5431SOL     OW16581   4.269   2.649   3.172  0.1389 -0.0379  0.5389
 5431SOL    HW116582   4.252   2.746   3.190 -2.1455 -0.5847  1.8364
 5431SOL    HW216583   4.279   2.601   3.259 -0.3237 -1.2040 -0.0319
 5432SOL     OW16584   4.599   3.922   4.744 -0.2412 -0.0596  0.0706
 5432SOL    HW116585   4.628   3.842   4.795 -1.8077  0.0377  1.1681
 5432SOL    HW216586   4.578   3.896   4.649 -1.2507 -1.0795  0.5519
 5433SOL     OW16587   3.672   3.844   4.979 -0.7929  0.2158  0.6993
 5433SOL    HW116588   3.723   3.811   4.900 -0.3459  1.1056  0.5963
 5433SOL    HW216589   3.672   3.775   5.051 -0.5839 -0.3137  0.1938
 5434SOL     OW16590   5.476   2.328   4.772  0.1536 -0.2921 -0.2437
 5434SOL    HW116591   5.567   2.368   4.758  0.8556 -2.0980 -1.1100
 5434SOL    HW216592   5.420   2.344   4.691 -0.1217  0.3133  0.0588
 5435SOL     OW16593   5.467   3.152   3.258 -0.5057  0.3149 -0.3384
 5435SOL    HW116594   5.555   3.105   3.245 -0.6945  0.1037 -0.8642
 5435SOL    HW216595   5.459   3.180   3.353 -0.4338 -0.8215  0.0199
 5436SOL     OW16596   3.523   3.424   5.150  0.1030 -0.7551 -0.4856
 5436SOL    HW116597   3.536   3.353   5.081 -1.2500 -0.3008 -1.2338
 5436SOL    HW216598   3.588   3.498   5.134  1.3730 -1.6760  0.1682
 5437SOL     OW16599   4.598   3.649   4.236  0.4566 -0.5589 -0.6744
 5437SOL    HW116600   4.501   3.641   4.213  0.1456  2.3486 -0.6543
 5437SOL    HW216601   4.643   3.561   4.220 -1.2890 -0.9274 -4.9120
 5438SOL     OW16602   4.646   2.567   4.697 -0.0751  0.2328  0.2685
 5438SOL    HW116603   4.700   2.496   4.651 -0.4302  0.8889 -1.2280
 5438SOL    HW216604   4.693   2.596   4.780 -0.2398 -2.1889  1.2843
 5439SOL     OW16605   4.557   3.714   5.109  0.3668 -0.4071  0.6282
 5439SOL    HW116606   4.545   3.804   5.151  0.6928  0.4368 -1.0120
 5439SOL    HW216607   4.508   3.645   5.164  0.4834  0.6717  2.1541
 5440SOL     OW16608   4.210   3.901   4.757 -0.5329  0.1275 -0.1999
 5440SOL    HW116609   4.249   3.831   4.698 -1.5281  0.0374 -0.7656
 5440SOL    HW216610   4.163   3.969   4.702  0.0993  1.0480  0.3726
 5441SOL     OW16611   5.481   4.854   5.248  0.3414 -0.1131 -0.5748
 5441SOL    HW116612   5.574   4.874   5.218 -0.3517  1.8675 -1.5333
 5441SOL    HW216613   5.434   4.938   5.273 -0.9274 -1.1656  0.8373
 5442SOL     OW16614   3.955   1.923   0.246 -0.3344 -0.1046 -0.0777
 5442SOL    HW116615   4.007   1.970   0.175 -1.5527  0.4355 -0.6480
 5442SOL    HW216616   3.977   1.962   0.336  1.3958 -0.9525 -0.1036
 5443SOL     OW16617   0.476   3.325   3.528  0.5200 -0.4121 -0.0874
 5443SOL    HW116618   0.417   3.361   3.455 -0.6703 -3.8653 -1.0435
 5443SOL    HW216619   0.433   3.343   3.616 -1.1962 -1.3946 -0.6693
 5444SOL     OW16620   3.827   2.760   3.338  0.4357 -0.1632 -0.8284
 5444SOL    HW116621   3.756   2.824   3.309  1.0981  1.0966  0.1930
 5444SOL    HW216622   3.898   2.810   3.387  0.7262 -1.7887  0.4759
 5445SOL     OW16623   4.005   2.905   4.813  0.1556 -0.2511  0.4715
 5445SOL    HW116624   3.991   2.815   4.772 -0.2192 -0.1018  0.2763
 5445SOL    HW216625   4.037   2.893   4.908 -0.4609 -0.5861  0.6425
 5446SOL     OW16626   3.649   3.112   3.942 -0.2109  0.6398  0.6816
 5446SOL    HW116627   3.695   3.198   3.962  0.5324  0.6116 -0.7208
 5446SOL    HW216628   3.694   3.038   3.993  1.1210  0.6729 -0.3678
 5447SOL     OW16629   2.991   2.071   5.131  0.0134 -0.3999  0.4056
 5447SOL    HW116630   2.920   2.005   5.156  0.1731 -0.4771  0.6595
 5447SOL    HW216631   3.067   2.023   5.087  0.4224 -0.4797  1.1876
 5448SOL     OW16632   5.163   3.119   5.112 -0.1067  0.0467 -0.5354
 5448SOL    HW116633   5.259   3.135   5.133  0.4625  0.2691 -2.9855
 5448SOL    HW216634   5.154   3.035   5.057 -0.6160  2.2732 -4.2045
 5449SOL     OW16635   4.853   2.608   3.612 -0.5200 -0.6088  0.7739
 5449SOL    HW116636   4.947   2.643   3.616 -0.3190 -0.9924 -0.3362
 5449SOL    HW216637   4.854   2.512   3.585 -1.3078 -0.0826 -1.2997
 5450SOL     OW16638   4.824   2.974   5.328  0.8367 -0.3903 -0.4635
 5450SOL    HW116639   4.877   3.045   5.373  1.9058 -1.3579 -0.1441
 5450SOL    HW216640   4.807   2.899   5.392 -2.5260  0.6277  0.0416
 5451SOL     OW16641   3.779   2.084   5.404  0.2776 -0.5873  0.3409
 5451SOL    HW116642   3.819   1.996   5.428  1.4528  0.1251  1.0733
 5451SOL    HW216643   3.851   2.147   5.376 -0.3409  0.6234  1.3546
 5452SOL     OW16644   5.505   4.597   4.206 -0.3990  0.3579 -0.0746
 5452SOL    HW116645   5.488   4.503   4.176  1.4591  0.0433 -0.2823
 5452SOL    HW216646   5.515   4.656   4.126 -0.3352  0.4803  0.0237
 5453SOL     OW16647   3.979   2.522   3.264 -0.1739  0.5219  0.3618
 5453SOL    HW116648   4.079   2.519   3.269 -0.2018 -0.3390  0.6189
 5453SOL    HW216649   3.945   2.604   3.310  0.3452  0.1182  1.4792
 5454SOL     OW16650   5.571   3.332   4.973 -0.1847  0.1933  0.2798
 5454SOL    HW116651   5.572   3.416   4.919  2.2231 -1.2804 -2.2295
 5454SOL    HW216652   5.636   3.341   5.048  0.7911  0.2649 -0.5554
 5455SOL     OW16653   5.701   2.388   3.045 -0.0919  0.1520  0.2137
 5455SOL    HW116654   5.643   2.318   3.086  1.6794 -1.0945  0.6907
 5455SOL    HW216655   5.715   2.462   3.111  1.6094 -1.1861  1.4475
 5456SOL     OW16656   4.043   2.849   5.066 -0.4857 -0.3713 -0.3345
 5456SOL    HW116657   4.102   2.905   5.124 -0.0428 -1.8861  0.7292
 5456SOL    HW216658   4.026   2.761   5.110 -1.2688 -1.0470 -1.8949
 5457SOL     OW16659   4.283   4.058   3.764 -0.0634  0.2513 -0.2919
 5457SOL    HW116660   4.203   4.016   3.722 -0.1944 -0.0160  0.2121
 5457SOL    HW216661   4.326   3.993   3.827 -0.8193  1.1656  1.2372
 5458SOL     OW16662   4.625   4.597   4.461  0.4481 -0.0107 -0.1118
 5458SOL    HW116663   4.721   4.573   4.445 -0.5001 -2.3498 -3.1014
 5458SOL    HW216664   4.592   4.655   4.386 -0.7781 -0.1513  0.2934
 5459SOL     OW16665   5.519   1.491   5.941 -0.3599 -0.0036 -0.2950
 5459SOL    HW116666   5.617   1.485   5.963 -0.8033 -2.8241  1.5329
 5459SOL    HW216667   5.499   1.428   5.866 -0.7231  0.9751 -1.0331
 5460SOL     OW16668   3.961   1.875   5.497  0.1544  0.0771  0.3657
 5460SOL    HW116669   4.043   1.860   5.442 -0.1930  1.0332 -0.4525
 5460SOL    HW216670   3.981   1.941   5.569  0.2909 -0.2335  0.6111
 5461SOL     OW16671   4.193   2.778   3.828 -0.6120  0.1726 -0.8050
 5461SOL    HW116672   4.291   2.760   3.814 -1.0501 -1.8950 -1.6106
 5461SOL    HW216673   4.157   2.716   3.897 -1.6242  0.0052 -1.4585
 5462SOL     OW16674   4.686   4.042   5.944  0.9656 -0.1423  0.0795
 5462SOL    HW116675   4.736   3.957   5.958  0.3236 -0.6587 -0.6850
 5462SOL    HW216676   4.636   4.038   5.858  0.5965  0.8472  0.2316
 5463SOL     OW16677   3.011   2.218   0.289  0.2671 -0.3240 -0.4028
 5463SOL    HW116678   2.985   2.307   0.251  0.8134  0.1540  0.3289
 5463SOL    HW216679   3.107   2.219   0.314 -0.1653 -0.4852  1.3750
 5464SOL     OW16680   4.668   3.382   4.237  0.4181  0.4617  0.1094
 5464SOL    HW116681   4.763   3.361   4.213  0.7580  0.6111  1.2610
 5464SOL    HW216682   4.606   3.337   4.173  1.2020 -1.7859  0.8568
 5465SOL     OW16683   5.418   4.016   3.777 -0.3038  0.0010  0.4741
 5465SOL    HW116684   5.343   4.058   3.827 -1.2015  0.9979 -1.5808
 5465SOL    HW216685   5.406   3.917   3.776 -0.8501  0.0478  1.2733
 5466SOL     OW16686   4.256   2.638   3.487 -0.2983 -0.2250 -0.8192
 5466SOL    HW116687   4.190   2.565   3.504 -1.2339  0.8840  0.7158
 5466SOL    HW216688   4.311   2.653   3.569 -0.9368  1.5242 -0.6611
 5467SOL     OW16689   0.048   0.418   4.208  0.3745  0.6772 -0.6912
 5467SOL    HW116690   0.053   0.491   4.276  1.0790  1.4912 -1.5835
 5467SOL    HW216691   0.115   0.436   4.136  0.2534 -0.6363 -1.1431
 5468SOL     OW16692   0.295   4.292   3.131 -0.0636 -0.4812  0.4773
 5468SOL    HW116693   0.205   4.279   3.173 -0.1219 -0.1620  0.4525
 5468SOL    HW216694   0.284   4.301   3.032  0.0783 -1.2814  0.3789
 5469SOL     OW16695   4.200   2.250   5.964 -0.0221  0.3402 -0.8798
 5469SOL    HW116696   4.236   2.157   5.975 -2.6185 -0.6512  0.0759
 5469SOL    HW216697   4.261   2.303   5.904  2.2443 -1.5206 -0.3615
 5470SOL     OW16698   5.923   3.548   0.623  0.2388 -0.0235 -0.1987
 5470SOL    HW116699   5.897   3.462   0.666 -2.7113  1.3124  0.9441
 5470SOL    HW216700   5.951   3.531   0.529 -4.4079 -1.9368 -1.5154
 5471SOL     OW16701   4.059   3.299   4.215  0.2541 -0.5741 -0.3950
 5471SOL    HW116702   3.960   3.292   4.229  0.1906 -1.7321 -1.2674
 5471SOL    HW216703   4.105   3.295   4.303 -0.5341  2.0881  0.2282
 5472SOL     OW16704   4.787   2.318   4.591 -0.8928  0.3228  0.4239
 5472SOL    HW116705   4.734   2.303   4.508 -0.6303  2.0843 -0.1087
 5472SOL    HW216706   4.767   2.246   4.657  0.5971 -2.4695 -1.9547
 5473SOL     OW16707   5.034   2.183   5.247 -0.2782 -0.8928 -0.2612
 5473SOL    HW116708   5.062   2.175   5.151  0.2190 -1.8536 -0.0486
 5473SOL    HW216709   5.113   2.165   5.306 -0.4599  0.1707  0.3418
 5474SOL     OW16710   2.879   1.910   5.740  0.1801 -0.8027  0.2391
 5474SOL    HW116711   2.908   1.926   5.834  0.0706 -1.5683  0.4030
 5474SOL    HW216712   2.914   1.984   5.682  0.5225 -0.5014  0.8208
 5475SOL     OW16713   3.529   3.069   0.428  0.2311 -0.2150  0.0471
 5475SOL    HW116714   3.589   3.025   0.495  0.1456 -3.1174 -1.5894
 5475SOL    HW216715   3.437   3.030   0.435  0.2261 -0.6255 -1.6883
 5476SOL     OW16716   5.062   2.217   4.157 -0.1619 -0.0737  0.6100
 5476SOL    HW116717   5.018   2.281   4.220  1.4005  1.4143  0.2935
 5476SOL    HW216718   5.056   2.253   4.064  1.6573  0.2095  0.5639
 5477SOL     OW16719   0.130   3.377   5.966 -0.3090  0.2268  0.0691
 5477SOL    HW116720   0.138   3.278   5.951  1.3437  0.5351 -1.5034
 5477SOL    HW216721   0.220   3.415   5.988 -0.4816  1.6512 -1.4544
 5478SOL     OW16722   4.151   3.725   4.291 -0.2689 -0.6792 -0.5320
 5478SOL    HW116723   4.182   3.680   4.207 -0.1443  0.6962 -1.2640
 5478SOL    HW216724   4.096   3.805   4.267  0.6733  0.3731  0.6699
 5479SOL     OW16725   4.358   1.966   5.412  0.8857  0.3870  0.1389
 5479SOL    HW116726   4.419   2.013   5.476  0.8626  1.4150 -0.5729
 5479SOL    HW216727   4.280   2.024   5.390  0.7541 -0.0578 -0.6230
 5480SOL     OW16728   5.256   4.343   4.517 -0.3151  0.2405 -0.5852
 5480SOL    HW116729   5.200   4.263   4.499 -0.7378  0.6372 -1.0325
 5480SOL    HW216730   5.345   4.332   4.472  0.2339 -0.6803  0.6636
 5481SOL     OW16731   3.866   2.571   2.998 -0.1997  0.6465 -0.5286
 5481SOL    HW116732   3.918   2.543   3.079 -0.1153  1.3011 -0.3447
 5481SOL    HW216733   3.835   2.491   2.948 -0.5032  0.2331  0.3147
 5482SOL     OW16734   6.020   2.338   5.566 -0.0826 -0.0838  0.1797
 5482SOL    HW116735   5.999   2.414   5.506  0.5175 -0.8763 -1.0735
 5482SOL    HW216736   5.946   2.326   5.633 -0.7361  0.8298 -0.3605
 5483SOL     OW16737   5.065   3.644   5.759 -0.2667 -0.2632  0.1810
 5483SOL    HW116738   4.974   3.606   5.747 -0.8899  1.1180  0.3576
 5483SOL    HW216739   5.107   3.606   5.842 -0.8241 -0.6137  0.3049
 5484SOL     OW16740   3.935   2.435   3.951 -0.4023  0.4714  0.0908
 5484SOL    HW116741   3.993   2.512   3.978 -1.0933  0.7521  0.8312
 5484SOL    HW216742   3.990   2.352   3.944  0.0852  0.7241  0.8505
 5485SOL     OW16743   5.460   2.505   5.121  0.0615 -0.5385  0.3200
 5485SOL    HW116744   5.501   2.524   5.211  0.0658 -0.3314  0.2744
 5485SOL    HW216745   5.492   2.573   5.055 -1.4677  0.4963  0.6023
 5486SOL     OW16746   3.195   4.121   0.145 -0.5713 -0.4793 -0.0005
 5486SOL    HW116747   3.260   4.048   0.166 -1.2119 -1.6587 -1.8438
 5486SOL    HW216748   3.203   4.194   0.213  1.6886 -1.2018  0.5827
 5487SOL     OW16749   4.801   5.506   4.101 -0.4267  0.0138  0.1411
 5487SOL    HW116750   4.764   5.577   4.041  1.8800 -0.4147 -1.9832
 5487SOL    HW216751   4.831   5.428   4.046  0.9543 -0.8192  1.9550
 5488SOL     OW16752   4.058   1.509   4.690  0.5953 -0.1031  0.3250
 5488SOL    HW116753   4.029   1.504   4.594  0.9004  0.1272  0.2174
 5488SOL    HW216754   3.998   1.453   4.746  0.3249 -0.1254  0.0171
 5489SOL     OW16755   0.075   3.039   3.588 -0.3984 -0.0567  0.0634
 5489SOL    HW116756   0.037   2.959   3.635 -1.6041 -0.3643 -1.3465
 5489SOL    HW216757   0.121   3.010   3.504  1.2983  0.5211  0.7634
 5490SOL     OW16758   3.745   2.880   3.635 -0.0791 -0.1550 -0.3567
 5490SOL    HW116759   3.714   2.798   3.587 -1.5048 -0.0216  0.3045
 5490SOL    HW216760   3.834   2.861   3.678 -0.7552 -1.6404  0.4839
 5491SOL     OW16761   4.323   2.911   3.516 -0.1971 -0.6000 -0.0494
 5491SOL    HW116762   4.419   2.888   3.501  0.1233  0.7044 -0.0910
 5491SOL    HW216763   4.265   2.844   3.469  0.6552 -2.0901  0.9649
 5492SOL     OW16764   3.397   4.113   5.169 -0.2250 -0.1659  0.7081
 5492SOL    HW116765   3.337   4.094   5.091  1.5521  2.3857 -1.5073
 5492SOL    HW216766   3.487   4.072   5.152  0.7821  2.0461  0.3271
 5493SOL     OW16767   4.644   3.303   3.956  0.3594 -0.2316 -0.0533
 5493SOL    HW116768   4.671   3.206   3.955  0.4996 -0.1931 -0.3475
 5493SOL    HW216769   4.553   3.312   3.915 -0.5420 -0.4764  1.7939
 5494SOL     OW16770   5.953   1.980   4.607  0.3139  0.0447 -0.0001
 5494SOL    HW116771   5.971   1.886   4.637  2.3108  0.1631 -0.6779
 5494SOL    HW216772   5.906   1.979   4.519  0.7694 -0.3388 -0.2421
 5495SOL     OW16773   4.214   3.338   5.806  0.7168  0.1370  0.3427
 5495SOL    HW116774   4.161   3.354   5.889 -0.4542  1.4426 -0.6034
 5495SOL    HW216775   4.270   3.256   5.817 -2.2401 -1.9447  1.0449
 5496SOL     OW16776   4.193   2.127   3.705 -0.1555 -0.2944 -0.3889
 5496SOL    HW116777   4.139   2.073   3.640 -2.1105  2.3213 -1.1463
 5496SOL    HW216778   4.219   2.213   3.662  1.0585  0.2753  1.3919
 5497SOL     OW16779   4.666   1.796   5.596 -0.1640  0.0793  0.6941
 5497SOL    HW116780   4.645   1.807   5.499  2.8199 -1.3251 -0.2102
 5497SOL    HW216781   4.609   1.724   5.634  0.2643 -1.0042 -0.6530
 5498SOL     OW16782   3.624   4.742   4.737 -0.2174 -0.3814  0.1979
 5498SOL    HW116783   3.583   4.816   4.684  0.1411  0.8598  1.5799
 5498SOL    HW216784   3.568   4.724   4.818  1.3407  0.6369  1.5738
 5499SOL     OW16785   5.835   2.004   4.364  0.0430  0.0586  0.1864
 5499SOL    HW116786   5.806   2.097   4.387 -2.3834 -0.0861 -1.8297
 5499SOL    HW216787   5.912   2.008   4.300  0.9332  0.5918  1.2538
 5500SOL     OW16788   5.446   3.774   5.776 -0.4360  0.0581  0.2812
 5500SOL    HW116789   5.488   3.850   5.726  0.4959 -0.1899  0.6553
 5500SOL    HW216790   5.428   3.803   5.871 -2.6880  0.7011 -0.2892
 5501SOL     OW16791   4.495   2.167   3.116 -0.2779  0.0193  0.1675
 5501SOL    HW116792   4.574   2.153   3.056 -0.4373  0.2998 -0.1091
 5501SOL    HW216793   4.414   2.186   3.061 -0.0267  2.3802  0.4989
 5502SOL     OW16794   4.528   1.027   3.700  0.0761  0.6797  0.1606
 5502SOL    HW116795   4.561   0.949   3.646 -1.7724  0.7782 -1.2439
 5502SOL    HW216796   4.548   1.012   3.796 -1.2767 -2.1621  0.0995
 5503SOL     OW16797   5.759   2.582   3.203  0.0200 -0.4956  0.2425
 5503SOL    HW116798   5.725   2.657   3.147 -0.6391 -0.4845  0.6378
 5503SOL    HW216799   5.717   2.587   3.294  2.1444  0.3475  1.2584
 5504SOL     OW16800   4.969   1.900   3.276  0.4058  0.2645 -0.0253
 5504SOL    HW116801   4.920   1.915   3.190  0.3191 -0.1901 -0.0609
 5504SOL    HW216802   4.986   1.802   3.288  1.4466  0.4244 -0.0862
 5505SOL     OW16803   4.581   1.802   5.336 -0.8031 -0.0999  0.3195
 5505SOL    HW116804   4.495   1.852   5.348  0.6381  2.6229  0.0225
 5505SOL    HW216805   4.623   1.828   5.249  0.4758 -1.1275  0.5985
 5506SOL     OW16806   4.100   2.633   4.027  0.0216  0.3666  0.2052
 5506SOL    HW116807   4.087   2.703   4.097  0.3113 -1.2416  1.9628
 5506SOL    HW216808   4.169   2.567   4.059  0.8817  0.1030 -2.0403
 5507SOL     OW16809   4.881   4.982   3.801  0.0166 -0.4093  0.2385
 5507SOL    HW116810   4.947   4.907   3.807  1.7151  0.6403 -2.9702
 5507SOL    HW216811   4.790   4.946   3.782  0.1292 -1.7398  1.9584
 5508SOL     OW16812   4.170   3.280   3.960 -0.1738 -0.1611  0.3229
 5508SOL    HW116813   4.109   3.329   3.898 -0.0862 -0.1779  0.2257
 5508SOL    HW216814   4.127   3.275   4.051  0.5005  1.4605  0.7580
 5509SOL     OW16815   4.594   3.910   4.155 -0.2512  0.0948 -0.2092
 5509SOL    HW116816   4.610   3.820   4.195  0.4001  0.5566  0.6127
 5509SOL    HW216817   4.675   3.966   4.167 -0.1829  0.3824 -1.8743
 5510SOL     OW16818   5.415   2.801   3.648 -0.4025  0.2808  0.0137
 5510SOL    HW116819   5.323   2.830   3.620 -0.6219 -0.2812  0.1522
 5510SOL    HW216820   5.465   2.880   3.684 -0.7480  0.6366 -0.2782
 5511SOL     OW16821   4.127   2.084   5.321  0.2404 -0.6711 -0.1943
 5511SOL    HW116822   4.066   2.157   5.354  1.9878 -0.0552  1.8510
 5511SOL    HW216823   4.074   2.019   5.267 -2.0376  0.3258  0.7122
 5512SOL     OW16824   3.716   1.476   5.925  0.2276  0.2811 -0.5599
 5512SOL    HW116825   3.651   1.552   5.930 -1.0362 -0.6262 -2.1995
 5512SOL    HW216826   3.688   1.404   5.989  0.7620  0.6920  0.1496
 5513SOL     OW16827   4.973   1.984   4.692 -0.4418 -0.1274 -0.6387
 5513SOL    HW116828   4.989   2.082   4.678  0.4416 -0.2981 -0.9618
 5513SOL    HW216829   4.957   1.966   4.789  0.8571  0.1633 -0.3490
 5514SOL     OW16830   3.525   2.146   3.842 -0.1562  0.1059  0.4410
 5514SOL    HW116831   3.582   2.211   3.892  0.6527  0.1821 -0.5438
 5514SOL    HW216832   3.432   2.182   3.835  0.5115  1.6986 -0.9898
 5515SOL     OW16833   4.378   2.259   5.180 -0.0202  0.7381  0.2633
 5515SOL    HW116834   4.465   2.217   5.206 -0.4636  0.8865  2.1442
 5515SOL    HW216835   4.305   2.223   5.239 -0.9127  2.0128 -0.0270
 5516SOL     OW16836   5.758   2.885   4.658 -0.1213  0.1230  0.0267
 5516SOL    HW116837   5.662   2.889   4.630  0.2894  4.2524 -1.4754
 5516SOL    HW216838   5.766   2.919   4.752 -0.0361  1.6429 -0.4982
 5517SOL     OW16839   4.767   3.225   3.180  0.2257 -0.5030  0.1439
 5517SOL    HW116840   4.759   3.288   3.103  0.3613 -2.0288 -1.1898
 5517SOL    HW216841   4.857   3.180   3.177  0.4238 -0.2407  1.4927
 5518SOL     OW16842   5.067   4.391   3.686  0.2094 -0.0506  0.2590
 5518SOL    HW116843   5.158   4.386   3.646 -0.1260  0.7528 -0.6283
 5518SOL    HW216844   5.036   4.298   3.708 -1.0843 -1.1223 -4.8056
 5519SOL     OW16845   5.540   4.147   4.024  0.7205 -0.2919 -0.3371
 5519SOL    HW116846   5.637   4.124   4.022  0.2605 -2.5404  0.0963
 5519SOL    HW216847   5.493   4.101   3.949 -0.5972 -2.6413  1.7499
 5520SOL     OW16848   5.481   1.936   3.513 -0.5989  0.2827  0.0875
 5520SOL    HW116849   5.391   1.931   3.556 -1.9920  0.8368 -2.5346
 5520SOL    HW216850   5.483   1.877   3.433  0.1740  2.7431 -1.8455
 5521SOL     OW16851   5.170   0.904   3.394 -0.1644 -0.0834  0.0643
 5521SOL    HW116852   5.166   0.867   3.301 -0.6291 -0.9001  0.3912
 5521SOL    HW216853   5.090   0.962   3.410  1.3420  2.4259 -0.9676
 5522SOL     OW16854   5.332   3.140   5.794 -0.1913 -0.3281 -0.1865
 5522SOL    HW116855   5.365   3.180   5.708  1.1586 -0.6702  0.1526
 5522SOL    HW216856   5.390   3.062   5.819 -1.3105 -0.9946  0.4187
 5523SOL     OW16857   4.325   2.820   0.748 -0.1200  0.0292 -0.4155
 5523SOL    HW116858   4.351   2.893   0.685  1.3006  0.2968  0.4279
 5523SOL    HW216859   4.241   2.777   0.716 -0.7077  1.6674 -1.2247
 5524SOL     OW16860   4.949   4.431   4.504 -0.1935  0.2974  0.1710
 5524SOL    HW116861   4.912   4.524   4.508  0.4457  0.5915 -0.4679
 5524SOL    HW216862   5.015   4.419   4.579  1.6639  1.2570 -1.2162
 5525SOL     OW16863   3.504   3.152   5.591 -0.6784 -0.4267 -0.1570
 5525SOL    HW116864   3.567   3.227   5.572 -0.7792 -0.1085  0.7156
 5525SOL    HW216865   3.447   3.176   5.670 -1.7082 -0.8205 -0.7697
 5526SOL     OW16866   4.636   3.282   4.676 -0.3668 -0.3216  0.0790
 5526SOL    HW116867   4.688   3.285   4.591 -0.8830  2.5761 -0.2146
 5526SOL    HW216868   4.542   3.313   4.660 -0.9613 -1.2909  1.4254
 5527SOL     OW16869   4.921   3.462   4.804 -0.4048  0.1758 -0.2752
 5527SOL    HW116870   4.844   3.525   4.809 -0.5548 -0.0511  2.9484
 5527SOL    HW216871   4.887   3.368   4.813  0.1617  0.0443  0.6362
 5528SOL     OW16872   4.674   2.611   4.373 -0.2301 -0.5799  0.0182
 5528SOL    HW116873   4.731   2.684   4.412 -1.1484 -0.4921  1.2742
 5528SOL    HW216874   4.646   2.637   4.280  0.9845 -0.2105 -0.2681
 5529SOL     OW16875   4.920   1.989   4.231  0.0032  0.3506 -0.0714
 5529SOL    HW116876   4.973   1.907   4.209 -1.6895 -0.2638 -2.1680
 5529SOL    HW216877   4.978   2.070   4.217  1.2131 -0.3843  0.4673
 5530SOL     OW16878   3.061   2.466   0.142  0.0611 -0.2525 -0.0410
 5530SOL    HW116879   3.090   2.559   0.166  0.9040 -0.0514 -1.6917
 5530SOL    HW216880   3.106   2.438   0.058 -1.7109 -1.4026 -0.6679
 5531SOL     OW16881   5.007   0.778   5.201  0.4125 -0.1769 -0.1872
 5531SOL    HW116882   5.095   0.750   5.162  0.3888 -1.8039  0.8278
 5531SOL    HW216883   5.016   0.868   5.244  1.4470 -0.0982 -0.5471
 5532SOL     OW16884   3.956   1.998   3.891 -0.1965  0.0223  0.6844
 5532SOL    HW116885   3.862   1.974   3.867 -0.5792 -0.3957  2.4933
 5532SOL    HW216886   3.962   2.096   3.910 -0.2141  0.0897  0.3459
 5533SOL     OW16887   3.825   2.463   4.223 -0.2576 -0.5377  0.2576
 5533SOL    HW116888   3.733   2.462   4.263 -0.1257 -0.8953  0.5582
 5533SOL    HW216889   3.817   2.470   4.124 -0.6281 -1.0764  0.2424
 5534SOL     OW16890   4.622   2.266   4.380 -0.0650 -0.1910  0.0454
 5534SOL    HW116891   4.636   2.232   4.287  1.2356  2.1545 -0.7032
 5534SOL    HW216892   4.548   2.332   4.381  0.2501  0.1582  0.5770
 5535SOL     OW16893   3.903   3.961   5.071 -0.6396  0.4577 -0.2051
 5535SOL    HW116894   3.814   3.929   5.037 -1.0053  1.0782  0.1423
 5535SOL    HW216895   3.888   4.034   5.137  0.1144  0.1231  0.3426
 5536SOL     OW16896   4.900   4.697   4.535 -0.1929 -0.4516  0.3895
 5536SOL    HW116897   4.972   4.745   4.485 -1.3595  0.9735  0.0179
 5536SOL    HW216898   4.853   4.760   4.596 -0.3872 -1.6261  1.4987
 5537SOL     OW16899   0.010   2.076   2.386  0.2688 -0.0231  0.4426
 5537SOL    HW116900   0.035   2.050   2.293  1.0105  2.5907 -0.1827
 5537SOL    HW216901  -0.020   2.172   2.387  0.3112  0.0322  2.9083
 5538SOL     OW16902   3.394   3.726   4.875 -0.3930  0.0219  0.0119
 5538SOL    HW116903   3.456   3.789   4.922  0.5928 -0.4913 -0.5892
 5538SOL    HW216904   3.446   3.659   4.824 -1.4489  0.1076 -1.2304
 5539SOL     OW16905   3.826   1.798   0.791 -0.4754  0.7760 -0.2721
 5539SOL    HW116906   3.731   1.814   0.765 -0.8533 -0.3287  0.3739
 5539SOL    HW216907   3.858   1.873   0.850 -0.5886  1.6971 -1.3547
 5540SOL     OW16908   5.053   2.718   4.636  0.3668  0.2224  0.4309
 5540SOL    HW116909   5.093   2.665   4.710 -1.2048 -0.1629  1.0443
 5540SOL    HW216910   4.964   2.754   4.664 -0.2218  0.1647 -1.2250
 5541SOL     OW16911   4.955   1.060   5.792 -0.2723  0.1124  0.3154
 5541SOL    HW116912   4.901   1.129   5.840  1.4973  2.5010 -0.8968
 5541SOL    HW216913   4.937   1.066   5.694  0.3052 -0.8061  0.1408
 5542SOL     OW16914   3.499   2.463   5.503 -0.3556  0.0384 -0.1611
 5542SOL    HW116915   3.497   2.485   5.601 -2.5236  0.3544 -0.2305
 5542SOL    HW216916   3.447   2.532   5.453  2.1679  0.8877 -1.8199
 5543SOL     OW16917   3.250   2.558   4.314  0.0295  0.1364 -0.2979
 5543SOL    HW116918   3.259   2.465   4.351 -0.6780 -0.3914 -1.4099
 5543SOL    HW216919   3.288   2.561   4.222  0.0273  0.9527 -0.2793
 5544SOL     OW16920   5.785   3.272   4.492  0.2627  0.2340 -0.2378
 5544SOL    HW116921   5.842   3.190   4.496  0.1705  0.2329  2.6325
 5544SOL    HW216922   5.829   3.345   4.543  1.3285  2.7852 -4.2911
 5545SOL     OW16923   4.842   1.904   3.971  0.0543  0.3521  0.3047
 5545SOL    HW116924   4.839   1.943   4.063  0.2731 -0.4720  0.6686
 5545SOL    HW216925   4.749   1.880   3.942 -0.0669  1.0122  0.1269
 5546SOL     OW16926   4.477   0.957   5.612 -0.3374  0.2324 -0.1446
 5546SOL    HW116927   4.493   0.865   5.575 -0.1129 -1.1449  3.0706
 5546SOL    HW216928   4.386   0.988   5.587 -0.6087 -1.0711 -0.8572
 5547SOL     OW16929   3.986   2.778   3.674 -0.0893 -0.0705  0.1311
 5547SOL    HW116930   3.961   2.682   3.674 -2.0145  0.3996 -0.0768
 5547SOL    HW216931   4.060   2.793   3.740 -0.2795 -1.5582  0.7090
 5548SOL     OW16932   4.002   3.382   3.744  1.0203 -0.3556  0.3524
 5548SOL    HW116933   4.061   3.429   3.678 -0.8340  1.3964 -0.1768
 5548SOL    HW216934   3.915   3.360   3.700  0.3171 -0.5334  1.8027
 5549SOL     OW16935   5.139   3.202   1.067  0.4016 -0.0398  0.4241
 5549SOL    HW116936   5.199   3.156   1.133 -0.5026 -0.1849  1.1572
 5549SOL    HW216937   5.063   3.142   1.043  0.7351 -0.0045 -0.7952
 5550SOL     OW16938   0.356   1.373   2.880 -0.1759  0.0574 -0.1526
 5550SOL    HW116939   0.339   1.289   2.933 -0.9707 -1.9982 -3.3475
 5550SOL    HW216940   0.454   1.386   2.869 -0.0506 -0.7412 -0.0509
 5551SOL     OW16941   5.729   2.583   4.796 -0.7555  0.4964 -0.2955
 5551SOL    HW116942   5.672   2.641   4.854 -0.9901  0.1625 -0.1890
 5551SOL    HW216943   5.778   2.640   4.729  0.0706  0.9691  0.6869
 5552SOL     OW16944   3.082   3.445   5.883  0.0518 -0.4082 -0.2392
 5552SOL    HW116945   3.068   3.542   5.860 -1.5547 -0.8150 -1.1756
 5552SOL    HW216946   3.064   3.390   5.802 -1.6725 -1.6515  0.9232
 5553SOL     OW16947   4.707   3.330   5.899 -0.1242  0.3092 -0.0354
 5553SOL    HW116948   4.672   3.341   5.992  1.9618  0.0283  0.8293
 5553SOL    HW216949   4.638   3.283   5.843 -1.1347 -0.1680  1.5348
 5554SOL     OW16950   0.657   4.236   5.214  0.1284  0.2590  0.6913
 5554SOL    HW116951   0.717   4.265   5.139 -2.0039 -2.4038 -2.3055
 5554SOL    HW216952   0.599   4.312   5.241  1.5506  1.5274  0.3512
 5555SOL     OW16953   3.509   2.807   5.104 -0.2573 -0.3656 -0.0689
 5555SOL    HW116954   3.431   2.827   5.044 -0.4662 -1.1197 -0.0620
 5555SOL    HW216955   3.582   2.765   5.051 -0.4890 -1.1476  0.2167
 5556SOL     OW16956   5.957   2.099   2.709  0.1870  0.0221  0.2208
 5556SOL    HW116957   5.926   2.178   2.761  0.2320 -0.4689  1.0213
 5556SOL    HW216958   5.962   2.122   2.612 -0.6050  0.7494  0.3375
 5557SOL     OW16959   4.927   3.977   3.908  0.2785 -0.0183 -0.7437
 5557SOL    HW116960   4.850   3.949   3.851 -0.9796 -0.4810  1.0832
 5557SOL    HW216961   4.894   4.037   3.981  1.8976  0.9253 -0.7520
 5558SOL     OW16962   4.744   2.546   5.357  0.6552 -0.2085 -0.5613
 5558SOL    HW116963   4.773   2.453   5.379  1.5128  0.1068 -0.3444
 5558SOL    HW216964   4.819   2.595   5.314  0.6101  0.7563  0.4191
 5559SOL     OW16965   3.412   2.244   4.820 -0.4018 -0.1420 -0.2702
 5559SOL    HW116966   3.434   2.169   4.882  0.6820 -0.6005 -1.1692
 5559SOL    HW216967   3.413   2.330   4.870 -1.6196 -0.7096  0.7661
 5560SOL     OW16968   4.451   1.916   4.319  0.7095  0.1432 -0.1897
 5560SOL    HW116969   4.456   1.967   4.405 -2.4039 -1.1079  0.8728
 5560SOL    HW216970   4.500   1.829   4.329 -2.9165 -1.8923  1.9636
 5561SOL     OW16971   0.143   2.007   0.667  0.3247 -0.2229 -0.1225
 5561SOL    HW116972   0.130   1.911   0.644  2.5034 -0.4910 -0.5210
 5561SOL    HW216973   0.179   2.015   0.760  1.2019  0.0889 -0.4720
 5562SOL     OW16974   4.532   2.075   5.599 -0.0840  0.0186  0.1477
 5562SOL    HW116975   4.571   2.157   5.641 -0.1065  0.9713 -1.5977
 5562SOL    HW216976   4.591   1.997   5.618  0.8687  0.7761  0.3921
 5563SOL     OW16977   3.446   2.384   4.072 -0.4218 -0.2008 -0.3585
 5563SOL    HW116978   3.506   2.394   3.993 -1.6647 -0.7995 -1.4158
 5563SOL    HW216979   3.489   2.324   4.139 -0.4742 -1.9274 -1.7943
 5564SOL     OW16980   2.210   3.728   3.912  0.0278  0.3241 -0.0412
 5564SOL    HW116981   2.195   3.794   3.985 -0.0719 -0.4033  0.6043
 5564SOL    HW216982   2.271   3.656   3.944  2.5591  1.6055 -1.6475
 5565SOL     OW16983   3.253   4.015   4.977  0.0503 -0.4208 -0.1189
 5565SOL    HW116984   3.185   3.953   5.016  1.5105 -1.7875  0.3636
 5565SOL    HW216985   3.272   3.991   4.882 -1.7667  1.4266 -1.0369
 5566SOL     OW16986   5.337   3.473   5.169 -0.4280  0.2084  0.0707
 5566SOL    HW116987   5.274   3.456   5.093 -0.0417 -0.6138 -0.0852
 5566SOL    HW216988   5.309   3.555   5.219 -1.2251  0.2299 -0.3981
 5567SOL     OW16989   3.229   1.970   5.751  0.4278 -0.4531  0.7307
 5567SOL    HW116990   3.236   2.070   5.750  1.5707 -0.5102  1.1983
 5567SOL    HW216991   3.162   1.942   5.820  0.3063 -0.0153  0.7903
 5568SOL     OW16992   3.092   2.728   0.244  0.3972  0.2444 -0.0452
 5568SOL    HW116993   3.085   2.775   0.331  3.6744  0.0226  0.4317
 5568SOL    HW216994   3.102   2.794   0.170  0.0469  0.3571  0.0028
 5569SOL     OW16995   3.978   1.938   4.281 -0.1950 -0.0401  0.4896
 5569SOL    HW116996   3.963   1.891   4.194  3.1699 -0.4555  0.0078
 5569SOL    HW216997   3.979   1.870   4.355  0.2419 -0.1318  0.4001
 5570SOL     OW16998   3.724   2.048   3.638 -0.5466  0.2125 -0.0124
 5570SOL    HW116999   3.765   2.126   3.591  0.2332 -0.5775 -0.6825
 5570SOL    HW217000   3.642   2.078   3.687 -0.7816  1.2704 -1.0060
 5571SOL     OW17001   4.056   1.970   4.729 -0.2971  0.0530 -0.0140
 5571SOL    HW117002   4.060   2.052   4.672 -0.8446  0.4111  0.4468
 5571SOL    HW217003   4.146   1.927   4.732  0.0272  0.7006 -0.1742
 5572SOL     OW17004   3.516   1.999   4.574 -0.1227  0.0972  0.5512
 5572SOL    HW117005   3.528   1.996   4.474 -0.7568  0.8168  0.4492
 5572SOL    HW217006   3.569   2.075   4.611  0.7476 -0.6462  0.8702
 5573SOL     OW17007   2.392   1.320   5.847 -0.2309 -0.7532 -0.8831
 5573SOL    HW117008   2.474   1.265   5.863 -1.0334 -1.4664  1.1304
 5573SOL    HW217009   2.321   1.263   5.807 -0.8964 -1.1224  0.7386
 5574SOL     OW17010   4.614   2.322   5.660 -0.2898  0.3022 -0.7567
 5574SOL    HW117011   4.598   2.388   5.588  1.2794 -0.4775 -1.8721
 5574SOL    HW217012   4.697   2.346   5.710 -1.1580  0.6265  0.5793
 5575SOL     OW17013   4.135   2.485   5.263 -0.6712 -0.0683  0.1823
 5575SOL    HW117014   4.092   2.567   5.226  1.5539  0.0130 -2.4905
 5575SOL    HW217015   4.234   2.489   5.248 -0.4797 -3.2730 -0.1592
 5576SOL     OW17016   3.631   3.231   4.959 -0.4781  0.6683  0.3216
 5576SOL    HW117017   3.594   3.170   5.029  0.2400 -1.0024 -0.6881
 5576SOL    HW217018   3.579   3.219   4.874 -1.1282  2.4234  0.4360
 5577SOL     OW17019   5.875   4.218   3.461  0.2037  0.2311  0.0336
 5577SOL    HW117020   5.787   4.174   3.477 -0.5472  1.5075 -0.4970
 5577SOL    HW217021   5.932   4.209   3.543 -0.6482 -0.0539  0.6050
 5578SOL     OW17022   4.345   4.023   4.250 -0.1063  0.1468  0.0855
 5578SOL    HW117023   4.274   3.969   4.206 -0.6274 -0.6895  1.8399
 5578SOL    HW217024   4.435   3.989   4.224 -0.2666  1.4844 -2.4883
 5579SOL     OW17025   3.718   2.736   4.935 -0.5149  0.6945  0.5748
 5579SOL    HW117026   3.801   2.744   4.989 -0.6899 -0.9441  1.1474
 5579SOL    HW217027   3.705   2.820   4.881  2.4917  0.3169 -0.9783
 5580SOL     OW17028   4.234   3.593   4.076  0.1836  0.2232  0.0009
 5580SOL    HW117029   4.273   3.506   4.107  0.9174  0.4340 -0.3061
 5580SOL    HW217030   4.286   3.626   3.997 -1.4854 -0.1932 -1.3493
 5581SOL     OW17031   2.974   3.837   4.762  0.2366 -0.3999  0.4655
 5581SOL    HW117032   2.895   3.854   4.703 -1.3813 -1.6506  2.1619
 5581SOL    HW217033   2.976   3.740   4.788  0.2831  0.2694  3.2199
 5582SOL     OW17034   4.130   4.038   5.968 -0.1545 -0.1045  0.1529
 5582SOL    HW117035   4.126   4.034   5.868  0.1614  0.2009  0.1265
 5582SOL    HW217036   4.038   4.053   6.004 -0.2136  0.2159 -0.1180
 5583SOL     OW17037   0.296   0.505   4.046  0.0765 -0.3034 -0.2439
 5583SOL    HW117038   0.324   0.580   4.106  0.3096 -1.3417  0.9894
 5583SOL    HW217039   0.364   0.432   4.050  0.5288 -0.0785 -2.4413
 5584SOL     OW17040   5.386   3.744   3.750 -0.3705  0.1641  0.0269
 5584SOL    HW117041   5.296   3.701   3.742 -1.0460  1.0438  2.0603
 5584SOL    HW217042   5.426   3.719   3.839  0.4138  1.5068  0.0737
 5585SOL     OW17043   2.614   4.882   4.425 -0.0393 -0.4269  0.2620
 5585SOL    HW117044   2.574   4.907   4.513  0.5732  1.5977  0.0086
 5585SOL    HW217045   2.541   4.869   4.358 -0.4301 -0.4681  0.6879
 5586SOL     OW17046   3.580   3.525   4.286  0.3731 -0.1008 -0.1526
 5586SOL    HW117047   3.677   3.549   4.281 -0.1344  2.0761 -0.7013
 5586SOL    HW217048   3.545   3.547   4.377  0.8637 -3.2119  0.9234
 5587SOL     OW17049   4.063   3.780   4.949 -0.4037 -0.1543  0.3943
 5587SOL    HW117050   4.021   3.855   4.998  1.7816  0.7810  0.9378
 5587SOL    HW217051   4.139   3.814   4.894  0.0019 -1.8362 -0.1534
 5588SOL     OW17052   3.823   3.620   4.250 -0.4484 -0.1099  0.1555
 5588SOL    HW117053   3.826   3.631   4.150  0.0331  1.6100  0.3174
 5588SOL    HW217054   3.914   3.595   4.283  0.5268  3.4114  0.4908
 5589SOL     OW17055   5.120   4.117   4.436  0.6083  0.7148 -0.3835
 5589SOL    HW117056   5.175   4.040   4.471 -0.4776 -1.0942 -2.3894
 5589SOL    HW217057   5.032   4.119   4.483  0.4591  0.4264 -0.6467
 5590SOL     OW17058   5.354   2.623   3.447 -0.7006  0.1765  0.9636
 5590SOL    HW117059   5.301   2.551   3.491  1.8743 -1.8445  1.0280
 5590SOL    HW217060   5.388   2.687   3.516  0.6001 -1.1134  1.5897
 5591SOL     OW17061   4.006   1.882   5.146  0.2795  0.1209  0.3920
 5591SOL    HW117062   3.948   1.900   5.067  0.7433  0.0468  0.0340
 5591SOL    HW217063   3.986   1.791   5.183  0.1966  0.0816  0.2504
 5592SOL     OW17064   4.959   3.306   3.604 -0.3688 -0.7557  0.0697
 5592SOL    HW117065   5.024   3.266   3.540 -0.8799 -2.6306  0.6380
 5592SOL    HW217066   5.004   3.324   3.691  0.0530  0.7138 -0.4312
 5593SOL     OW17067   3.659   3.252   4.497  0.2538 -0.3123 -0.2154
 5593SOL    HW117068   3.684   3.155   4.496 -0.0007 -0.3859  0.3134
 5593SOL    HW217069   3.700   3.296   4.577  1.4644  0.3195 -1.1606
 5594SOL     OW17070   5.565   3.976   4.235 -0.4689  0.3052  0.0280
 5594SOL    HW117071   5.486   3.915   4.230 -0.4768  0.3998 -1.3749
 5594SOL    HW217072   5.556   4.048   4.166  0.6394  0.5634  0.1396
 5595SOL     OW17073   5.435   3.719   3.997 -0.0280  0.4542 -0.5558
 5595SOL    HW117074   5.385   3.786   4.051  0.8050  1.1731 -0.6473
 5595SOL    HW217075   5.520   3.696   4.044 -0.7092 -1.2276 -0.0849
 5596SOL     OW17076   4.271   1.868   5.028  0.3959  0.1710 -0.0727
 5596SOL    HW117077   4.190   1.837   5.078  0.2597  0.4690 -0.1079
 5596SOL    HW217078   4.272   1.968   5.025 -0.6214  0.1619 -2.3474
 5597SOL     OW17079   4.931   4.802   4.161 -0.3856 -0.1799  0.3604
 5597SOL    HW117080   4.836   4.770   4.152 -0.1849 -0.9299  0.7871
 5597SOL    HW217081   4.935   4.900   4.144 -1.1299 -0.2573 -0.3576
 5598SOL     OW17082   4.193   3.082   4.749  0.4561 -0.2957  0.3858
 5598SOL    HW117083   4.119   3.018   4.766  0.7233 -0.6078  0.3771
 5598SOL    HW217084   4.279   3.045   4.785  0.2898  0.9214  2.2298
 5599SOL     OW17085   5.328   2.317   5.852 -0.1115 -0.5146 -0.0729
 5599SOL    HW117086   5.363   2.230   5.887  0.5409  0.0889  0.8313
 5599SOL    HW217087   5.284   2.302   5.764  0.3926 -1.6880 -0.1499
 5600SOL     OW17088   4.054   4.144   4.375  0.7192 -0.0821  0.3511
 5600SOL    HW117089   4.092   4.213   4.313  0.5522 -1.3680 -1.2364
 5600SOL    HW217090   3.958   4.166   4.394  0.6301  0.0534 -0.2389
 5601SOL     OW17091   4.478   2.784   5.040 -0.1827 -0.2890  0.4753
 5601SOL    HW117092   4.480   2.685   5.051  1.6486 -0.3078  0.2009
 5601SOL    HW217093   4.571   2.821   5.044 -0.8293  1.4413  0.6745
 5602SOL     OW17094   5.154   2.532   3.841  0.3546  0.4764  0.3041
 5602SOL    HW117095   5.083   2.462   3.854  1.6490 -0.7813  0.8259
 5602SOL    HW217096   5.165   2.582   3.927 -1.4277  2.2248 -0.4073
 5603SOL     OW17097   3.930   2.678   5.240 -0.4069  0.5726  0.4780
 5603SOL    HW117098   3.853   2.614   5.242 -0.1377  0.2564  0.5530
 5603SOL    HW217099   3.919   2.745   5.314  0.1933 -0.3986  1.4829
 5604SOL     OW17100   5.394   2.065  -0.012  0.6873  0.4953 -0.2934
 5604SOL    HW117101   5.438   2.071   0.078  0.0619  1.8466 -0.0549
 5604SOL    HW217102   5.305   2.019  -0.002  1.4141 -1.0548 -0.5635
 5605SOL     OW17103   4.293   2.925   4.261  0.1512 -0.3945  0.2342
 5605SOL    HW117104   4.201   2.886   4.255  0.2087 -0.5092  0.0846
 5605SOL    HW217105   4.326   2.946   4.169  0.3742 -0.5947  0.2663
 5606SOL     OW17106   5.842   2.806   5.400  0.1920  0.1934 -0.7319
 5606SOL    HW117107   5.830   2.904   5.383  0.6246 -0.0014 -2.3692
 5606SOL    HW217108   5.835   2.788   5.498 -0.1804  1.8156 -0.4291
 5607SOL     OW17109   3.111   1.247   3.585 -0.2736  0.4026 -0.3174
 5607SOL    HW117110   3.171   1.183   3.537 -1.5892  0.7464 -2.5537
 5607SOL    HW217111   3.147   1.340   3.576 -1.2418  0.6519 -1.9435
 5608SOL     OW17112   4.065   2.752   4.470 -0.3726 -0.2230 -0.0059
 5608SOL    HW117113   4.052   2.851   4.468 -3.3012 -0.5207 -1.2575
 5608SOL    HW217114   4.000   2.711   4.534  0.3944 -1.3882  0.0570
 5609SOL     OW17115   4.052   3.814   5.537 -0.0033  0.2694 -0.5018
 5609SOL    HW117116   4.112   3.840   5.462 -0.7959  0.6203 -1.0217
 5609SOL    HW217117   4.023   3.719   5.525 -0.1529  0.3341 -0.6609
 5610SOL     OW17118   3.780   3.270   4.233 -0.0389 -0.1555  0.1875
 5610SOL    HW117119   3.771   3.307   4.141  3.5693 -0.2558 -0.3279
 5610SOL    HW217120   3.711   3.312   4.293 -1.2017  1.3601 -2.0926
 5611SOL     OW17121   4.436   2.987   4.872  0.5731 -0.1458 -0.0088
 5611SOL    HW117122   4.442   2.904   4.927  3.2196 -0.4701 -0.6633
 5611SOL    HW217123   4.502   2.982   4.797  0.3026  2.2586 -0.4803
 5612SOL     OW17124   5.185   4.979   4.549 -0.0011 -0.0460  0.7575
 5612SOL    HW117125   5.169   4.910   4.479  1.7642  1.3276 -1.1298
 5612SOL    HW217126   5.118   5.052   4.540  0.1622  0.0801  0.5576
 5613SOL     OW17127   1.856   2.316   5.818  0.0808  0.3245 -0.3686
 5613SOL    HW117128   1.896   2.245   5.875 -0.5055  0.0236 -0.3201
 5613SOL    HW217129   1.879   2.406   5.856 -2.0123  0.1239  1.6050
 5614SOL     OW17130   4.905   2.468   5.744 -0.2890 -0.2998  0.2086
 5614SOL    HW117131   4.920   2.421   5.657 -1.3378 -1.5255  0.6601
 5614SOL    HW217132   4.987   2.519   5.769  0.1549 -0.2263 -1.3091
 5615SOL     OW17133   5.383   2.084   3.854 -0.0865 -0.0192 -0.1441
 5615SOL    HW117134   5.458   2.020   3.864  0.0783  0.2925  0.6981
 5615SOL    HW217135   5.321   2.052   3.782  0.7511 -0.3633 -0.7282
 5616SOL     OW17136   4.254   2.075   3.399  1.0007  0.6823  0.6534
 5616SOL    HW117137   4.295   2.014   3.331 -1.5380 -0.5815  0.1436
 5616SOL    HW217138   4.177   2.029   3.443 -0.6026  3.2682  0.7600
 5617SOL     OW17139   0.698   3.774   4.983 -0.5814 -0.0809 -0.2021
 5617SOL    HW117140   0.738   3.732   4.901  1.3188  1.5346 -0.1709
 5617SOL    HW217141   0.601   3.794   4.966 -1.0852 -2.6957 -0.8482
 5618SOL     OW17142   5.079   2.741   5.489  0.7149 -0.2011  0.1292
 5618SOL    HW117143   4.991   2.747   5.538 -0.2550  1.7265 -1.6817
 5618SOL    HW217144   5.146   2.799   5.534 -0.0429  1.2077 -0.4767
 5619SOL     OW17145   3.865   3.008   3.112  0.3068  0.5320 -0.1965
 5619SOL    HW117146   3.793   2.949   3.151 -0.7651  1.2525 -1.0379
 5619SOL    HW217147   3.831   3.101   3.105  1.3202  0.8739 -0.6807
 5620SOL     OW17148   4.522   4.253   4.358  0.1437 -0.1025 -0.1452
 5620SOL    HW117149   4.498   4.317   4.286  0.5268 -1.2244 -1.3060
 5620SOL    HW217150   4.459   4.175   4.356  1.8079 -1.5031 -1.1218
 5621SOL     OW17151   3.384   3.272   4.834  0.2808  0.0860  0.5535
 5621SOL    HW117152   3.303   3.252   4.777 -0.3095 -0.0894  1.4306
 5621SOL    HW217153   3.380   3.216   4.917  0.9869  0.5399  0.8981
 5622SOL     OW17154   5.493   1.893   5.101  0.3692 -0.0082 -0.4693
 5622SOL    HW117155   5.403   1.888   5.059  0.2363  0.9418 -0.3192
 5622SOL    HW217156   5.492   1.962   5.174  0.7127 -1.2792  0.7840
 5623SOL     OW17157   4.544   2.686   3.047 -0.1549 -0.1196 -0.6133
 5623SOL    HW117158   4.465   2.640   3.086 -0.6681  0.5682 -0.8172
 5623SOL    HW217159   4.612   2.702   3.118 -0.3459 -0.4135 -0.3630
 5624SOL     OW17160   4.409   4.080   5.661 -0.0502 -0.5136  0.1946
 5624SOL    HW117161   4.315   4.075   5.697 -0.6558  0.4088 -1.1647
 5624SOL    HW217162   4.446   3.987   5.655 -0.1965 -0.7612  2.3876
 5625SOL     OW17163   3.618   3.354   5.416  0.0239 -0.7212  0.4780
 5625SOL    HW117164   3.646   3.446   5.444 -1.4863 -0.4918  1.3613
 5625SOL    HW217165   3.566   3.358   5.331 -1.7875 -0.4514  1.5423
 5626SOL     OW17166   3.771   5.118   4.503 -0.2324  1.1169  0.4099
 5626SOL    HW117167   3.696   5.056   4.521  0.9865 -0.0361  1.7521
 5626SOL    HW217168   3.806   5.102   4.410 -1.2608  1.2998 -0.0246
 5627SOL     OW17169   4.702   2.556   0.825  0.1410  0.1612 -0.2935
 5627SOL    HW117170   4.771   2.509   0.771  1.5072  2.0879 -0.3183
 5627SOL    HW217171   4.648   2.616   0.767 -0.6893 -0.3379 -0.0553
 5628SOL     OW17172   3.981   2.401   4.444  0.2361 -0.0748 -0.6674
 5628SOL    HW117173   3.942   2.434   4.358  0.4075 -0.4030 -0.8709
 5628SOL    HW217174   3.915   2.416   4.518  0.6655  1.6031 -0.5789
 5629SOL     OW17175   4.598   3.026   4.313 -0.1075  0.4824 -0.1974
 5629SOL    HW117176   4.508   3.004   4.352  0.6423  0.8143  1.8778
 5629SOL    HW217177   4.595   3.016   4.214 -2.1186 -0.5888 -0.0817
 5630SOL     OW17178   5.422   1.900   4.185  0.2004  0.4952 -0.3495
 5630SOL    HW117179   5.441   1.997   4.169 -0.5940  0.7556  0.2169
 5630SOL    HW217180   5.456   1.874   4.275 -0.8907  0.6412  0.1266
 5631SOL     OW17181   3.629   4.101   5.005  0.1232  0.0082 -0.3031
 5631SOL    HW117182   3.568   4.145   4.939  1.0169 -0.3758 -1.4238
 5631SOL    HW217183   3.637   4.003   4.982 -0.7029 -0.4566  1.2753
 5632SOL     OW17184   5.781   1.132   5.530  0.1164 -0.0938 -0.4208
 5632SOL    HW117185   5.682   1.147   5.521 -0.0680 -1.0407 -0.0283
 5632SOL    HW217186   5.798   1.063   5.600  1.1416  1.1106  0.5636
 5633SOL     OW17187   4.803   1.923   4.480 -0.3331  0.0583 -0.0804
 5633SOL    HW117188   4.885   1.923   4.423 -1.1931  0.7618 -1.3684
 5633SOL    HW217189   4.825   1.959   4.571  0.5560  1.3690 -0.7830
 5634SOL     OW17190   3.564   2.756   4.486  0.0857  0.3809  0.0349
 5634SOL    HW117191   3.629   2.832   4.482  0.5405  0.0900  1.4634
 5634SOL    HW217192   3.566   2.714   4.576 -4.9711  2.9530  1.7829
 5635SOL     OW17193   4.619   3.872   5.586 -0.3243  0.1792 -0.0337
 5635SOL    HW117194   4.688   3.942   5.606 -0.7140  0.6866 -0.4466
 5635SOL    HW217195   4.587   3.831   5.671  1.1384 -0.7136  0.1396
 5636SOL     OW17196   5.318   2.761   3.192  0.2488 -0.3818  0.1317
 5636SOL    HW117197   5.411   2.763   3.154  0.8286  0.8449  1.4799
 5636SOL    HW217198   5.323   2.739   3.290 -0.6544  1.5893  0.6833
 5637SOL     OW17199   4.084   2.223   3.930  0.5792 -0.1438 -0.1616
 5637SOL    HW117200   4.145   2.183   3.999  1.3217  0.8958 -0.1896
 5637SOL    HW217201   4.124   2.209   3.839  0.0685 -0.6874 -0.3077
 5638SOL     OW17202   5.897   1.423   5.311 -0.2432  0.1428  0.4210
 5638SOL    HW117203   5.839   1.353   5.270 -0.1635  1.2894 -1.7439
 5638SOL    HW217204   5.990   1.387   5.320 -0.3041 -0.1879 -0.2353
 5639SOL     OW17205   5.112   2.690   3.615 -0.0488  0.5968  0.0872
 5639SOL    HW117206   5.116   2.790   3.622 -1.2183  0.5120  2.5869
 5639SOL    HW217207   5.168   2.649   3.687  1.1064 -0.6357 -1.4086
 5640SOL     OW17208   4.649   3.880   4.452  0.0316  0.8403  0.9438
 5640SOL    HW117209   4.737   3.928   4.448  0.4759 -0.0159  0.1635
 5640SOL    HW217210   4.646   3.810   4.381 -2.2843  2.5120 -0.7726
 5641SOL     OW17211   4.706   2.051   1.098  0.0795 -0.2892  0.5403
 5641SOL    HW117212   4.698   1.971   1.039 -0.8959 -0.4404  0.8619
 5641SOL    HW217213   4.662   2.032   1.186 -2.1032  1.3088 -0.1141
 5642SOL     OW17214   5.604   2.749   0.626  0.1554  0.2671 -0.0040
 5642SOL    HW117215   5.633   2.829   0.679  0.7187 -0.3062  0.5608
 5642SOL    HW217216   5.522   2.710   0.667  1.2418 -0.8612  1.1572
 5643SOL     OW17217   4.239   3.800   0.699 -0.3416 -0.2615  0.3929
 5643SOL    HW117218   4.281   3.880   0.741 -1.1482  0.2355  0.2752
 5643SOL    HW217219   4.209   3.823   0.607 -1.5992 -0.3507  0.7591
 5644SOL     OW17220   4.409   4.022   4.919 -0.3477  0.0348  0.2482
 5644SOL    HW117221   4.496   4.000   4.874 -0.4847 -0.0538  0.0258
 5644SOL    HW217222   4.334   3.975   4.872 -0.5145  0.0963  0.4507
 5645SOL     OW17223   5.713   3.000   0.208 -0.7638  0.1194  0.0207
 5645SOL    HW117224   5.748   3.056   0.283 -1.1108 -1.2447  1.2258
 5645SOL    HW217225   5.641   2.940   0.241 -0.6998 -0.7442 -1.3344
 5646SOL     OW17226   3.036   3.252   0.060 -0.3098 -0.3196 -0.1873
 5646SOL    HW117227   3.033   3.331  -0.001 -1.3565  0.4128  0.7981
 5646SOL    HW217228   3.126   3.248   0.105 -1.8890  3.6365  3.9936
 5647SOL     OW17229   4.776   3.000   5.806  0.0738 -0.0841 -0.3152
 5647SOL    HW117230   4.830   3.080   5.832 -0.5845  0.4403 -0.5224
 5647SOL    HW217231   4.682   3.011   5.839  0.6563 -2.1922  2.4541
 5648SOL     OW17232   0.563   2.830   5.771  0.4709  0.1455 -0.3568
 5648SOL    HW117233   0.588   2.841   5.867  1.9441  0.5237 -0.7642
 5648SOL    HW217234   0.478   2.880   5.753  0.4802  0.5313  0.6138
 5649SOL     OW17235   5.163   2.573   4.866  0.3107 -0.1688 -0.0764
 5649SOL    HW117236   5.150   2.475   4.882  0.8848 -0.0392  1.3379
 5649SOL    HW217237   5.250   2.602   4.905  0.0848  0.9295 -0.3579
 5650SOL     OW17238   4.179   2.127   0.693  0.1371 -0.0286 -0.2419
 5650SOL    HW117239   4.259   2.088   0.647 -0.1782 -2.5705  1.2330
 5650SOL    HW217240   4.207   2.209   0.744  0.9100  1.5960 -3.0331
 5651SOL     OW17241   4.229   1.046   5.563 -0.0250  0.3500 -0.2168
 5651SOL    HW117242   4.201   0.954   5.539  0.2700  0.0045  0.7177
 5651SOL    HW217243   4.189   1.071   5.652  1.7121  0.2592  0.6225
 5652SOL     OW17244   3.607   2.222   5.590  0.2218 -0.1900 -0.2142
 5652SOL    HW117245   3.556   2.297   5.548 -0.2690 -1.2666 -1.6233
 5652SOL    HW217246   3.647   2.164   5.518  1.3798 -0.7573  0.8433
 5653SOL     OW17247   4.911   3.554   0.755 -0.1808  0.2551  0.2254
 5653SOL    HW117248   4.818   3.580   0.780  0.6200  0.8084  2.9660
 5653SOL    HW217249   4.975   3.625   0.785  1.2431 -0.5866 -0.6637
 5654SOL     OW17250   5.713   4.388   4.440 -0.3828 -0.0842  0.2748
 5654SOL    HW117251   5.620   4.357   4.419 -0.0838 -1.2857  0.6256
 5654SOL    HW217252   5.777   4.348   4.375 -0.2520  1.8858 -0.8462
 5655SOL     OW17253   4.081   3.598   0.214  0.4761 -0.0353 -0.7829
 5655SOL    HW117254   4.096   3.685   0.167 -0.8623  0.9025  0.4612
 5655SOL    HW217255   4.010   3.609   0.284  1.2781 -1.7763  0.3791
 5656SOL     OW17256   3.693   2.913   0.247  0.3301  0.4607  0.6324
 5656SOL    HW117257   3.749   2.830   0.244 -1.9917 -1.1940 -1.3621
 5656SOL    HW217258   3.616   2.899   0.309 -1.1893  0.2461 -1.1976
 5657SOL     OW17259   4.508   3.055   5.858 -0.3346  0.9790 -0.5586
 5657SOL    HW117260   4.538   3.117   5.786 -0.1911  0.0248 -1.3379
 5657SOL    HW217261   4.409   3.064   5.871 -0.4643  0.7361 -1.3058
 5658SOL     OW17262   4.490   2.032   4.568 -0.4116 -0.4599 -0.3230
 5658SOL    HW117263   4.498   2.126   4.535  0.0141  0.3372  1.9320
 5658SOL    HW217264   4.581   1.995   4.587 -0.5821 -1.3125 -1.0956
 5659SOL     OW17265   5.426   3.169   5.176 -0.0079  0.0123 -0.0129
 5659SOL    HW117266   5.505   3.115   5.203  1.1222  1.9477  0.7941
 5659SOL    HW217267   5.450   3.227   5.098 -0.8714  0.0735 -0.2486
 5660SOL     OW17268   0.319   2.798   0.644  0.1955 -0.0579 -0.1117
 5660SOL    HW117269   0.415   2.772   0.657 -0.0649 -0.6484  0.6727
 5660SOL    HW217270   0.282   2.748   0.566  0.1341 -0.9063  0.4495
 5661SOL     OW17271   4.137   3.781   6.001 -0.1639 -0.9421 -0.4414
 5661SOL    HW117272   4.140   3.879   5.982  1.4135 -0.7164  0.7227
 5661SOL    HW217273   4.227   3.741   5.984  0.0561 -1.5805  1.8751
 5662SOL     OW17274   0.315   3.699   5.992  0.2383 -0.2643 -0.2504
 5662SOL    HW117275   0.313   3.784   6.045 -1.5794 -0.6245  0.3387
 5662SOL    HW217276   0.252   3.706   5.915  1.6972 -0.3255 -1.4982
 5663SOL     OW17277   3.937   2.436   0.389  0.1070 -0.0059 -0.2720
 5663SOL    HW117278   3.907   2.446   0.294 -1.1821  0.0737  0.1120
 5663SOL    HW217279   3.901   2.512   0.443  1.7437  0.5465  0.0871
 5664SOL     OW17280   3.491   1.505   5.673  0.2643 -0.1274 -0.1806
 5664SOL    HW117281   3.490   1.405   5.683 -0.1134 -0.1249 -0.2053
 5664SOL    HW217282   3.580   1.540   5.702  0.4158 -0.4772 -0.2204
 5665SOL     OW17283   4.833   3.048   0.121 -0.3562 -0.0340 -0.4835
 5665SOL    HW117284   4.867   3.042   0.215 -0.4721 -0.8588 -0.4933
 5665SOL    HW217285   4.774   3.129   0.112 -0.1684  0.1690  0.0955
 5666SOL     OW17286   5.641   3.136   5.971  0.3619  0.3668 -0.5119
 5666SOL    HW117287   5.559   3.096   5.929  0.3734 -0.6773  0.4030
 5666SOL    HW217288   5.668   3.080   6.049  3.1039 -0.4828 -1.9311
 5667SOL     OW17289   4.402   0.396   1.197  0.6966 -0.2465 -0.2822
 5667SOL    HW117290   4.353   0.381   1.112 -0.1645  0.3755  0.0850
 5667SOL    HW217291   4.420   0.308   1.242 -2.2364 -0.4257  0.7430
 5668SOL     OW17292   5.852   2.691   0.490 -0.4506  0.3754 -0.2636
 5668SOL    HW117293   5.906   2.626   0.543  0.5417 -1.3813 -3.1544
 5668SOL    HW217294   5.756   2.684   0.517 -0.0858 -0.9028  0.8125
 5669SOL     OW17295   3.748   3.578   5.686 -0.2818 -0.5030 -0.0089
 5669SOL    HW117296   3.754   3.481   5.710  2.5394 -0.6273 -0.7955
 5669SOL    HW217297   3.806   3.632   5.747  1.5298  0.0543 -2.0549
 5670SOL     OW17298   2.566   3.350   5.432 -0.1036 -0.2302 -0.9577
 5670SOL    HW117299   2.492   3.284   5.443 -1.1294  1.0995  0.4650
 5670SOL    HW217300   2.537   3.423   5.370 -0.2118  0.5718  0.0161
 5671SOL     OW17301   4.624   2.869   1.165  0.3839  0.2436  0.6789
 5671SOL    HW117302   4.592   2.932   1.236  1.0618 -0.5357  1.7207
 5671SOL    HW217303   4.547   2.812   1.134  0.1069  0.4964  0.8938
 5672SOL     OW17304   3.454   1.414   0.850 -0.1978 -0.1245  0.0640
 5672SOL    HW117305   3.466   1.330   0.797 -1.1231  0.4208 -1.0523
 5672SOL    HW217306   3.413   1.393   0.938 -0.2277 -0.8650 -0.1221
 5673SOL     OW17307   5.667   2.445   0.249  0.0709  0.1873 -0.3958
 5673SOL    HW117308   5.755   2.404   0.269 -0.2415  0.6350  2.2446
 5673SOL    HW217309   5.671   2.493   0.161  1.4867 -2.3164 -1.8216
 5674SOL     OW17310   3.513   4.179   0.328  0.4646 -0.4766 -0.2938
 5674SOL    HW117311   3.500   4.111   0.256  0.1241  1.3221 -2.0352
 5674SOL    HW217312   3.598   4.229   0.312  0.0807  0.3626  0.1729
 5675SOL     OW17313   4.813   3.257   1.048 -0.0313  0.3046 -0.9017
 5675SOL    HW117314   4.861   3.204   0.978  0.5063  0.6261 -0.7809
 5675SOL    HW217315   4.856   3.347   1.057  0.5703 -0.1222  0.5975
 5676SOL     OW17316   2.855   2.681   5.878 -0.0697  0.0223  0.3412
 5676SOL    HW117317   2.935   2.640   5.833 -0.3968 -0.2609  0.0134
 5676SOL    HW217318   2.824   2.759   5.824 -1.2358 -1.0735 -0.6459
 5677SOL     OW17319   4.803   2.835   5.599  0.3476 -0.3928 -0.1927
 5677SOL    HW117320   4.765   2.748   5.630  0.7491 -0.6234 -0.3436
 5677SOL    HW217321   4.791   2.904   5.670  1.2235 -0.9091  0.4773
 5678SOL     OW17322   4.417   2.847   0.288 -0.4733  0.0882 -0.2114
 5678SOL    HW117323   4.450   2.776   0.226 -0.4329 -0.4029  0.3552
 5678SOL    HW217324   4.490   2.913   0.305 -0.5887  0.4117 -0.9371
 5679SOL     OW17325   4.592   1.918   0.809  0.2930  0.7920  0.2026
 5679SOL    HW117326   4.643   1.841   0.770  1.4375  1.9696 -0.7114
 5679SOL    HW217327   4.528   1.884   0.878 -0.6307 -1.1948 -1.5217
 5680SOL     OW17328   3.525   2.029   0.690 -0.3031 -0.2414  0.4191
 5680SOL    HW117329   3.504   2.025   0.593 -0.6601 -1.2212  0.5246
 5680SOL    HW217330   3.524   1.937   0.728  2.5938 -0.2143  0.7791
 5681SOL     OW17331   3.792   2.127   5.771  0.5075  0.3293 -0.3313
 5681SOL    HW117332   3.735   2.141   5.691  0.6085  0.0586 -0.4542
 5681SOL    HW217333   3.864   2.060   5.749  0.3584  0.0337  0.0674
 5682SOL     OW17334   5.179   3.630   5.321  0.4009 -0.1391  0.3383
 5682SOL    HW117335   5.194   3.608   5.417  1.0988 -1.6361 -0.0956
 5682SOL    HW217336   5.098   3.582   5.288  0.2498  0.2514  0.1374
 5683SOL     OW17337   4.947   2.106   0.347 -0.1538  0.2060  0.2508
 5683SOL    HW117338   4.954   2.142   0.254 -0.1358 -0.6443 -0.0860
 5683SOL    HW217339   4.897   2.172   0.404 -0.2366  0.7026 -0.3738
 5684SOL     OW17340   4.975   3.308   5.898 -0.0094 -0.1307 -0.1734
 5684SOL    HW117341   5.007   3.236   5.837  0.3786 -0.9680  0.9668
 5684SOL    HW217342   4.876   3.319   5.887 -0.2775 -1.6575  0.4143
 5685SOL     OW17343   5.306   3.020   0.725 -0.0126 -0.1141 -0.5016
 5685SOL    HW117344   5.231   3.085   0.706  1.1462  1.0415 -1.3076
 5685SOL    HW217345   5.305   2.948   0.655 -0.3247 -0.0643 -0.5527
 5686SOL     OW17346   4.927   2.485   5.070  0.2675 -0.0525  0.1009
 5686SOL    HW117347   4.982   2.404   5.051  0.6640  0.5915 -1.6603
 5686SOL    HW217348   4.980   2.550   5.123  0.9499  0.2375 -0.9243
 5687SOL     OW17349   4.298   3.296   0.977 -0.4705  0.4307 -0.4006
 5687SOL    HW117350   4.216   3.240   0.960 -0.4631 -1.0076  3.3214
 5687SOL    HW217351   4.380   3.240   0.968 -0.2536  0.5841  0.4802
 5688SOL     OW17352   3.163   2.683   0.759  0.0466 -0.1805 -0.0237
 5688SOL    HW117353   3.116   2.770   0.777  0.2873 -0.0041 -0.2393
 5688SOL    HW217354   3.120   2.638   0.681 -0.1605 -0.3189  0.1678
 5689SOL     OW17355   3.419   5.039   5.712  0.6903 -1.1303 -0.7955
 5689SOL    HW117356   3.391   4.991   5.629 -0.6703  0.5473 -1.3837
 5689SOL    HW217357   3.357   5.016   5.786  0.3916 -0.7508 -0.9231
 5690SOL     OW17358   3.777   2.438   0.892  0.6588 -0.6071 -0.3406
 5690SOL    HW117359   3.695   2.479   0.852  0.4770 -0.2681  0.3682
 5690SOL    HW217360   3.791   2.347   0.851  0.1631 -0.5039 -0.7600
 5691SOL     OW17361   5.197   4.821   5.758  0.0898  0.2356  0.3933
 5691SOL    HW117362   5.190   4.917   5.786  2.9488  0.2070  1.5372
 5691SOL    HW217363   5.167   4.762   5.833  3.1536  0.2388  1.7417
 5692SOL     OW17364   3.618   5.379   1.119 -0.1454 -0.3952 -0.1222
 5692SOL    HW117365   3.708   5.369   1.162  0.0474  0.1678 -0.3906
 5692SOL    HW217366   3.629   5.416   1.027 -0.7327  0.8700  0.3036
 5693SOL     OW17367   5.405   4.638   0.455  0.0029 -0.1298 -0.0699
 5693SOL    HW117368   5.388   4.564   0.391 -0.7770  0.5074 -0.6185
 5693SOL    HW217369   5.474   4.609   0.522 -2.0465 -2.2501  1.2721
 5694SOL     OW17370   3.350   4.371   0.604 -0.0330  0.5973  0.0296
 5694SOL    HW117371   3.432   4.427   0.594 -2.1604  3.8276 -0.7408
 5694SOL    HW217372   3.308   4.356   0.514 -1.1774  0.4573  0.5660
 5695SOL     OW17373   4.800   5.077   0.225 -0.3475 -0.1890  0.1685
 5695SOL    HW117374   4.885   5.119   0.191 -0.6635  0.3702  0.0525
 5695SOL    HW217375   4.727   5.092   0.158 -0.3806 -1.2528 -0.0411
 5696SOL     OW17376   5.765   4.795   0.713  0.2235  0.4739  0.0850
 5696SOL    HW117377   5.672   4.832   0.715  0.3726  0.8255  1.3821
 5696SOL    HW217378   5.768   4.709   0.765  0.4214 -0.0458 -0.7747
 5697SOL     OW17379   0.036   4.366   1.791  0.4060  0.0177  0.6422
 5697SOL    HW117380   0.059   4.410   1.704  1.0707 -0.4043  0.6007
 5697SOL    HW217381   0.043   4.267   1.781  2.5615  0.0052  1.7299
 5698SOL     OW17382   0.045   4.248   1.267  0.0213 -0.1149 -0.2695
 5698SOL    HW117383   0.019   4.334   1.223 -0.3571 -0.2071 -0.2344
 5698SOL    HW217384  -0.036   4.189   1.274  0.0770 -0.0922  0.5653
 5699SOL     OW17385   4.646   3.368   2.612 -0.0452  0.8067  0.5268
 5699SOL    HW117386   4.649   3.385   2.514  1.1390  1.5223  0.6679
 5699SOL    HW217387   4.552   3.345   2.639  0.0237 -1.8901 -1.1597
 5700SOL     OW17388   4.637   4.847   1.116 -0.1894 -0.1060 -0.1678
 5700SOL    HW117389   4.563   4.832   1.182 -0.1559  0.2631 -0.0466
 5700SOL    HW217390   4.680   4.759   1.095 -1.0053 -0.3994 -0.6455
 5701SOL     OW17391   4.662   5.642   1.571 -0.2279 -0.9492 -0.0271
 5701SOL    HW117392   4.604   5.616   1.493 -0.5290 -0.7346  0.1187
 5701SOL    HW217393   4.620   5.720   1.618  0.6694 -0.1728 -0.4833
 5702SOL     OW17394   4.191   4.553   2.565  0.2328  0.7530  0.5936
 5702SOL    HW117395   4.245   4.618   2.617  1.0330  1.4643 -1.0864
 5702SOL    HW217396   4.243   4.520   2.487 -0.6148 -0.9855  0.6964
 5703SOL     OW17397   5.728   4.295   1.002  0.2052  0.2829 -0.5403
 5703SOL    HW117398   5.698   4.225   0.937 -0.2911 -1.0783  1.0697
 5703SOL    HW217399   5.651   4.352   1.029  0.6503  1.6648 -2.0120
 5704SOL     OW17400   3.683   5.615   0.327  0.8592  0.4389 -0.6170
 5704SOL    HW117401   3.770   5.662   0.314  1.2313 -0.6251 -2.3263
 5704SOL    HW217402   3.695   5.517   0.311  0.2710 -0.4805  3.5445
 5705SOL     OW17403   3.735   4.837   1.937  0.1807 -0.5987  0.0605
 5705SOL    HW117404   3.733   4.837   1.837  1.6306  0.1853  0.0108
 5705SOL    HW217405   3.794   4.763   1.970  0.9599  0.1077  0.2782
 5706SOL     OW17406   4.738   0.345   2.132 -0.3737  0.0904 -0.6041
 5706SOL    HW117407   4.670   0.408   2.171  1.1529  0.7320  1.1909
 5706SOL    HW217408   4.820   0.397   2.108  0.8097 -1.1409  0.6244
 5707SOL     OW17409   3.216   4.379   2.014 -0.2497  0.2589 -1.0140
 5707SOL    HW117410   3.146   4.449   2.029 -0.4453 -0.3203  1.0469
 5707SOL    HW217411   3.174   4.300   1.970 -0.2616  0.9507 -2.3171
 5708SOL     OW17412   3.804   4.806   1.570  0.1309 -0.0922  0.1560
 5708SOL    HW117413   3.841   4.840   1.484 -1.5109 -1.1510 -1.0089
 5708SOL    HW217414   3.722   4.752   1.553  1.0012 -2.2472  2.1616
 5709SOL     OW17415   3.584   4.874   5.985 -0.5402 -0.1727  0.8632
 5709SOL    HW117416   3.514   4.899   5.918 -0.3835 -3.2412 -0.6539
 5709SOL    HW217417   3.578   4.934   6.064 -1.5283  2.8643 -1.3486
 5710SOL     OW17418   4.058   4.308   0.970 -0.9545  0.3278 -0.1571
 5710SOL    HW117419   4.063   4.215   1.008  2.2659 -0.1450 -1.4428
 5710SOL    HW217420   3.968   4.321   0.928 -1.7536 -1.9288  0.6504
 5711SOL     OW17421   3.958   4.154   1.520  0.3168 -0.0465 -0.0878
 5711SOL    HW117422   3.870   4.153   1.568 -0.8524  1.0490 -2.0999
 5711SOL    HW217423   4.018   4.221   1.563 -0.0506 -0.3079  0.8711
 5712SOL     OW17424   0.432   5.043   5.295 -0.8389  0.0544 -0.3029
 5712SOL    HW117425   0.387   5.052   5.206  2.0551 -0.3430 -1.9233
 5712SOL    HW217426   0.519   4.995   5.283 -0.2184  0.2703  2.7289
 5713SOL     OW17427   3.918   5.579   5.093 -0.0638  0.1564  0.1071
 5713SOL    HW117428   3.840   5.612   5.040 -0.4551 -1.1176 -0.1544
 5713SOL    HW217429   4.003   5.598   5.044  0.0089  3.1017  1.1666
 5714SOL     OW17430   4.979   5.509   1.700  0.1197  0.1033 -0.1567
 5714SOL    HW117431   4.914   5.445   1.660 -1.4693  0.3311  1.8847
 5714SOL    HW217432   5.067   5.503   1.652 -0.5654 -2.1851 -1.2369
 5715SOL     OW17433   5.460   4.704   0.858  0.1545  0.6937  0.1509
 5715SOL    HW117434   5.369   4.664   0.853  1.2540 -1.8830 -0.5512
 5715SOL    HW217435   5.496   4.695   0.951  0.3476  0.1747  0.0259
 5716SOL     OW17436   2.700   3.269   2.007  0.4710 -0.3894  0.3631
 5716SOL    HW117437   2.639   3.272   1.927  2.4944 -1.7816 -1.3241
 5716SOL    HW217438   2.654   3.221   2.082 -0.3576 -1.8556 -1.0274
 5717SOL     OW17439   5.183   4.116   1.034 -0.0627 -0.5608 -0.0362
 5717SOL    HW117440   5.111   4.060   0.994 -0.3014 -0.1467 -0.1984
 5717SOL    HW217441   5.214   4.184   0.966  0.1655 -0.4476  0.1790
 5718SOL     OW17442   5.770   4.108   1.214  0.3092  0.0836 -0.2120
 5718SOL    HW117443   5.744   4.018   1.180  0.4476  0.0604 -0.2569
 5718SOL    HW217444   5.764   4.175   1.140  0.8648 -0.0160 -0.3480
 5719SOL     OW17445   4.448   2.567   5.416 -1.0514  0.9975 -0.5104
 5719SOL    HW117446   4.544   2.559   5.391 -1.3627 -1.4059 -1.2368
 5719SOL    HW217447   4.406   2.643   5.366  0.2428  1.4816 -0.8888
 5720SOL     OW17448   3.683   3.845   1.781 -0.6988  0.4420  0.1548
 5720SOL    HW117449   3.756   3.779   1.797  0.3269  1.5288  0.0994
 5720SOL    HW217450   3.601   3.818   1.832 -1.3330 -2.4358 -2.1002
 5721SOL     OW17451   2.997   0.086   1.007 -0.2186  0.3525  0.4002
 5721SOL    HW117452   3.022  -0.010   0.992 -3.3071 -0.5812  0.5334
 5721SOL    HW217453   2.930   0.091   1.080 -0.0289  2.6743  0.4629
 5722SOL     OW17454   4.439   0.806   2.404 -0.0366 -0.1082 -0.4936
 5722SOL    HW117455   4.404   0.770   2.318 -0.4239 -1.4036  0.1749
 5722SOL    HW217456   4.447   0.906   2.398 -1.5478 -0.0092 -1.4862
 5723SOL     OW17457   4.544   3.798   2.094  0.2153 -0.5550  0.2160
 5723SOL    HW117458   4.593   3.752   2.169  1.3213 -0.6598 -0.5425
 5723SOL    HW217459   4.446   3.780   2.101  0.5517 -2.4932  0.3011
 5724SOL     OW17460   4.604   5.867   0.750  0.3018 -0.4853 -0.1208
 5724SOL    HW117461   4.542   5.790   0.765  0.9836 -0.7614  1.4742
 5724SOL    HW217462   4.649   5.856   0.661 -1.9931 -0.1808 -1.4071
 5725SOL     OW17463   5.428   4.502   5.686 -0.3611 -0.3094  0.1713
 5725SOL    HW117464   5.448   4.516   5.783 -0.2730 -1.3379  0.3133
 5725SOL    HW217465   5.354   4.563   5.658  0.0786  0.4813  0.7099
 5726SOL     OW17466   5.362   3.819   0.648 -0.6555  0.1526  0.0396
 5726SOL    HW117467   5.432   3.886   0.624 -0.9361  0.6287  0.5419
 5726SOL    HW217468   5.380   3.734   0.599  0.4182  0.1854  0.3414
 5727SOL     OW17469   4.099   3.628   1.005 -0.8312  0.7977  0.1015
 5727SOL    HW117470   4.154   3.593   0.929  0.1248  1.5675  0.4238
 5727SOL    HW217471   4.011   3.660   0.970 -0.4302  1.0897 -0.6818
 5728SOL     OW17472   5.698   4.489   0.104 -0.4620 -0.1005 -0.0879
 5728SOL    HW117473   5.721   4.490   0.201  0.1726 -0.7922 -0.2119
 5728SOL    HW217474   5.779   4.461   0.052 -1.0986 -0.8317 -0.7116
 5729SOL     OW17475   4.883   4.500   0.512  0.6846  0.1956  0.2957
 5729SOL    HW117476   4.942   4.462   0.441  1.2682  1.7923 -0.1266
 5729SOL    HW217477   4.800   4.445   0.520  1.0764 -0.6094 -0.8890
 5730SOL     OW17478   4.859   3.903   3.104  0.2068 -0.5960  0.0580
 5730SOL    HW117479   4.822   3.853   3.183 -0.1769 -0.1545  0.1591
 5730SOL    HW217480   4.922   3.843   3.054  0.9824 -0.6744  1.0789
 5731SOL     OW17481   4.291   4.533   2.316  0.0718  0.2029 -0.0896
 5731SOL    HW117482   4.352   4.455   2.305 -0.6897 -0.9745  2.9897
 5731SOL    HW217483   4.345   4.617   2.326  0.9049  0.1056 -2.9339
 5732SOL     OW17484   4.192   5.108   1.302 -0.7135  0.2175  0.4238
 5732SOL    HW117485   4.166   5.034   1.364  0.0370 -0.0593  0.4182
 5732SOL    HW217486   4.157   5.195   1.337 -0.9344 -0.0355  0.8387
 5733SOL     OW17487   4.776   4.774   1.557  0.4383  0.5315 -0.0675
 5733SOL    HW117488   4.771   4.865   1.516 -0.2328  0.1963 -0.7446
 5733SOL    HW217489   4.767   4.704   1.486  0.5950 -0.0659  0.4862
 5734SOL     OW17490   3.884   5.293   1.190 -0.0568  0.2509  0.2509
 5734SOL    HW117491   3.887   5.241   1.105 -1.8742  0.2289  0.1568
 5734SOL    HW217492   3.976   5.301   1.228  0.3924 -2.4328 -0.0899
 5735SOL     OW17493   4.905   4.908   0.711 -0.0496  0.0204  0.2905
 5735SOL    HW117494   4.813   4.936   0.740 -0.5085 -2.1079  1.1497
 5735SOL    HW217495   4.897   4.838   0.641  0.8533 -0.9817  1.1534
 5736SOL     OW17496   3.084   3.452   5.268  0.3028  0.7990  0.0317
 5736SOL    HW117497   3.162   3.502   5.229 -0.4380  0.3756 -2.1304
 5736SOL    HW217498   3.012   3.517   5.291 -0.3504  0.8830 -2.0374
 5737SOL     OW17499   5.902   3.628   1.123 -0.3941 -0.0840 -0.0979
 5737SOL    HW117500   5.895   3.558   1.052 -0.8797 -1.3821  1.1696
 5737SOL    HW217501   5.995   3.665   1.125  0.4790 -2.1480  0.4712
 5738SOL     OW17502   4.923   5.255   0.474  0.0170  0.1852  0.0472
 5738SOL    HW117503   4.918   5.350   0.504  0.0272  1.2211 -2.8881
 5738SOL    HW217504   4.834   5.211   0.485 -0.5062  1.1348 -0.3260
 5739SOL     OW17505   4.320   2.242   1.367  0.2223  0.2721  0.1312
 5739SOL    HW117506   4.404   2.240   1.421  0.5103  0.5406 -0.2973
 5739SOL    HW217507   4.320   2.166   1.302  0.3401  0.5294 -0.1704
 5740SOL     OW17508   5.048   5.135   2.148  0.1790  0.2025  0.5597
 5740SOL    HW117509   5.006   5.115   2.060  0.9405  0.1093  0.2063
 5740SOL    HW217510   5.079   5.050   2.191  0.4421  0.3074  0.5835
 5741SOL     OW17511   3.421   0.179   0.494 -0.0570  0.5292  0.0632
 5741SOL    HW117512   3.337   0.152   0.445 -0.2814  0.5568  0.4289
 5741SOL    HW217513   3.415   0.276   0.519  0.5720  0.8344 -0.8900
 5742SOL     OW17514   0.618   3.968   0.973  0.0588  0.3050  0.2478
 5742SOL    HW117515   0.530   3.951   0.928  0.9404 -0.8484 -1.1197
 5742SOL    HW217516   0.650   3.884   1.016  1.3755  0.1934 -0.9019
 5743SOL     OW17517   5.256   5.435   1.648  0.0720 -0.1926 -0.3058
 5743SOL    HW117518   5.276   5.345   1.608  0.2257 -0.2380 -0.1264
 5743SOL    HW217519   5.328   5.499   1.622 -1.1776  0.4959 -2.3726
 5744SOL     OW17520   4.217   4.326   0.758 -0.2221 -0.2531  0.4708
 5744SOL    HW117521   4.141   4.327   0.693  0.7060 -2.6399 -0.7559
 5744SOL    HW217522   4.181   4.334   0.851 -1.7940  0.5970 -0.1653
 5745SOL     OW17523   5.268   4.447   0.267  0.2534 -0.7072 -0.0831
 5745SOL    HW117524   5.329   4.369   0.275 -0.0589 -1.0652 -1.0803
 5745SOL    HW217525   5.173   4.416   0.271  0.1255 -0.4408 -0.9752
 5746SOL     OW17526   4.874   3.957   2.210 -0.3866 -0.5394  0.1860
 5746SOL    HW117527   4.861   3.862   2.182 -2.2707 -0.3595  0.3276
 5746SOL    HW217528   4.966   3.988   2.183 -0.3773 -1.8507 -1.4329
 5747SOL     OW17529   4.886   0.137   5.495  0.0137 -0.3929  0.1336
 5747SOL    HW117530   4.963   0.199   5.481 -0.2895 -0.0575 -0.0644
 5747SOL    HW217531   4.822   0.177   5.560 -0.8544  0.1321 -1.0054
 5748SOL     OW17532   3.662   3.502   1.372 -0.6902 -0.3442  0.1014
 5748SOL    HW117533   3.708   3.470   1.455 -0.7668 -2.0446 -0.4722
 5748SOL    HW217534   3.563   3.508   1.389 -0.4661  1.7552  0.8546
 5749SOL     OW17535   4.670   5.759   5.499 -0.1279  0.7022  0.0612
 5749SOL    HW117536   4.712   5.714   5.578 -0.9752  0.6669  0.5035
 5749SOL    HW217537   4.739   5.813   5.450  1.0214 -1.3844 -0.7388
 5750SOL     OW17538   3.270   0.040   1.575 -0.4799  0.4102 -0.4501
 5750SOL    HW117539   3.304   0.075   1.663 -0.5604  2.5165 -1.1974
 5750SOL    HW217540   3.326  -0.038   1.547  0.3918  0.5314  0.8315
 5751SOL     OW17541   5.155   5.117   0.439  0.3220 -0.0323 -0.4613
 5751SOL    HW117542   5.229   5.120   0.506  1.5669  1.8798 -1.8088
 5751SOL    HW217543   5.076   5.167   0.474 -0.6495 -2.5959  1.2403
 5752SOL     OW17544   3.586   5.515   0.623 -0.5713  0.1943  0.7308
 5752SOL    HW117545   3.596   5.416   0.618 -0.1097  0.2421  0.7423
 5752SOL    HW217546   3.617   5.556   0.537 -1.4306  0.2768  0.4480
 5753SOL     OW17547   3.676   4.885   0.395  0.6536 -0.5947 -0.4526
 5753SOL    HW117548   3.583   4.872   0.430  0.3546 -0.2135 -1.0791
 5753SOL    HW217549   3.737   4.910   0.470 -0.0541  0.6117 -0.2513
 5754SOL     OW17550   3.206   5.431   0.425  0.0630  0.5371  0.3914
 5754SOL    HW117551   3.269   5.430   0.348 -0.3740  0.0869  0.0268
 5754SOL    HW217552   3.225   5.509   0.484  1.2367  0.1579  0.5290
 5755SOL     OW17553   5.221   4.131   2.715 -0.1009 -0.3117 -0.2245
 5755SOL    HW117554   5.200   4.086   2.628 -1.3822  0.6841 -0.4558
 5755SOL    HW217555   5.221   4.230   2.703 -0.3377 -0.1531  0.9192
 5756SOL     OW17556   4.079   3.038   0.668  0.3020  0.1547  0.3830
 5756SOL    HW117557   4.114   3.114   0.612  1.1032  1.0280  1.9955
 5756SOL    HW217558   4.088   2.953   0.617  2.7964  0.6515 -0.1474
 5757SOL     OW17559   4.695   3.800   3.323 -0.2100  0.4853  0.1357
 5757SOL    HW117560   4.611   3.853   3.332 -2.4442 -2.4520 -1.5036
 5757SOL    HW217561   4.681   3.710   3.364  1.3109 -0.8770 -2.1415
 5758SOL     OW17562   3.882   5.163   2.465  0.3324 -0.1170 -0.5928
 5758SOL    HW117563   3.877   5.229   2.540 -1.5849 -1.1025  0.2280
 5758SOL    HW217564   3.941   5.087   2.491  2.6582  1.2263 -1.5929
 5759SOL     OW17565   3.789   3.565   1.125  0.1448  0.1496 -0.8248
 5759SOL    HW117566   3.755   3.536   1.215 -1.1615 -1.1380 -1.6820
 5759SOL    HW217567   3.847   3.646   1.136  0.3877 -0.2439  1.2101
 5760SOL     OW17568   5.377   5.100   0.615  0.3189 -0.0099 -0.3547
 5760SOL    HW117569   5.433   5.018   0.605  1.6322  0.5649  1.6714
 5760SOL    HW217570   5.300   5.081   0.676  0.8476  0.3377  0.4359
 5761SOL     OW17571   4.032   4.293   5.444  0.0442  0.2750  0.0099
 5761SOL    HW117572   3.977   4.276   5.525  1.8062 -0.1751  1.1681
 5761SOL    HW217573   4.061   4.389   5.443  0.9982  0.0054  0.5764
 5762SOL     OW17574   4.739   4.454   0.158 -0.2314  0.2696  0.0989
 5762SOL    HW117575   4.777   4.516   0.090  0.6460  0.0637  0.3957
 5762SOL    HW217576   4.685   4.383   0.111 -0.2025  0.5255 -0.3257
 5763SOL     OW17577   5.454   4.431   1.009  0.5088 -0.3888  0.8692
 5763SOL    HW117578   5.396   4.460   1.085  1.2356 -0.7668  1.5757
 5763SOL    HW217579   5.404   4.364   0.954  0.6313 -1.5206  2.0786
 5764SOL     OW17580   4.512   3.240   5.673  0.2968  0.1152  0.0059
 5764SOL    HW117581   4.440   3.300   5.638 -0.1691 -0.8933 -0.8627
 5764SOL    HW217582   4.582   3.229   5.603  0.3157 -0.4239  0.1010
 5765SOL     OW17583   4.997   3.952   0.946  0.2492  0.1502 -0.5973
 5765SOL    HW117584   4.920   4.009   0.918  0.9020  1.0609 -0.5870
 5765SOL    HW217585   4.963   3.869   0.990 -0.7196  0.5101 -0.6408
 5766SOL     OW17586   4.002   4.592   1.574 -0.4552 -0.9755 -0.0739
 5766SOL    HW117587   3.942   4.671   1.574 -0.8118 -1.2423  0.3870
 5766SOL    HW217588   3.970   4.525   1.641  0.3963 -1.0875  0.2417
 5767SOL     OW17589   4.199   5.360   1.610  0.3892  0.2056 -0.5899
 5767SOL    HW117590   4.255   5.283   1.639  2.1899  1.4237 -0.7145
 5767SOL    HW217591   4.245   5.446   1.633 -2.7386  1.3872  2.0143
 5768SOL     OW17592   3.073   4.989   0.666 -0.4306 -0.1610 -0.3666
 5768SOL    HW117593   2.978   4.976   0.637 -0.6233  0.3881  0.0006
 5768SOL    HW217594   3.085   5.083   0.698  0.3082 -0.1472 -0.6734
 5769SOL     OW17595   4.501   4.029   0.659 -0.0579  0.0531 -0.3124
 5769SOL    HW117596   4.441   4.013   0.738  0.8783  1.1189  0.6631
 5769SOL    HW217597   4.597   4.018   0.688  0.2765 -0.1335 -1.4566
 5770SOL     OW17598   3.518   3.642   0.862  0.6331 -0.0570 -0.1623
 5770SOL    HW117599   3.473   3.705   0.798 -0.4769 -2.6488 -2.1139
 5770SOL    HW217600   3.506   3.675   0.955 -0.7086  2.1033 -1.0325
 5771SOL     OW17601   3.772   3.332   5.835 -0.5056  0.3991 -0.6968
 5771SOL    HW117602   3.871   3.334   5.854 -0.9361 -0.9098  2.3819
 5771SOL    HW217603   3.745   3.240   5.809 -1.1792  0.1632  0.7144
 5772SOL     OW17604   4.681   3.662   0.820 -0.0329  0.0891  0.1345
 5772SOL    HW117605   4.638   3.686   0.734  0.3336 -0.2177 -0.1407
 5772SOL    HW217606   4.632   3.585   0.862  1.4101 -1.6625 -1.1944
 5773SOL     OW17607   4.414   3.720   0.033 -0.0454  0.1512  0.0354
 5773SOL    HW117608   4.461   3.783   0.095  0.5536 -0.9836  0.7968
 5773SOL    HW217609   4.391   3.636   0.083  1.0076 -1.0637 -1.4216
 5774SOL     OW17610   0.048   4.438   0.631 -0.5653  0.0142  0.2619
 5774SOL    HW117611  -0.049   4.428   0.650 -0.0973 -1.7659  1.9743
 5774SOL    HW217612   0.099   4.440   0.717  0.9087  1.3026 -0.5914
 5775SOL     OW17613   5.405   4.006   1.114 -0.0490  0.0947  0.1616
 5775SOL    HW117614   5.310   4.021   1.085 -0.0343 -0.9012 -0.4800
 5775SOL    HW217615   5.419   4.046   1.204 -1.0905  0.2311  0.2811
 5776SOL     OW17616   0.689   4.476   0.233  0.0572 -0.3075 -0.0352
 5776SOL    HW117617   0.686   4.501   0.330  1.8614  0.2715 -0.0956
 5776SOL    HW217618   0.753   4.536   0.185  0.8618 -1.9993 -1.1624
 5777SOL     OW17619   3.699   4.359   1.415 -0.0958 -0.0509  0.3972
 5777SOL    HW117620   3.716   4.325   1.507  0.6841  0.5185  0.4700
 5777SOL    HW217621   3.600   4.364   1.399 -0.2461  0.4515  1.4328
 5778SOL     OW17622   5.847   3.312   0.736  0.1345  0.1742 -0.1260
 5778SOL    HW117623   5.852   3.251   0.815  0.6045 -1.2449 -1.2006
 5778SOL    HW217624   5.765   3.291   0.683  0.7925 -0.2292 -1.0228
 5779SOL     OW17625   5.338   4.815   0.249 -0.1136  0.9397 -0.4174
 5779SOL    HW117626   5.241   4.837   0.258  0.1925  1.6900  1.2980
 5779SOL    HW217627   5.369   4.767   0.330  1.0279  0.9678 -0.8216
 5780SOL     OW17628   3.162   3.925   5.771  0.1831  0.3566 -0.0854
 5780SOL    HW117629   3.114   3.839   5.790  1.2198 -0.6504 -1.6950
 5780SOL    HW217630   3.128   3.997   5.831 -1.6001 -0.8830  0.4677
 5781SOL     OW17631   5.109   5.935   2.093 -0.3912 -0.2632  0.2698
 5781SOL    HW117632   5.147   5.846   2.070  0.7038  0.2885 -0.1383
 5781SOL    HW217633   5.030   5.954   2.034  0.0379 -0.5038 -0.3852
 5782SOL     OW17634   3.311   5.199   2.182 -0.5100 -0.4041 -0.1906
 5782SOL    HW117635   3.320   5.152   2.095 -0.0822  1.2129 -1.0443
 5782SOL    HW217636   3.377   5.162   2.248  1.6413  0.7106 -1.6254
 5783SOL     OW17637   3.908   0.105   1.614  0.1546 -0.3079  0.1955
 5783SOL    HW117638   3.923   0.008   1.597  0.8593 -0.0693 -0.5752
 5783SOL    HW217639   3.899   0.120   1.713  0.6795 -1.0627  0.3661
 5784SOL     OW17640   5.172   4.273   1.270  0.1376  0.2345  0.3224
 5784SOL    HW117641   5.203   4.365   1.245 -1.3075  0.4797 -0.6647
 5784SOL    HW217642   5.165   4.216   1.188 -2.7142  0.4403  0.3295
 5785SOL     OW17643   4.410   0.512   1.450  0.7812 -0.1106  0.3116
 5785SOL    HW117644   4.345   0.473   1.515  0.5306  0.5010  0.4415
 5785SOL    HW217645   4.409   0.460   1.365 -0.1046  0.0825  0.1988
 5786SOL     OW17646   3.932   3.410   1.527 -0.2575  0.0974 -0.4199
 5786SOL    HW117647   3.924   3.352   1.445 -1.3650  0.9903 -0.9845
 5786SOL    HW217648   4.017   3.461   1.523 -0.3924  0.2858 -1.1374
 5787SOL     OW17649   4.564   4.538   2.132 -0.0465  0.0148  0.6746
 5787SOL    HW117650   4.504   4.528   2.053 -0.0945  1.8613  0.4260
 5787SOL    HW217651   4.660   4.533   2.102 -0.0642 -0.3377  0.6721
 5788SOL     OW17652   5.293   4.520   1.212  0.3473 -0.3407  0.3954
 5788SOL    HW117653   5.379   4.566   1.235  0.8567 -1.0571 -0.0270
 5788SOL    HW217654   5.216   4.578   1.238  0.9173 -0.3345  2.2153
 5789SOL     OW17655   5.712   5.411   1.429  0.3399 -0.0385  0.6136
 5789SOL    HW117656   5.691   5.343   1.359  1.5860 -0.0595  0.2380
 5789SOL    HW217657   5.703   5.503   1.390  1.6720 -0.0634  0.2228
 5790SOL     OW17658   4.867   3.519   0.246  0.0861 -0.1547 -0.4088
 5790SOL    HW117659   4.910   3.590   0.191 -0.6610  1.7519  1.3457
 5790SOL    HW217660   4.767   3.526   0.239 -0.0351 -2.2996 -1.6913
 5791SOL     OW17661   4.039   4.420   1.359  0.4836 -0.2047  0.1085
 5791SOL    HW117662   4.022   4.323   1.377  0.8812 -0.1318  0.8996
 5791SOL    HW217663   4.008   4.475   1.437 -0.6126  0.3965 -0.7240
 5792SOL     OW17664   4.009   4.951   0.093  0.0722 -0.2053 -0.5252
 5792SOL    HW117665   3.970   5.018   0.030  1.4778  0.4019 -0.7651
 5792SOL    HW217666   4.037   4.869   0.043 -0.9118 -0.6798 -0.3394
 5793SOL     OW17667   3.903   3.249   1.309 -0.5082  0.3434  0.2368
 5793SOL    HW117668   3.810   3.280   1.288 -2.2986 -2.3036  3.3290
 5793SOL    HW217669   3.927   3.172   1.250 -0.8049  0.2309  0.2603
 5794SOL     OW17670   5.638   5.376   0.892  0.8027  0.5941 -0.4775
 5794SOL    HW117671   5.701   5.431   0.946  1.3257 -1.9166  1.6652
 5794SOL    HW217672   5.690   5.313   0.834  0.2230  0.6481 -1.0765
 5795SOL     OW17673   4.488   5.065   1.428  0.1501 -0.3903  0.2167
 5795SOL    HW117674   4.419   5.108   1.370  0.4453  1.4111  1.1263
 5795SOL    HW217675   4.466   5.082   1.524  1.1334 -0.9756  0.5624
 5796SOL     OW17676   5.807   3.918   0.844 -0.5141  0.2467  0.3912
 5796SOL    HW117677   5.884   3.854   0.837 -0.3079  0.4436  0.8226
 5796SOL    HW217678   5.770   3.917   0.936 -1.8916 -0.8107 -0.1397
 5797SOL     OW17679   3.522   5.178   0.967 -0.0510 -0.6864  0.3957
 5797SOL    HW117680   3.561   5.239   1.036 -1.6001  2.1260 -1.0308
 5797SOL    HW217681   3.422   5.179   0.974 -0.1705 -1.6222 -0.8400
 5798SOL     OW17682   3.253   4.684   1.980 -0.3436  0.0228 -0.0426
 5798SOL    HW117683   3.163   4.644   1.963 -0.1435 -0.2910 -0.3587
 5798SOL    HW217684   3.295   4.710   1.894 -0.6987  1.4385  0.1789
 5799SOL     OW17685   4.164   4.899   1.462  0.0875  0.4635 -0.0214
 5799SOL    HW117686   4.125   4.927   1.549 -1.4691 -1.0897 -0.1723
 5799SOL    HW217687   4.220   4.817   1.475  0.5843  0.7421 -0.3504
 5800SOL     OW17688   0.620   3.942   2.594 -0.2022  0.5608  0.0339
 5800SOL    HW117689   0.549   3.887   2.636 -0.4178 -0.3769 -1.4718
 5800SOL    HW217690   0.592   4.038   2.593 -2.2587  0.0237 -1.9783
 5801SOL     OW17691   3.259   4.007   1.972  0.3313  0.0865 -0.5022
 5801SOL    HW117692   3.180   3.969   2.020 -0.6331  1.1817 -1.1581
 5801SOL    HW217693   3.228   4.072   1.903  1.7961  0.1791 -1.1133
 5802SOL     OW17694   3.662   3.745   0.248 -0.3573 -0.3739 -0.0721
 5802SOL    HW117695   3.651   3.806   0.170  0.9472  2.5814  1.9212
 5802SOL    HW217696   3.581   3.751   0.307  0.3980  0.6401  0.8907
 5803SOL     OW17697   5.026   3.861   0.382 -0.4087  0.4150 -0.0392
 5803SOL    HW117698   5.021   3.826   0.289 -0.5875  2.7984 -0.9746
 5803SOL    HW217699   5.053   3.787   0.444  0.4982 -1.0251 -2.0639
 5804SOL     OW17700   5.401   3.495   0.196 -0.0279 -0.1699 -0.1199
 5804SOL    HW117701   5.307   3.483   0.227  0.0756 -0.3344  0.1414
 5804SOL    HW217702   5.455   3.414   0.221  0.2291  0.0095 -0.0804
 5805SOL     OW17703   3.886   3.663   0.365 -0.1528  0.7042  0.3391
 5805SOL    HW117704   3.835   3.595   0.417 -0.0240 -1.5657 -2.2935
 5805SOL    HW217705   3.827   3.706   0.297  0.4889  0.9756 -0.0657
 5806SOL     OW17706   3.557   3.225   0.160 -0.6753 -0.5912 -0.3774
 5806SOL    HW117707   3.561   3.178   0.249 -0.1368  0.9222  0.4360
 5806SOL    HW217708   3.602   3.314   0.168  0.9770 -1.1394 -2.6466
 5807SOL     OW17709   4.852   3.003   0.392 -0.1253 -0.2138  0.4764
 5807SOL    HW117710   4.841   2.922   0.450  0.7617 -0.9338 -0.3333
 5807SOL    HW217711   4.904   3.073   0.441 -0.7726 -0.1768  1.1271
 5808SOL     OW17712   0.300   4.391   1.337 -0.0728 -0.3208  0.0828
 5808SOL    HW117713   0.344   4.358   1.421 -1.1747 -2.3498 -0.0842
 5808SOL    HW217714   0.235   4.322   1.304 -2.5206  2.0546 -0.3452
 5809SOL     OW17715   5.062   3.005   5.977 -0.2147  0.5644 -0.4944
 5809SOL    HW117716   5.045   3.014   5.878  0.3891 -1.6308 -0.8357
 5809SOL    HW217717   4.975   2.997   6.025 -0.4901  0.8149 -0.9389
 5810SOL     OW17718   5.012   4.381   0.292 -0.2095  0.2098  0.3080
 5810SOL    HW117719   4.976   4.290   0.277 -1.3248  0.5231  1.0207
 5810SOL    HW217720   4.961   4.447   0.237 -1.2199  0.7451  1.8335
 5811SOL     OW17721   5.151   4.631   0.588 -0.2488  0.3544  0.2464
 5811SOL    HW117722   5.071   4.671   0.542 -0.9282 -2.0563 -0.8322
 5811SOL    HW217723   5.230   4.635   0.526  0.2154  1.7495  0.8974
 5812SOL     OW17724   4.366   5.399   1.152  0.4188 -0.0158 -0.8693
 5812SOL    HW117725   4.406   5.484   1.119  1.8438 -0.1951  0.2708
 5812SOL    HW217726   4.431   5.324   1.135  1.0003 -0.1937  1.7495
 5813SOL     OW17727   5.759   5.652   1.315 -0.0853  0.4978  0.2851
 5813SOL    HW117728   5.715   5.730   1.359  0.3053  1.3095 -0.7415
 5813SOL    HW217729   5.858   5.662   1.321 -0.0264  0.5713 -0.6786
 5814SOL     OW17730   4.226   3.961   1.614  0.2235  0.1027 -0.0310
 5814SOL    HW117731   4.207   4.058   1.629 -1.4371 -0.3977  1.4901
 5814SOL    HW217732   4.279   3.925   1.691 -1.8826 -0.8453  1.0622
 5815SOL     OW17733   0.006   4.115   1.672 -0.2440  0.0016  0.1717
 5815SOL    HW117734   0.088   4.144   1.622 -0.4034  1.1038  0.5209
 5815SOL    HW217735  -0.072   4.112   1.610 -0.3104  0.7451  0.2096
 5816SOL     OW17736   5.325   5.973   1.506  0.0257  0.5413 -0.1160
 5816SOL    HW117737   5.266   6.026   1.445 -0.7249  0.6613  0.7069
 5816SOL    HW217738   5.274   5.945   1.587  0.5657 -0.9716 -0.2652
 5817SOL     OW17739   4.590   4.588   0.307 -0.0988 -0.4701  0.5467
 5817SOL    HW117740   4.541   4.661   0.259 -2.9518 -0.9556  2.4852
 5817SOL    HW217741   4.656   4.546   0.244 -1.1392  1.1816 -1.8221
 5818SOL     OW17742   3.865   4.151   0.296 -0.2795  0.5406 -0.3522
 5818SOL    HW117743   3.935   4.222   0.289  3.0025 -2.4095 -0.5575
 5818SOL    HW217744   3.859   4.102   0.209  0.6789 -1.9607  0.8894
 5819SOL     OW17745   4.283   4.070   0.822 -0.5991  0.5555  0.0553
 5819SOL    HW117746   4.323   4.087   0.912 -0.0256  1.5732 -0.3735
 5819SOL    HW217747   4.258   4.157   0.779  0.7491  0.2451 -1.4734
 5820SOL     OW17748   5.191   3.666   2.338  0.1166  0.0177 -0.2923
 5820SOL    HW117749   5.142   3.661   2.425  0.0046 -1.8878 -0.4371
 5820SOL    HW217750   5.250   3.586   2.328 -1.6481 -1.0851 -3.0142
 5821SOL     OW17751   4.339   4.025   0.161 -0.5202  0.1114  0.3573
 5821SOL    HW117752   4.267   4.056   0.099  0.9151  1.1541 -0.8739
 5821SOL    HW217753   4.323   4.064   0.252 -0.6299  1.7358 -0.3107
 5822SOL     OW17754   2.428   5.415   1.278 -0.2390 -0.4563 -0.2155
 5822SOL    HW117755   2.337   5.443   1.307 -1.1074 -2.3454 -0.9393
 5822SOL    HW217756   2.494   5.437   1.350 -1.2435  0.8979  0.3385
 5823SOL     OW17757   3.996   5.293   0.476  0.0682  0.2580  0.0627
 5823SOL    HW117758   4.042   5.205   0.466  2.2071  1.4488 -1.1511
 5823SOL    HW217759   4.018   5.332   0.566 -0.0557  0.0386  0.1908
 5824SOL     OW17760   3.928   5.180   0.946  0.8102 -0.1832 -0.4670
 5824SOL    HW117761   3.961   5.087   0.935  0.3197 -0.2532 -1.5054
 5824SOL    HW217762   3.851   5.196   0.883  0.3022  0.6429  0.3347
 5825SOL     OW17763   3.974   3.406   0.778 -0.7613  0.3828 -0.2867
 5825SOL    HW117764   4.057   3.399   0.722  0.8491 -0.1383  2.0416
 5825SOL    HW217765   3.931   3.495   0.763 -1.2275 -0.2542 -3.3611
 5826SOL     OW17766   4.700   4.467   1.581  0.2751 -0.1877  0.2390
 5826SOL    HW117767   4.789   4.455   1.624  0.5419  0.6545 -0.0592
 5826SOL    HW217768   4.712   4.510   1.491 -0.3960 -0.4319  0.0319
 5827SOL     OW17769   0.285   4.195   0.929 -0.2169 -0.3620 -0.4766
 5827SOL    HW117770   0.235   4.134   0.867 -1.0756 -0.3946  0.2159
 5827SOL    HW217771   0.295   4.151   1.018  0.7171 -0.1870 -0.4848
 5828SOL     OW17772   4.499   3.503   0.964 -0.0627 -0.3645  0.3086
 5828SOL    HW117773   4.473   3.572   1.032 -2.3694 -0.6841 -0.1712
 5828SOL    HW217774   4.446   3.420   0.979 -1.4437 -0.0835 -2.4746
 5829SOL     OW17775   0.615   4.427   1.078  0.0604 -0.4606  0.0383
 5829SOL    HW117776   0.675   4.450   1.002 -1.4590 -2.2639 -1.8343
 5829SOL    HW217777   0.537   4.490   1.079  0.7239  0.3844  0.9848
 5830SOL     OW17778   4.276   5.819   0.743 -0.3426 -0.0995  0.2664
 5830SOL    HW117779   4.198   5.824   0.806  0.6011 -0.3474  1.4790
 5830SOL    HW217780   4.300   5.912   0.713 -0.0397  0.1548  1.2490
 5831SOL     OW17781   4.371   4.089   1.950 -0.4268  0.6214 -0.8454
 5831SOL    HW117782   4.297   4.149   1.979 -0.3803  1.0241 -1.5404
 5831SOL    HW217783   4.342   3.994   1.958 -0.8751  0.7658 -0.7281
 5832SOL     OW17784   3.848   5.134   2.211 -0.2859 -0.1323  0.2889
 5832SOL    HW117785   3.898   5.073   2.150  0.9267 -0.1681  1.2746
 5832SOL    HW217786   3.875   5.117   2.306 -2.0092  0.0245  0.8509
 5833SOL     OW17787   3.668   3.703   5.448 -0.2880  0.2072 -0.2870
 5833SOL    HW117788   3.720   3.787   5.435 -1.4316  0.8414 -0.9183
 5833SOL    HW217789   3.677   3.672   5.542 -0.4571  1.4517  0.1542
 5834SOL     OW17790   4.780   5.929   1.306 -0.0740  0.2651  0.0906
 5834SOL    HW117791   4.847   5.970   1.367 -0.2685  2.1539 -0.9072
 5834SOL    HW217792   4.763   5.989   1.229  0.0428 -1.9723 -1.8020
 5835SOL     OW17793   4.576   4.927   1.867  0.0028  0.1813 -0.6592
 5835SOL    HW117794   4.530   5.005   1.908  0.4044  0.0412  0.0647
 5835SOL    HW217795   4.524   4.896   1.787 -0.4472  0.8408 -0.6259
 5836SOL     OW17796   3.598   3.768   5.950  0.3055  0.4874 -1.0032
 5836SOL    HW117797   3.545   3.817   5.881 -0.1301  1.2662 -0.1464
 5836SOL    HW217798   3.599   3.670   5.930 -1.7153  0.4111 -0.8731
 5837SOL     OW17799   0.402   5.207   1.798  0.4107 -0.5261  0.2330
 5837SOL    HW117800   0.470   5.169   1.735 -0.4727 -1.2952 -0.2779
 5837SOL    HW217801   0.351   5.132   1.841 -0.9464  0.0475 -0.3222
 5838SOL     OW17802   5.155   0.607   1.564  0.3804  0.1471  0.1753
 5838SOL    HW117803   5.137   0.700   1.533 -0.6645 -0.1516 -0.1480
 5838SOL    HW217804   5.139   0.543   1.488 -1.4243 -0.5322  1.0854
 5839SOL     OW17805   4.482   4.794   1.327 -0.3963 -0.1574 -0.1270
 5839SOL    HW117806   4.423   4.734   1.380  1.2523 -0.8613  0.9820
 5839SOL    HW217807   4.506   4.874   1.381  1.8759 -1.2231  0.5905
 5840SOL     OW17808   0.122   5.443   2.422  0.3221  0.1355 -0.5798
 5840SOL    HW117809   0.057   5.510   2.384 -0.7335 -0.5011  0.0368
 5840SOL    HW217810   0.073   5.382   2.484  1.5607 -0.2894  0.0054
 5841SOL     OW17811   4.270   4.200   5.323  0.3350 -0.0974 -0.7236
 5841SOL    HW117812   4.182   4.221   5.368  1.3360  0.5493  1.0416
 5841SOL    HW217813   4.262   4.216   5.225 -1.5558 -0.1894 -0.6218
 5842SOL     OW17814   4.519   4.159   5.433  0.0839  0.0325  0.3399
 5842SOL    HW117815   4.430   4.166   5.389 -0.0310  1.6870  0.7832
 5842SOL    HW217816   4.509   4.117   5.523 -0.2897  0.4338  0.4874
 5843SOL     OW17817   5.179   0.175   1.293 -0.0305  0.3646 -0.0732
 5843SOL    HW117818   5.156   0.139   1.203  2.1197 -0.8320 -0.2309
 5843SOL    HW217819   5.100   0.170   1.353 -0.5058 -2.6056 -0.7658
 5844SOL     OW17820   3.907   4.461   1.771 -0.0196  0.0843  0.6115
 5844SOL    HW117821   3.943   4.392   1.835  0.8400 -0.6049 -0.5793
 5844SOL    HW217822   3.810   4.444   1.756  0.1858 -0.9280  0.3003
 5845SOL     OW17823   4.878   4.629   1.093 -0.3422  0.0821  0.4983
 5845SOL    HW117824   4.912   4.705   1.038 -2.8932  0.5488 -0.5572
 5845SOL    HW217825   4.845   4.556   1.034 -1.0905 -0.3713  1.4405
 5846SOL     OW17826   5.219   4.058   0.474  0.0760  0.4991 -0.5334
 5846SOL    HW117827   5.153   3.989   0.445 -0.9304  0.6693  1.2371
 5846SOL    HW217828   5.306   4.013   0.498  0.4098  0.2007 -2.1731
 5847SOL     OW17829   3.432   0.169   0.799 -0.0285 -0.0044  0.6735
 5847SOL    HW117830   3.487   0.092   0.767 -0.3368 -0.7767  1.9169
 5847SOL    HW217831   3.465   0.253   0.757  1.1253 -0.6522  0.2323
 5848SOL     OW17832   5.318   0.373   0.542 -0.1559 -0.3476  0.3092
 5848SOL    HW117833   5.322   0.305   0.615 -1.1695 -1.8291 -0.9750
 5848SOL    HW217834   5.331   0.329   0.454  1.6470  1.5010 -0.4250
 5849SOL     OW17835   5.614   2.847   1.901  0.0724 -0.6391  0.1324
 5849SOL    HW117836   5.555   2.816   1.826  0.0317 -2.2702  0.7911
 5849SOL    HW217837   5.703   2.874   1.865 -0.5793  0.4774 -0.7092
 5850SOL     OW17838   3.735   3.515   0.549 -0.3535 -0.4312  0.9151
 5850SOL    HW117839   3.762   3.566   0.631 -1.9223 -0.4367  1.4718
 5850SOL    HW217840   3.649   3.466   0.567 -1.1341  0.1579 -0.9460
 5851SOL     OW17841   5.765   4.869   4.787  0.1830  0.2443  0.1604
 5851SOL    HW117842   5.749   4.774   4.811 -1.9643  0.3398 -0.7171
 5851SOL    HW217843   5.746   4.928   4.865  2.4082 -0.0355  0.9994
 5852SOL     OW17844   5.413   3.555   0.598 -0.3787  0.1594  0.2318
 5852SOL    HW117845   5.407   3.455   0.589  1.5848 -0.2563  2.4255
 5852SOL    HW217846   5.509   3.582   0.602 -0.8716  1.8762  1.8566
 5853SOL     OW17847   0.180   5.575   0.824 -0.5204  0.1149  0.2641
 5853SOL    HW117848   0.260   5.621   0.785  0.4317 -0.7870  1.1113
 5853SOL    HW217849   0.129   5.639   0.881 -0.2069  0.6029 -0.0004
 5854SOL     OW17850   5.484   5.043   5.907 -0.1365  0.7062 -0.2933
 5854SOL    HW117851   5.499   4.953   5.865 -1.4854  0.9418 -1.3351
 5854SOL    HW217852   5.470   5.030   6.006  0.2383 -0.1742 -0.3424
 5855SOL     OW17853   3.994   4.653   1.164 -0.1091 -0.1488  0.1915
 5855SOL    HW117854   3.919   4.691   1.111  0.1629 -0.7153 -0.6278
 5855SOL    HW217855   3.980   4.555   1.177  0.6867 -0.3506 -0.3468
 5856SOL     OW17856   4.911   5.859   0.878 -0.2873  0.1723  0.7384
 5856SOL    HW117857   4.963   5.914   0.813  1.7461  0.1293  2.2488
 5856SOL    HW217858   4.818   5.845   0.843  1.1138 -1.1641 -2.8820
 5857SOL     OW17859   3.528   4.556   0.577 -0.5282 -0.2898 -0.1633
 5857SOL    HW117860   3.615   4.562   0.527 -0.6226  0.8201 -0.2284
 5857SOL    HW217861   3.503   4.648   0.609 -1.9972 -0.4906 -0.6994
 5858SOL     OW17862   4.258   4.386   1.190  0.2996 -0.5744  0.1395
 5858SOL    HW117863   4.175   4.352   1.235  0.6783 -1.5885  0.1161
 5858SOL    HW217864   4.239   4.474   1.147 -0.4919 -0.3252  0.9617
 5859SOL     OW17865   4.834   5.933   5.341 -0.2669 -0.0278  0.5466
 5859SOL    HW117866   4.915   5.900   5.293  0.8009  1.1511  1.4680
 5859SOL    HW217867   4.862   5.995   5.415 -2.0245  0.5483  0.7730
 5860SOL     OW17868   4.236   3.530   0.738  0.4618  0.1453  0.1227
 5860SOL    HW117869   4.249   3.629   0.731  1.5951  0.1064  1.2477
 5860SOL    HW217870   4.317   3.489   0.779 -1.1720 -0.8375  2.6755
 5861SOL     OW17871   5.270   0.213   0.069  0.3861  0.1065 -0.1664
 5861SOL    HW117872   5.350   0.172   0.025  1.2336 -0.4613  1.7893
 5861SOL    HW217873   5.189   0.194   0.013  1.4065 -0.4167 -1.5484
 5862SOL     OW17874   4.064   4.001   0.997 -0.0884  0.1839 -0.1751
 5862SOL    HW117875   4.131   4.005   0.922 -0.0960 -0.6961 -0.2396
 5862SOL    HW217876   4.111   4.013   1.084  0.1338 -0.2398 -0.2335
 5863SOL     OW17877   5.072   4.877   0.312 -0.2110  0.5439  0.2609
 5863SOL    HW117878   5.102   4.938   0.386  0.0769 -0.1747  0.7525
 5863SOL    HW217879   4.979   4.844   0.332  0.1956 -0.3348  0.7605
 5864SOL     OW17880   2.511   3.560   1.106 -0.1855 -0.4709  0.0132
 5864SOL    HW117881   2.427   3.561   1.052 -0.0930 -1.8870 -0.1961
 5864SOL    HW217882   2.579   3.502   1.061 -0.0220 -1.5055  1.5029
 5865SOL     OW17883   5.137   5.012   1.617  0.6806  1.0221 -0.4339
 5865SOL    HW117884   5.120   4.914   1.609 -1.6582  1.4759 -2.1152
 5865SOL    HW217885   5.090   5.048   1.697  0.1867  1.0308 -0.7279
 5866SOL     OW17886   4.746   4.683   1.820 -0.1351 -0.4689  0.2705
 5866SOL    HW117887   4.756   4.705   1.723 -0.6882  2.2147  0.7401
 5866SOL    HW217888   4.667   4.732   1.857 -0.1958 -1.7763  2.0069
 5867SOL     OW17889   4.352   3.744   1.388  0.1382 -0.1514 -0.7628
 5867SOL    HW117890   4.344   3.843   1.378  1.4074  0.3239  1.9560
 5867SOL    HW217891   4.266   3.706   1.421  0.6092  0.6412  1.5378
 5868SOL     OW17892   5.304   3.907   2.246  0.0707 -0.8386 -0.3497
 5868SOL    HW117893   5.287   3.812   2.272 -1.4506  0.1122  2.6234
 5868SOL    HW217894   5.402   3.926   2.250  0.2375 -1.8310  0.8418
 5869SOL     OW17895   5.388   5.164   1.229  0.3127 -0.0144 -0.0775
 5869SOL    HW117896   5.366   5.166   1.326  0.8505  1.5102  0.0465
 5869SOL    HW217897   5.486   5.182   1.217  0.3566 -0.7413 -0.8801
 5870SOL     OW17898   5.788   2.134   1.966  0.1673 -0.3740 -0.1687
 5870SOL    HW117899   5.727   2.108   2.041  1.5650  0.7061  1.4202
 5870SOL    HW217900   5.837   2.218   1.990  2.4890 -1.3299 -1.2060
 5871SOL     OW17901   5.004   5.730   1.149 -0.8272  0.0593  0.4835
 5871SOL    HW117902   4.956   5.792   1.087 -0.8220 -1.6252 -1.3109
 5871SOL    HW217903   5.100   5.721   1.119 -1.5287 -3.0637 -1.2675
 5872SOL     OW17904   3.960   5.848   1.217 -0.2226  0.1355  0.1708
 5872SOL    HW117905   3.983   5.760   1.175  0.1983 -0.6572  1.9656
 5872SOL    HW217906   3.865   5.871   1.196 -0.2180 -0.5318 -0.6495
 5873SOL     OW17907   0.308   5.851   1.588  1.1494  0.2787 -0.6408
 5873SOL    HW117908   0.208   5.845   1.587  1.0847  1.1605 -1.6134
 5873SOL    HW217909   0.340   5.880   1.498  2.3279 -0.5266 -0.4980
 5874SOL     OW17910   5.375   4.461   1.505 -0.0705 -0.0641  0.4189
 5874SOL    HW117911   5.408   4.555   1.504 -0.2405  0.1587  3.8357
 5874SOL    HW217912   5.275   4.460   1.495 -0.1584  0.2148  1.2168
 5875SOL     OW17913   4.341   5.158   0.615  0.5200  0.1650 -0.0958
 5875SOL    HW117914   4.420   5.098   0.627  0.1728 -0.4812 -0.8857
 5875SOL    HW217915   4.315   5.198   0.703  1.2292 -0.2518  0.3085
 5876SOL     OW17916   5.359   4.781   1.593 -0.1466 -0.1078 -0.2108
 5876SOL    HW117917   5.369   4.791   1.692 -2.3475 -0.6753  0.1224
 5876SOL    HW217918   5.264   4.760   1.571  0.1809  0.5081 -2.5046
 5877SOL     OW17919   5.237   4.754   2.803 -0.2914 -0.2648 -0.5978
 5877SOL    HW117920   5.322   4.720   2.764  0.9955  1.4862  0.5648
 5877SOL    HW217921   5.232   4.853   2.793 -1.2228 -0.0903  1.1604
 5878SOL     OW17922   5.034   5.401   5.289 -0.5885  0.5437 -0.4837
 5878SOL    HW117923   5.029   5.307   5.323 -0.6038  0.1084 -1.6422
 5878SOL    HW217924   5.003   5.464   5.360  1.4107 -0.1326  1.0863
 5879SOL     OW17925   5.475   4.852   0.638 -0.2599  1.2255 -0.8059
 5879SOL    HW117926   5.479   4.782   0.566  1.4570  0.1779  0.2464
 5879SOL    HW217927   5.460   4.808   0.726 -0.5157  2.3309 -0.2847
 5880SOL     OW17928   5.766   5.818   0.818 -0.1667 -0.4456 -0.2653
 5880SOL    HW117929   5.708   5.737   0.808 -0.2154 -0.5355  0.7193
 5880SOL    HW217930   5.728   5.878   0.889  0.6641 -0.2590  0.0277
 5881SOL     OW17931   5.719   4.409   0.385  0.3580 -0.3265 -0.3922
 5881SOL    HW117932   5.793   4.471   0.360  1.0826 -1.0415 -0.0185
 5881SOL    HW217933   5.733   4.375   0.478  0.1243 -1.2949 -0.7019
 5882SOL     OW17934   5.880   5.645   0.476 -0.6879  0.1799 -0.4098
 5882SOL    HW117935   5.849   5.558   0.437 -0.4919 -1.2869  2.4863
 5882SOL    HW217936   5.948   5.686   0.415 -0.5037 -1.8685 -1.6816
 5883SOL     OW17937   3.839   4.259   2.441  0.4405 -0.0145 -0.5250
 5883SOL    HW117938   3.792   4.180   2.480  1.7880 -0.5972 -0.0261
 5883SOL    HW217939   3.903   4.296   2.509  0.2381  1.1654 -0.9521
 5884SOL     OW17940   3.811   4.685   0.707  0.0819  0.2118  0.0251
 5884SOL    HW117941   3.799   4.778   0.672 -0.7747  0.1259  0.0735
 5884SOL    HW217942   3.865   4.632   0.641 -1.6088  0.0173 -1.2843
 5885SOL     OW17943   4.934   4.291   1.504 -0.5546 -0.2232 -0.6457
 5885SOL    HW117944   4.961   4.269   1.410 -0.7665  0.2440 -0.8228
 5885SOL    HW217945   4.844   4.252   1.523 -0.6545 -0.0419 -0.7463
 5886SOL     OW17946   4.576   2.999   1.394  0.1628 -0.2755 -0.0614
 5886SOL    HW117947   4.643   3.068   1.424 -0.7760  0.9174 -0.6448
 5886SOL    HW217948   4.522   2.970   1.473  1.3269 -1.2551  0.4197
 5887SOL     OW17949   2.120   5.081   5.833 -0.0741  0.1204 -0.2505
 5887SOL    HW117950   2.124   5.013   5.760  1.4423  0.8635 -0.9257
 5887SOL    HW217951   2.156   5.042   5.918  0.5850 -0.0150 -0.5811
 5888SOL     OW17952   0.115   0.367   1.539 -0.4525  0.4760 -0.6004
 5888SOL    HW117953   0.205   0.345   1.577 -0.3828  0.0055 -1.0222
 5888SOL    HW217954   0.126   0.405   1.447 -0.5976  1.9121 -0.0558
 5889SOL     OW17955   3.719   3.818   1.377  0.0767  0.0425 -0.2500
 5889SOL    HW117956   3.797   3.871   1.412 -0.8508  0.2532  1.6046
 5889SOL    HW217957   3.694   3.748   1.443 -1.3550  0.0226 -0.7783
 5890SOL     OW17958   4.749   5.002   1.419  0.6172 -0.3356 -0.1875
 5890SOL    HW117959   4.652   5.024   1.424  1.0708  2.3754 -1.3036
 5890SOL    HW217960   4.777   4.996   1.323  1.6233 -0.8375  0.1178
 5891SOL     OW17961   0.546   4.417   0.006  0.1225 -0.0931 -0.0642
 5891SOL    HW117962   0.594   4.410   0.093 -0.5562  0.2061  0.3354
 5891SOL    HW217963   0.543   4.327  -0.038  0.2205 -0.2959  0.3463
 5892SOL     OW17964   5.284   4.289   0.584 -0.1420 -0.3586 -0.3437
 5892SOL    HW117965   5.303   4.343   0.502  0.5684 -0.3415 -0.1717
 5892SOL    HW217966   5.259   4.196   0.557  0.4608 -0.4600 -0.5738
 5893SOL     OW17967   5.962   3.451   0.940 -0.1527 -0.6426  0.0399
 5893SOL    HW117968   5.912   3.400   0.870 -0.7246 -0.7549  0.5139
 5893SOL    HW217969   6.039   3.499   0.899 -0.0062 -1.3498 -0.5263
 5894SOL     OW17970   4.558   5.216   1.123 -0.2631  0.1150  0.5767
 5894SOL    HW117971   4.630   5.185   1.186 -0.7829 -2.0531  0.1924
 5894SOL    HW217972   4.598   5.239   1.035 -0.0781 -2.2542 -0.0299
 5895SOL     OW17973   4.497   4.531   5.068  0.0020  0.0691  0.4910
 5895SOL    HW117974   4.560   4.460   5.100  0.0314  0.8621  2.3378
 5895SOL    HW217975   4.446   4.497   4.989  1.1807 -1.3843  0.3071
 5896SOL     OW17976   5.812   3.832   5.886 -0.0852  0.5654 -0.1729
 5896SOL    HW117977   5.780   3.737   5.883  0.7564  0.2728 -0.0100
 5896SOL    HW217978   5.791   3.872   5.975  0.0501  0.3618 -0.0509
 5897SOL     OW17979   5.147   3.610   1.079 -0.3373  0.2069  0.1683
 5897SOL    HW117980   5.163   3.638   0.984 -2.3565  1.5564  0.1658
 5897SOL    HW217981   5.079   3.537   1.081 -1.5447  1.3025  0.6094
 5898SOL     OW17982   4.529   3.156   0.990  0.0992 -0.7817  0.3682
 5898SOL    HW117983   4.552   3.062   0.962  1.5111  0.0010 -1.2983
 5898SOL    HW217984   4.610   3.200   1.028 -0.1101  0.2402 -0.3289
 5899SOL     OW17985   4.076   5.673   5.745  0.1730 -0.8714  0.2524
 5899SOL    HW117986   4.170   5.706   5.749  0.1380 -0.7134 -0.1873
 5899SOL    HW217987   4.014   5.751   5.757  0.0882 -0.7452 -0.8901
 5900SOL     OW17988   3.966   4.920   2.882 -0.9663  0.1394  0.5364
 5900SOL    HW117989   3.892   4.919   2.815 -0.6953 -0.0166  0.2314
 5900SOL    HW217990   4.053   4.905   2.835 -0.8097 -0.3456  0.9714
 5901SOL     OW17991   2.869   4.084   2.255  0.2100  0.5173 -0.0230
 5901SOL    HW117992   2.850   4.128   2.168 -0.1087  1.0129  0.2887
 5901SOL    HW217993   2.796   4.106   2.320 -1.4214 -2.5962 -0.5871
 5902SOL     OW17994   4.077   4.303   2.613 -0.2717  0.0249  0.2458
 5902SOL    HW117995   4.161   4.291   2.561 -0.6488 -0.0139 -0.3655
 5902SOL    HW217996   4.061   4.400   2.629 -0.5257  0.0864 -0.3436
 5903SOL     OW17997   4.087   4.679   3.038 -0.2278  0.2907 -0.2441
 5903SOL    HW117998   4.040   4.748   2.983  0.2760  0.1563 -0.8595
 5903SOL    HW217999   4.179   4.711   3.059  0.6250 -0.9070 -2.0037
 5904SOL     OW18000   1.223   5.375   1.814 -0.1880 -0.3682  0.1616
 5904SOL    HW118001   1.293   5.420   1.758 -0.8205 -0.8357 -1.0491
 5904SOL    HW218002   1.266   5.305   1.870  0.7066  1.2190  1.5518
 5905SOL     OW18003   4.509   3.559   3.692  0.3980 -0.0459  0.0358
 5905SOL    HW118004   4.490   3.463   3.714  1.2484  0.1556  1.7889
 5905SOL    HW218005   4.608   3.575   3.695  0.4023  0.5657 -1.7983
 5906SOL     OW18006   5.164   5.300   3.233  0.1696  0.2834 -0.2739
 5906SOL    HW118007   5.207   5.210   3.227 -0.3341 -0.0041  0.4191
 5906SOL    HW218008   5.235   5.370   3.245  0.6118  0.0662 -1.4375
 5907SOL     OW18009   4.361   5.511   3.428  0.5832 -0.1739  0.2342
 5907SOL    HW118010   4.296   5.561   3.486 -1.1978 -1.0043 -0.9412
 5907SOL    HW218011   4.392   5.571   3.354  1.4206  0.3129  0.9577
 5908SOL     OW18012   4.742   3.693   4.901 -0.3922 -0.3073 -0.1902
 5908SOL    HW118013   4.811   3.764   4.887 -1.5688  0.8275 -0.3609
 5908SOL    HW218014   4.707   3.699   4.995  1.0244 -2.0882  0.5269
 5909SOL     OW18015   4.944   4.375   2.299  0.6423 -0.2555 -0.2066
 5909SOL    HW118016   4.852   4.363   2.337  0.2823  2.1386 -0.1287
 5909SOL    HW218017   4.940   4.370   2.199  0.7179 -1.5971 -0.1607
 5910SOL     OW18018   3.505   4.691   4.981 -0.2024 -0.3402 -0.3582
 5910SOL    HW118019   3.565   4.675   5.059 -0.6526 -0.1687  0.0205
 5910SOL    HW218020   3.426   4.631   4.986 -0.9564  0.6674  0.0858
 5911SOL     OW18021   3.932   5.343   2.694 -0.8654 -0.4966 -0.0254
 5911SOL    HW118022   4.007   5.316   2.755  0.0439 -1.8151 -1.6451
 5911SOL    HW218023   3.951   5.433   2.655  0.3941 -1.2008 -1.1218
 5912SOL     OW18024   5.001   5.880   3.931  0.0822 -0.5271 -0.0627
 5912SOL    HW118025   4.932   5.834   3.874 -0.9021  1.9062 -0.9890
 5912SOL    HW218026   5.089   5.877   3.885 -0.3085 -0.1606 -0.8586
 5913SOL     OW18027   4.479   4.291   2.733  1.0307 -0.1699  0.3115
 5913SOL    HW118028   4.553   4.346   2.769  1.2744 -1.0416  1.1935
 5913SOL    HW218029   4.439   4.236   2.807  0.6761 -1.0205 -0.4882
 5914SOL     OW18030   5.806   4.173   2.510  0.2174  0.4197  0.6735
 5914SOL    HW118031   5.826   4.077   2.526  0.8907  0.6653  1.3839
 5914SOL    HW218032   5.885   4.217   2.467 -0.5871  0.3711 -0.9295
 5915SOL     OW18033   4.073   5.861   1.476  0.0776 -0.3056 -0.2638
 5915SOL    HW118034   4.020   5.857   1.391  1.8310 -2.3340 -1.3459
 5915SOL    HW218035   4.167   5.835   1.457  0.1728 -2.4237  2.5778
 5916SOL     OW18036   4.499   5.758   2.748 -0.2042  0.1723  0.3183
 5916SOL    HW118037   4.559   5.782   2.671  0.5098  0.2039  0.8697
 5916SOL    HW218038   4.484   5.839   2.805 -1.8967  0.4995 -0.5505
 5917SOL     OW18039   0.286   5.442   1.879 -0.3036  0.1493  0.5162
 5917SOL    HW118040   0.316   5.354   1.842 -3.0984 -0.2838 -0.9761
 5917SOL    HW218041   0.328   5.516   1.825 -0.5974 -0.3709 -0.4482
 5918SOL     OW18042   4.222   4.797   1.986 -0.3533  0.2771  0.8451
 5918SOL    HW118043   4.233   4.809   2.085  0.2373 -0.2341  0.8444
 5918SOL    HW218044   4.146   4.854   1.955 -1.8382 -1.0134  1.9171
 5919SOL     OW18045   4.301   5.733   1.117  0.1580 -0.0445 -0.0762
 5919SOL    HW118046   4.359   5.679   1.056  0.4257 -0.2436  0.3460
 5919SOL    HW218047   4.207   5.733   1.084 -0.2394 -2.2719  0.8573
 5920SOL     OW18048   3.886   4.276   2.008 -0.4886  0.6256 -0.1445
 5920SOL    HW118049   3.897   4.184   2.045  0.9515  0.9449  0.2829
 5920SOL    HW218050   3.822   4.328   2.065 -0.5600  0.1876  0.1728
 5921SOL     OW18051   4.865   4.723   3.323  0.0815 -0.2076  0.4687
 5921SOL    HW118052   4.950   4.760   3.286 -0.1544 -0.3969 -0.2727
 5921SOL    HW218053   4.847   4.633   3.283 -0.9661  0.2426 -0.1172
 5922SOL     OW18054   3.894   4.271   3.299  0.1699  0.6402 -0.5121
 5922SOL    HW118055   3.921   4.270   3.395  0.1080 -0.1035 -0.4951
 5922SOL    HW218056   3.894   4.365   3.265 -1.3778  1.0955  0.6536
 5923SOL     OW18057   0.004   5.271   2.141 -0.5037  0.0284 -0.1104
 5923SOL    HW118058   0.051   5.323   2.212 -0.0624  0.9432 -1.0585
 5923SOL    HW218059   0.042   5.178   2.138  0.3265  0.3517  0.0322
 5924SOL     OW18060   4.380   5.127   2.303 -0.0345 -0.2936 -0.4137
 5924SOL    HW118061   4.367   5.224   2.322  0.0147 -0.1112 -1.3035
 5924SOL    HW218062   4.478   5.108   2.295  0.1609 -0.9536  2.4996
 5925SOL     OW18063   0.385   5.093   2.601 -0.2113  0.0512  0.3600
 5925SOL    HW118064   0.296   5.125   2.633 -1.4489 -1.8054 -1.0147
 5925SOL    HW218065   0.386   5.094   2.501  1.6128  0.7011  0.3520
 5926SOL     OW18066   5.424   4.953   2.991  0.1893 -0.3019  0.5283
 5926SOL    HW118067   5.466   4.869   3.025 -1.1457 -1.4412 -0.5150
 5926SOL    HW218068   5.494   5.023   2.979  1.4844 -1.5593  0.5118
 5927SOL     OW18069   3.537   4.089   3.653 -0.1943  0.8329  0.0069
 5927SOL    HW118070   3.504   4.146   3.577  1.1012  2.1269  0.3756
 5927SOL    HW218071   3.501   4.126   3.739 -3.6131 -1.9732  0.0154
 5928SOL     OW18072   4.700   6.003   2.404  0.1964 -0.2527  0.1239
 5928SOL    HW118073   4.608   5.966   2.414  0.5343 -1.2726 -0.3672
 5928SOL    HW218074   4.726   6.005   2.307  2.0328 -3.5419  0.3999
 5929SOL     OW18075   4.481   0.030   3.945  0.1631 -0.1448  0.2992
 5929SOL    HW118076   4.386   0.012   3.916 -0.4185  2.9193 -0.1053
 5929SOL    HW218077   4.543  -0.028   3.893 -1.4361 -1.7446  0.0768
 5930SOL     OW18078   4.395   3.642   2.349 -0.7620 -0.2990  0.3700
 5930SOL    HW118079   4.493   3.630   2.334 -0.0819  3.8560  0.3890
 5930SOL    HW218080   4.352   3.674   2.265 -0.9052  3.2257  1.6264
 5931SOL     OW18081   4.592   4.639   2.961  0.4102  0.1407  0.1947
 5931SOL    HW118082   4.684   4.609   2.986  1.0400 -0.3136 -2.3541
 5931SOL    HW218083   4.598   4.707   2.888 -1.2907 -0.6811 -0.7740
 5932SOL     OW18084   5.420   5.622   2.753 -0.5394  0.0883 -0.1496
 5932SOL    HW118085   5.366   5.564   2.693 -1.2625  1.9382 -1.3973
 5932SOL    HW218086   5.442   5.707   2.705  1.0060  0.5947  1.3687
 5933SOL     OW18087   4.922   0.444   3.282  0.2260 -0.4547  0.0272
 5933SOL    HW118088   4.841   0.396   3.316 -0.4038  0.3810 -0.2474
 5933SOL    HW218089   4.940   0.416   3.188  1.5278 -2.2098  0.7443
 5934SOL     OW18090   3.835   3.010   4.162  0.1875  0.3667 -0.7666
 5934SOL    HW118091   3.756   2.952   4.180 -0.2456  1.5906  1.5555
 5934SOL    HW218092   3.820   3.100   4.201  2.2527  1.0037 -1.3293
 5935SOL     OW18093   3.939   0.639   3.202  0.2771  0.7278 -0.3705
 5935SOL    HW118094   3.976   0.641   3.295 -0.1020 -0.1820 -0.1938
 5935SOL    HW218095   3.977   0.562   3.153 -3.1153 -1.7945  0.5856
 5936SOL     OW18096   5.831   0.072   2.670 -0.1463 -0.2777  0.4412
 5936SOL    HW118097   5.817   0.134   2.747 -1.0405  1.7023 -1.2276
 5936SOL    HW218098   5.818   0.122   2.584  0.8975 -2.3821 -1.0200
 5937SOL     OW18099   4.531   3.660   1.568  0.3958  0.5624 -0.0268
 5937SOL    HW118100   4.492   3.675   1.659  0.3580  1.1490 -0.1351
 5937SOL    HW218101   4.467   3.692   1.498  0.5728  0.4374 -0.2491
 5938SOL     OW18102   5.375   3.438   2.439 -0.4211 -0.4853 -0.1576
 5938SOL    HW118103   5.398   3.411   2.532  0.3558  1.3955  0.2352
 5938SOL    HW218104   5.427   3.383   2.374 -0.1292 -1.0450  0.5407
 5939SOL     OW18105   0.853   5.821   2.117  0.4206  0.4372  0.0487
 5939SOL    HW118106   0.782   5.752   2.126 -0.7330  1.5571 -0.2139
 5939SOL    HW218107   0.872   5.861   2.206  1.6772 -0.7505  0.3463
 5940SOL     OW18108   4.653   4.865   3.743  0.0825  0.4621 -0.2652
 5940SOL    HW118109   4.664   4.793   3.675  0.2704  2.1540 -2.1164
 5940SOL    HW218110   4.556   4.885   3.755 -0.0829 -1.0024  1.3417
 5941SOL     OW18111   5.558   4.441   3.894 -0.2078  0.1840 -0.0988
 5941SOL    HW118112   5.459   4.455   3.902 -0.1187  0.9062 -0.2010
 5941SOL    HW218113   5.589   4.468   3.803  0.2345  0.8948  0.2576
 5942SOL     OW18114   4.194   4.898   2.739 -0.6429  0.6537 -0.0406
 5942SOL    HW118115   4.256   4.820   2.731 -0.4505  0.8168 -0.1192
 5942SOL    HW218116   4.241   4.982   2.714 -0.9673  0.7462 -0.3552
 5943SOL     OW18117   5.107   4.621   3.008  0.3840 -0.1677  0.0654
 5943SOL    HW118118   5.137   4.673   2.928  2.9117 -0.7423  0.5380
 5943SOL    HW218119   5.108   4.680   3.089 -1.5981  0.2598 -0.1765
 5944SOL     OW18120   5.141   3.424   0.286  0.3448 -0.0634  0.3216
 5944SOL    HW118121   5.141   3.477   0.371 -0.6058  0.8932 -0.2478
 5944SOL    HW218122   5.053   3.434   0.240  1.1666  0.2707 -1.2807
 5945SOL     OW18123   4.493   4.746   2.310  0.1671  0.2429  0.3554
 5945SOL    HW118124   4.525   4.685   2.237 -1.3028 -0.9413  0.6609
 5945SOL    HW218125   4.440   4.820   2.270 -0.7504 -0.4780  0.2149
 5946SOL     OW18126   4.028   0.385   4.151  0.0694  0.3539  0.0391
 5946SOL    HW118127   4.067   0.316   4.090  1.6131 -0.1791  1.5450
 5946SOL    HW218128   3.986   0.458   4.097 -1.5394 -1.6782 -1.6072
 5947SOL     OW18129   5.051   4.302   3.075  0.6684 -0.2816  0.6838
 5947SOL    HW118130   4.985   4.371   3.105 -0.4407 -0.2790 -1.5317
 5947SOL    HW218131   5.144   4.335   3.093  0.1463  1.3258  0.6356
 5948SOL     OW18132   5.195   5.385   4.209  0.2946 -0.0171 -0.0191
 5948SOL    HW118133   5.116   5.350   4.259 -0.6624  0.8417 -0.8689
 5948SOL    HW218134   5.228   5.316   4.145 -1.3284  0.4158 -1.4024
 5949SOL     OW18135   5.881   5.848   2.505  0.1570  0.3364  0.2163
 5949SOL    HW118136   5.811   5.815   2.442  0.1410 -0.2382  0.5339
 5949SOL    HW218137   5.843   5.920   2.563 -0.2643 -0.2093  0.6182
 5950SOL     OW18138   4.497   3.611   3.416  0.2676 -0.0573  0.3752
 5950SOL    HW118139   4.468   3.528   3.369 -1.1040  0.2843  0.5811
 5950SOL    HW218140   4.508   3.592   3.514 -1.5893  0.3336  0.6949
 5951SOL     OW18141   5.916   4.590   1.884  0.3458 -0.4176 -0.0200
 5951SOL    HW118142   5.860   4.539   1.950 -1.3747  0.2870 -0.8773
 5951SOL    HW218143   5.982   4.528   1.842  1.7620 -0.8245  2.5597
 5952SOL     OW18144   4.851   5.589   2.342 -0.1147  0.3428 -0.3733
 5952SOL    HW118145   4.803   5.503   2.359  3.6486 -1.8081  0.4997
 5952SOL    HW218146   4.824   5.626   2.253 -1.5949 -1.9062 -0.9355
 5953SOL     OW18147   5.271   3.732   2.860 -0.4988 -0.1752  0.6621
 5953SOL    HW118148   5.319   3.794   2.922 -1.7580 -0.4569  1.9765
 5953SOL    HW218149   5.329   3.653   2.839  0.2036  0.2725  0.8924
 5954SOL     OW18150   4.065   0.435   3.041  0.3902 -0.1593  0.3926
 5954SOL    HW118151   4.031   0.342   3.039  1.4926 -0.6034  0.9440
 5954SOL    HW218152   4.123   0.452   2.961 -1.3228  0.6928 -0.7136
 5955SOL     OW18153   3.799   3.631   0.794 -0.3131  0.5059  0.1162
 5955SOL    HW118154   3.818   3.728   0.805  0.3031  0.1384  3.0443
 5955SOL    HW218155   3.744   3.598   0.871  1.8203 -1.9828  0.7310
 5956SOL     OW18156   5.027   3.695   1.935  0.6064 -0.4147 -0.3263
 5956SOL    HW118157   5.076   3.623   1.886 -0.2765 -0.4529 -1.1972
 5956SOL    HW218158   5.066   3.784   1.910  0.4837 -0.4692 -0.7302
 5957SOL     OW18159   3.288   5.375   3.113  0.2207  0.0429 -0.3011
 5957SOL    HW118160   3.250   5.370   3.021  0.6863  1.2735 -0.5780
 5957SOL    HW218161   3.335   5.289   3.134 -2.6232 -1.5228  0.0595
 5958SOL     OW18162   5.433   5.918   1.890  0.3619 -0.2260 -0.5171
 5958SOL    HW118163   5.490   5.838   1.869 -0.3803 -0.8489 -0.1897
 5958SOL    HW218164   5.342   5.905   1.852  0.2974  0.5703 -0.6472
 5959SOL     OW18165   3.632   4.167   3.186 -0.3729  0.0926 -0.0504
 5959SOL    HW118166   3.714   4.207   3.226 -1.0144  1.4278 -0.0043
 5959SOL    HW218167   3.599   4.227   3.112 -0.9902 -0.7106 -0.4434
 5960SOL     OW18168   0.150   4.017   2.263 -0.3448 -0.2418 -0.0168
 5960SOL    HW118169   0.106   3.938   2.220 -0.2926  0.9408 -2.4314
 5960SOL    HW218170   0.248   3.999   2.273 -0.1609 -0.1904 -1.4523
 5961SOL     OW18171   4.420   5.124   2.016 -0.0998 -0.2505  0.3372
 5961SOL    HW118172   4.476   5.206   2.026  1.0031 -1.0880  1.3333
 5961SOL    HW218173   4.348   5.124   2.086  0.1505 -0.3151  0.5972
 5962SOL     OW18174   5.024   3.985   1.533 -0.0407  0.6845  0.2327
 5962SOL    HW118175   4.997   4.050   1.604  0.3024  1.5915 -0.4399
 5962SOL    HW218176   5.124   3.978   1.531  0.0348  1.6648 -0.9789
 5963SOL     OW18177   4.255   0.138   3.549 -0.5925 -0.1581 -0.1800
 5963SOL    HW118178   4.223   0.207   3.613 -1.6878 -2.2874  1.7284
 5963SOL    HW218179   4.177   0.101   3.498 -0.2304 -0.8850 -0.2241
 5964SOL     OW18180   4.479   5.704   2.221 -0.2740  0.0859 -0.1906
 5964SOL    HW118181   4.567   5.684   2.177  0.0953 -1.4356  1.1439
 5964SOL    HW218182   4.436   5.619   2.249 -2.2008  0.8209 -0.7924
 5965SOL     OW18183   4.522   4.493   1.858 -0.0768 -0.3079 -0.2431
 5965SOL    HW118184   4.594   4.540   1.807  0.3352 -0.3320  0.3062
 5965SOL    HW218185   4.524   4.396   1.835  0.3839 -0.3899  0.1344
 5966SOL     OW18186   4.938   4.101   3.263  0.0948  0.2476 -0.1742
 5966SOL    HW118187   4.891   4.045   3.195 -0.7670 -0.1703  0.7415
 5966SOL    HW218188   4.987   4.175   3.217 -3.0831  1.9722 -1.1515
 5967SOL     OW18189   4.592   2.297   2.738  0.2641 -0.3984  0.6150
 5967SOL    HW118190   4.505   2.337   2.766  0.2738 -0.9237  1.4385
 5967SOL    HW218191   4.652   2.369   2.704 -0.4965 -0.0322  0.0030
 5968SOL     OW18192   4.292   3.243   5.172 -0.3307  0.9052 -0.7241
 5968SOL    HW118193   4.356   3.292   5.231  0.8128 -0.9261 -0.3516
 5968SOL    HW218194   4.334   3.230   5.082 -0.2042 -0.1586 -0.5299
 5969SOL     OW18195   3.987   4.820   2.229  0.2385  0.2036  1.1935
 5969SOL    HW118196   4.012   4.866   2.144 -1.8046  0.1160  0.4749
 5969SOL    HW218197   4.018   4.725   2.226  0.0615  0.1592  0.4663
 5970SOL     OW18198   5.307   4.509   2.482 -0.2134  0.1269  0.3160
 5970SOL    HW118199   5.335   4.584   2.542  0.7704  0.2866 -0.3073
 5970SOL    HW218200   5.381   4.490   2.417 -0.3752 -1.5050  0.5680
 5971SOL     OW18201   5.685   5.427   3.275 -0.5165 -0.4006 -0.4179
 5971SOL    HW118202   5.606   5.390   3.324 -0.0633 -0.1479  0.5374
 5971SOL    HW218203   5.755   5.453   3.341 -0.0740  0.4030 -1.1814
 5972SOL     OW18204   5.164   5.566   2.275 -0.2065  0.4381 -1.0852
 5972SOL    HW118205   5.224   5.491   2.302  0.0106  0.6531 -0.9711
 5972SOL    HW218206   5.073   5.551   2.313  0.1899  0.9378  0.1243
 5973SOL     OW18207   5.478   4.425   2.084  0.3362  0.2761  0.1777
 5973SOL    HW118208   5.502   4.367   2.006  1.1425  1.0565 -0.1724
 5973SOL    HW218209   5.379   4.422   2.098  0.1025  0.5811 -1.2555
 5974SOL     OW18210   4.620   5.481   3.819 -0.0552  0.1662 -0.2016
 5974SOL    HW118211   4.621   5.564   3.875 -0.5811  0.4753 -0.6461
 5974SOL    HW218212   4.529   5.466   3.782 -0.6113 -1.9490  1.8179
 5975SOL     OW18213   5.449   5.412   3.376 -0.0929  0.0104  0.0669
 5975SOL    HW118214   5.434   5.483   3.445 -1.7628  0.1469 -0.3785
 5975SOL    HW218215   5.417   5.324   3.412  0.5112 -0.2250  0.0378
 5976SOL     OW18216   3.734   5.370   3.024 -0.4094 -0.0747  0.3047
 5976SOL    HW118217   3.722   5.316   2.941 -2.7991  0.8189 -0.0122
 5976SOL    HW218218   3.753   5.309   3.101  0.3413 -1.0427 -0.6296
 5977SOL     OW18219   5.862   5.008   3.200 -0.2366  0.2787  0.2425
 5977SOL    HW118220   5.844   4.936   3.133 -1.2897  1.2826 -0.6061
 5977SOL    HW218221   5.896   4.967   3.285  1.1150 -1.0158 -0.8774
 5978SOL     OW18222   4.626   3.524   1.245  0.2823  0.2825 -0.5101
 5978SOL    HW118223   4.630   3.549   1.342  0.4227 -1.1468 -0.1174
 5978SOL    HW218224   4.620   3.607   1.189  0.2787  1.1347  0.7091
 5979SOL     OW18225   3.998   0.165   3.442 -0.2495 -0.5404  0.2572
 5979SOL    HW118226   4.007   0.218   3.357 -3.1580 -2.3782 -1.3641
 5979SOL    HW218227   3.914   0.192   3.489  1.0272  0.0250  2.3481
 5980SOL     OW18228   3.629   3.629   3.118  0.0536 -0.0403  0.1489
 5980SOL    HW118229   3.702   3.604   3.055 -0.8312  0.7298 -1.2111
 5980SOL    HW218230   3.643   3.722   3.151 -0.1728  0.0172  0.0857
 5981SOL     OW18231   5.330   0.972   4.518  0.0369 -0.3861 -0.5142
 5981SOL    HW118232   5.387   1.036   4.570 -0.0232 -0.3522 -0.4902
 5981SOL    HW218233   5.359   0.972   4.423 -0.9349  0.8042 -0.8447
 5982SOL     OW18234   5.492   4.012   3.040 -0.3901 -0.6121 -0.2668
 5982SOL    HW118235   5.406   4.013   2.989 -0.7672 -0.5927  0.3610
 5982SOL    HW218236   5.498   4.095   3.096  0.5168 -0.1132 -1.0990
 5983SOL     OW18237   0.837   4.060   1.476 -0.0021 -0.4858 -0.3041
 5983SOL    HW118238   0.861   3.979   1.422 -0.6901 -0.2347 -1.0009
 5983SOL    HW218239   0.886   4.139   1.440  0.4624 -0.5349  0.2074
 5984SOL     OW18240   4.021   4.935   1.664  0.2775 -0.1703  0.1732
 5984SOL    HW118241   4.003   5.028   1.698  0.0538 -0.4108  0.7311
 5984SOL    HW218242   3.938   4.880   1.675  0.6150 -0.6208  0.4733
 5985SOL     OW18243   5.526   0.804   3.433  0.2070  0.3553 -0.1929
 5985SOL    HW118244   5.569   0.856   3.507 -1.5865  1.6214  0.0138
 5985SOL    HW218245   5.526   0.858   3.350 -0.1169 -0.0198 -0.4397
 5986SOL     OW18246   4.233   4.654   0.707 -0.1303 -0.1885  0.2478
 5986SOL    HW118247   4.203   4.588   0.775  0.1560  0.0615  0.6166
 5986SOL    HW218248   4.221   4.747   0.742  0.6028 -0.0719  0.2052
 5987SOL     OW18249   4.834   5.425   3.676  0.9032  0.1878 -0.5000
 5987SOL    HW118250   4.876   5.334   3.672 -0.0967 -0.2624 -1.5609
 5987SOL    HW218251   4.758   5.423   3.740  2.1783  0.8771  1.0757
 5988SOL     OW18252   4.318   5.100   2.593  0.5354  0.3077  0.0972
 5988SOL    HW118253   4.352   5.193   2.595  0.3152  0.3859  0.2108
 5988SOL    HW218254   4.303   5.072   2.497  0.6377  0.3754  0.0621
 5989SOL     OW18255   0.656   0.735   3.987 -0.4912  0.4551 -0.4026
 5989SOL    HW118256   0.732   0.770   4.042 -2.0453  1.2344  1.3287
 5989SOL    HW218257   0.639   0.639   4.010  1.7031 -0.6778 -2.8616
 5990SOL     OW18258   4.507   5.164   3.157 -0.7963  0.2756 -0.4288
 5990SOL    HW118259   4.558   5.135   3.238 -0.2210  1.6791 -0.2550
 5990SOL    HW218260   4.526   5.102   3.081  0.3425  0.1498 -0.0627
 5991SOL     OW18261   5.266   5.185   4.048  0.1649 -0.2080 -0.3800
 5991SOL    HW118262   5.285   5.248   3.973  0.8549 -0.2581 -0.2463
 5991SOL    HW218263   5.300   5.094   4.025  0.0123 -0.3193 -0.1726
 5992SOL     OW18264   4.990   4.491   3.454 -0.0891 -0.8592  0.2521
 5992SOL    HW118265   5.084   4.524   3.446  0.0762 -1.1588  0.9033
 5992SOL    HW218266   4.984   4.424   3.528 -0.5710 -1.7727 -0.6007
 5993SOL     OW18267   5.152   4.644   2.078  0.1208  0.0274  0.1002
 5993SOL    HW118268   5.084   4.717   2.084 -0.1811 -0.2819  0.4965
 5993SOL    HW218269   5.152   4.606   1.986  1.1496  1.3508 -0.4830
 5994SOL     OW18270   4.232   4.922   2.231 -0.1929  0.2684 -0.5492
 5994SOL    HW118271   4.282   5.002   2.264  1.0862 -1.1836  1.2191
 5994SOL    HW218272   4.144   4.916   2.277 -0.6373  1.0424 -1.2617
 5995SOL     OW18273   3.417   4.900   2.436 -0.4646 -0.1549 -0.3611
 5995SOL    HW118274   3.499   4.957   2.429  0.5874 -1.7436 -1.7849
 5995SOL    HW218275   3.373   4.894   2.346 -0.3206 -1.8576 -0.3552
 5996SOL     OW18276   5.248   3.782   3.225  0.3044  0.5569 -0.3368
 5996SOL    HW118277   5.346   3.780   3.204  0.1787 -0.2135 -0.8861
 5996SOL    HW218278   5.231   3.728   3.308  0.3582  0.8101 -0.1585
 5997SOL     OW18279   3.372   5.200   3.455 -0.3914 -0.2919 -0.4047
 5997SOL    HW118280   3.425   5.116   3.454 -0.2383 -0.1944 -0.7873
 5997SOL    HW218281   3.275   5.178   3.445 -0.3486 -0.4216 -0.5469
 5998SOL     OW18282   5.211   0.200   2.504 -0.6110  0.0306 -0.2996
 5998SOL    HW118283   5.169   0.118   2.466 -0.9414  0.4018 -0.7454
 5998SOL    HW218284   5.187   0.208   2.601  0.2435 -0.9273  0.0054
 5999SOL     OW18285   4.110   5.615   3.500 -0.2011  0.0653  0.3781
 5999SOL    HW118286   4.059   5.673   3.437 -3.8976 -0.0181  2.9480
 5999SOL    HW218287   4.094   5.519   3.478 -0.1616  0.0301  0.5017
 6000SOL     OW18288   5.647   5.417   2.818 -0.0218  0.2036 -0.2469
 6000SOL    HW118289   5.591   5.336   2.834 -1.4117  0.9394 -1.1631
 6000SOL    HW218290   5.588   5.496   2.804  1.0116  0.4972 -4.2335
 6001SOL     OW18291   5.012   5.317   3.013  0.7094  0.1858  0.0776
 6001SOL    HW118292   5.059   5.342   3.098 -0.4792  2.6127  0.0916
 6001SOL    HW218293   4.916   5.342   3.020 -0.2284 -2.8313 -0.7139
 6002SOL     OW18294   5.459   4.673   2.631 -0.2876 -0.2926  0.1001
 6002SOL    HW118295   5.449   4.768   2.600  0.4520 -0.1745  0.2034
 6002SOL    HW218296   5.554   4.656   2.654 -0.2164 -1.3584 -0.8895
 6003SOL     OW18297   4.031   4.931   2.502 -0.1141 -0.1527  0.2574
 6003SOL    HW118298   3.981   4.851   2.467  2.6147 -0.9246 -2.2572
 6003SOL    HW218299   4.093   4.902   2.574  0.3560 -0.1855 -0.1569
 6004SOL     OW18300   4.029   4.651   4.133 -0.5884 -0.1821  0.4386
 6004SOL    HW118301   4.013   4.566   4.082 -0.4705 -1.1316  1.9259
 6004SOL    HW218302   4.086   4.631   4.213 -0.6996  1.2752  0.8989
 6005SOL     OW18303   5.319   4.357   3.587 -0.3003  0.1672 -0.4846
 6005SOL    HW118304   5.405   4.359   3.638 -0.4430  1.8384 -0.2413
 6005SOL    HW218305   5.311   4.270   3.538  1.7999  0.1945 -0.9781
 6006SOL     OW18306   5.195   4.990   3.495 -0.2064  0.1277 -0.4755
 6006SOL    HW118307   5.115   4.944   3.456  0.2546  0.0786 -1.3989
 6006SOL    HW218308   5.245   4.926   3.554 -1.6542  0.5970  1.3530
 6007SOL     OW18309   4.560   2.956   4.031 -0.2034  0.6915 -0.3705
 6007SOL    HW118310   4.621   2.982   3.957 -0.1651 -1.5832 -1.2147
 6007SOL    HW218311   4.465   2.965   4.002 -0.1853 -0.9905 -1.0494
 6008SOL     OW18312   4.729   5.499   1.897  0.1425  0.3134  0.5114
 6008SOL    HW118313   4.817   5.479   1.941  0.1901  3.5306  2.1742
 6008SOL    HW218314   4.741   5.501   1.798  1.5182 -0.9088  0.6093
 6009SOL     OW18315   5.260   5.910   3.804  0.6377 -0.0410 -0.3194
 6009SOL    HW118316   5.226   5.891   3.712 -3.0401  1.9454  0.4492
 6009SOL    HW218317   5.320   5.990   3.803 -0.6511  0.9448 -0.8441
 6010SOL     OW18318   5.872   3.747   2.702  0.2260 -0.0768 -0.0205
 6010SOL    HW118319   5.864   3.833   2.652 -2.7028 -0.6289 -0.6765
 6010SOL    HW218320   5.930   3.684   2.650  0.1389  0.5783 -0.9467
 6011SOL     OW18321   4.189   3.634   3.136  0.2729 -0.1890 -0.4964
 6011SOL    HW118322   4.200   3.724   3.179  0.9675 -0.2789 -0.4648
 6011SOL    HW218323   4.115   3.638   3.069 -1.7684 -0.3967  1.6367
 6012SOL     OW18324   4.062   4.651   3.371  0.0258  0.1533  0.2705
 6012SOL    HW118325   4.095   4.700   3.291 -0.8952  2.0475  1.0046
 6012SOL    HW218326   3.965   4.671   3.386 -0.2069 -1.3553  1.0201
 6013SOL     OW18327   3.403   3.967   2.943 -0.0434  0.0279  0.3075
 6013SOL    HW118328   3.411   3.964   2.843 -0.6824 -0.9611  0.2759
 6013SOL    HW218329   3.491   3.944   2.984 -0.1732 -1.1533 -0.0395
 6014SOL     OW18330   5.075   3.963   3.468 -0.1225 -0.1316  0.3819
 6014SOL    HW118331   5.097   3.868   3.448 -0.3631 -0.3888  1.2619
 6014SOL    HW218332   5.038   4.007   3.386  0.5748 -0.6109 -0.2016
 6015SOL     OW18333   4.800   4.580   2.564  0.1226  0.2122 -0.6607
 6015SOL    HW118334   4.866   4.602   2.636 -1.5427 -0.5310  1.1937
 6015SOL    HW218335   4.848   4.565   2.478  2.5582 -1.6949  0.8825
 6016SOL     OW18336   2.949   4.170   3.104 -0.1143 -0.2765  0.1212
 6016SOL    HW118337   2.909   4.242   3.160  0.4947 -0.3202  0.6321
 6016SOL    HW218338   3.049   4.177   3.108 -0.0159  0.5623 -2.0401
 6017SOL     OW18339   3.499   4.184   4.337  0.2845  0.1502  0.0642
 6017SOL    HW118340   3.534   4.208   4.246 -1.7153 -0.0043 -0.7986
 6017SOL    HW218341   3.531   4.093   4.362  0.8426  0.1863 -0.4938
 6018SOL     OW18342   5.553   5.771   3.356 -0.3679  0.1041 -1.0251
 6018SOL    HW118343   5.494   5.737   3.428 -0.4713  0.6201 -0.8660
 6018SOL    HW218344   5.636   5.714   3.351 -0.6907 -0.3721 -0.9874
 6019SOL     OW18345   2.779   3.452   3.962 -0.5323  0.2724  0.0433
 6019SOL    HW118346   2.723   3.373   3.985 -1.8892  1.3150  0.4985
 6019SOL    HW218347   2.800   3.503   4.046  1.0348 -0.0266 -0.1340
 6020SOL     OW18348   5.102   4.703   1.276 -0.0597 -0.1520 -0.2082
 6020SOL    HW118349   5.162   4.774   1.238 -1.0541 -0.2879 -2.1390
 6020SOL    HW218350   5.030   4.681   1.211 -2.5051  0.2748  2.1481
 6021SOL     OW18351   5.218   4.347   2.143  0.1410 -0.6642 -0.6412
 6021SOL    HW118352   5.148   4.368   2.075 -0.0516  1.4457  0.1221
 6021SOL    HW218353   5.187   4.378   2.233  1.7005 -0.4395 -0.1438
 6022SOL     OW18354   5.289   4.439   3.173 -0.8653 -0.1453 -1.0418
 6022SOL    HW118355   5.371   4.426   3.117 -0.0171 -0.6020  0.2545
 6022SOL    HW218356   5.242   4.522   3.143  0.6395  0.7120 -1.1737
 6023SOL     OW18357   4.371   4.681   2.739  0.4304 -0.3272 -0.7876
 6023SOL    HW118358   4.350   4.612   2.809 -3.4078 -0.8505 -2.1877
 6023SOL    HW218359   4.431   4.640   2.669  1.1654 -1.0290  0.2277
 6024SOL     OW18360   3.886   4.505   3.075  0.4293 -0.0250  0.0619
 6024SOL    HW118361   3.823   4.549   3.139  1.0239  2.5056 -0.9515
 6024SOL    HW218362   3.971   4.557   3.072  1.1725 -1.2539 -1.3140
 6025SOL     OW18363   5.324   4.075   3.531  0.1077 -0.2757  0.3655
 6025SOL    HW118364   5.237   4.031   3.509  0.4171 -1.0815  0.7267
 6025SOL    HW218365   5.347   4.058   3.627 -1.7985  4.1286  1.8826
 6026SOL     OW18366   5.007   3.587   4.138  0.3449 -0.0103  0.3060
 6026SOL    HW118367   5.028   3.627   4.228  1.5661  1.8818 -0.7413
 6026SOL    HW218368   5.026   3.655   4.067 -0.8236 -1.3793 -1.3887
 6027SOL     OW18369   3.312   4.856   2.196 -0.0090 -0.2130 -0.2863
 6027SOL    HW118370   3.319   4.783   2.129  0.0200  1.2203 -1.9316
 6027SOL    HW218371   3.217   4.882   2.207  0.0205 -0.2109 -0.0357
 6028SOL     OW18372   3.963   4.994   2.012 -0.3898  0.1785  0.0157
 6028SOL    HW118373   4.016   5.051   1.950 -3.1222  2.1587 -0.6537
 6028SOL    HW218374   3.884   4.956   1.965 -2.2472  1.2811  2.0249
 6029SOL     OW18375   3.824   4.948   0.639 -0.8037  0.5826  0.3048
 6029SOL    HW118376   3.913   4.971   0.600 -0.6797  0.3952  0.4736
 6029SOL    HW218377   3.793   5.023   0.698  0.4727 -0.4294  2.3654
 6030SOL     OW18378   3.844   5.391   3.395  0.5516 -0.0740  0.3766
 6030SOL    HW118379   3.792   5.324   3.342 -0.1130  0.8370 -0.1597
 6030SOL    HW218380   3.933   5.352   3.421  0.2546 -1.0831 -0.0725
 6031SOL     OW18381   3.637   4.058   2.511  0.6664  0.0129 -0.2699
 6031SOL    HW118382   3.716   3.998   2.519 -1.2256 -2.9023 -1.6835
 6031SOL    HW218383   3.560   4.020   2.563  0.0938  2.7254  1.0453
 6032SOL     OW18384   4.064   5.066   4.281  0.0332 -0.5939  0.2383
 6032SOL    HW118385   4.113   5.134   4.226  1.8969 -2.6709 -0.8424
 6032SOL    HW218386   3.970   5.058   4.248  0.9326 -1.3687 -2.4192
 6033SOL     OW18387   4.754   4.972   3.457 -0.0451  0.2156  0.0151
 6033SOL    HW118388   4.753   4.898   3.390 -0.3610  0.3329 -0.1100
 6033SOL    HW218389   4.834   5.029   3.443 -0.5689  0.7617 -0.8326
 6034SOL     OW18390   4.598   4.226   1.842  0.5370 -0.4616 -0.3376
 6034SOL    HW118391   4.524   4.164   1.870  0.5187 -0.3083 -0.0404
 6034SOL    HW218392   4.683   4.198   1.886  0.2347  0.5949  0.9970
 6035SOL     OW18393   5.172   4.693   2.330  0.1028  0.2654  0.0106
 6035SOL    HW118394   5.195   4.651   2.242  0.8580 -0.0881  0.3764
 6035SOL    HW218395   5.189   4.629   2.404  3.0523  1.7271  0.7582
 6036SOL     OW18396   3.626   4.401   5.381 -0.0657 -0.1100 -0.6037
 6036SOL    HW118397   3.601   4.491   5.347 -0.8005  0.2162  0.7302
 6036SOL    HW218398   3.698   4.362   5.323 -0.2447  1.0121 -1.6174
 6037SOL     OW18399   3.945   4.345   3.699 -0.3624  0.0535  0.2676
 6037SOL    HW118400   4.017   4.317   3.763  2.0776  2.4340 -1.2417
 6037SOL    HW218401   3.986   4.366   3.610 -2.7674  2.4283 -0.3984
 6038SOL     OW18402   5.736   5.778   2.832 -0.1303  0.5955  0.0067
 6038SOL    HW118403   5.830   5.746   2.818 -0.0262  0.7924  0.2478
 6038SOL    HW218404   5.691   5.789   2.743 -1.0206 -2.7136 -0.0963
 6039SOL     OW18405   3.923   4.659   2.616 -0.2891 -0.2355  0.3288
 6039SOL    HW118406   3.892   4.593   2.685  1.4065  1.7454  3.2407
 6039SOL    HW218407   4.015   4.635   2.586  0.3003  0.6362  1.3356
 6040SOL     OW18408   2.302   0.084   2.760 -0.1588  0.3412 -0.5892
 6040SOL    HW118409   2.287   0.060   2.664  1.9639 -1.2031 -0.6092
 6040SOL    HW218410   2.230   0.043   2.816  1.5893 -3.7879 -0.9987
 6041SOL     OW18411   3.489   4.579   2.828 -0.8227 -0.1935  0.3384
 6041SOL    HW118412   3.459   4.645   2.897  1.3114 -0.1573  1.3002
 6041SOL    HW218413   3.498   4.625   2.739  3.3498  1.7583  1.5102
 6042SOL     OW18414   5.524   4.995   3.324 -0.1026  0.8472  0.2416
 6042SOL    HW118415   5.567   5.069   3.273 -0.8688 -0.1383 -1.9784
 6042SOL    HW218416   5.594   4.937   3.364  0.5380  1.4899  0.0658
 6043SOL     OW18417   5.464   0.147   2.636  0.2465  0.1108 -0.0795
 6043SOL    HW118418   5.407   0.173   2.558  0.5979  0.5780 -0.1861
 6043SOL    HW218419   5.408   0.101   2.705  0.1736 -1.4379 -1.1399
 6044SOL     OW18420   4.514   5.438   3.113  0.4928  0.6208 -0.5030
 6044SOL    HW118421   4.513   5.342   3.140 -0.1571  1.1039  1.2807
 6044SOL    HW218422   4.485   5.445   3.017 -0.2911 -0.8811 -0.4128
 6045SOL     OW18423   2.667   4.859   2.865  0.2523 -0.3743 -0.0475
 6045SOL    HW118424   2.583   4.877   2.915  0.0941  0.9557 -0.7466
 6045SOL    HW218425   2.668   4.764   2.834 -0.5006 -0.6880  0.8497
 6046SOL     OW18426   3.738   5.183   3.252  0.4640  0.1432 -0.2087
 6046SOL    HW118427   3.644   5.196   3.222  0.9099  0.7844 -1.3938
 6046SOL    HW218428   3.750   5.089   3.284 -0.4618 -0.0830 -0.4959
 6047SOL     OW18429   0.354   4.177   1.975 -0.0034 -0.2331 -0.0125
 6047SOL    HW118430   0.372   4.105   1.908  0.7951 -0.0444 -0.0116
 6047SOL    HW218431   0.367   4.140   2.068 -0.8006 -0.4112  0.0313
 6048SOL     OW18432   4.112   0.875   2.816 -0.0880  0.3374 -0.2609
 6048SOL    HW118433   4.027   0.851   2.864 -1.3258  2.3931 -1.2560
 6048SOL    HW218434   4.182   0.897   2.884 -0.6269 -0.4491  0.5907
 6049SOL     OW18435   2.995   5.589   4.647 -0.3154  0.5954  0.8152
 6049SOL    HW118436   2.942   5.531   4.709  0.2492 -0.7230  0.1064
 6049SOL    HW218437   3.092   5.566   4.655 -0.0996  1.3544  0.4245
 6050SOL     OW18438   5.010   4.344   2.820 -0.2191  0.2886  0.2797
 6050SOL    HW118439   4.999   4.255   2.775 -0.3264  0.3341  0.2147
 6050SOL    HW218440   5.025   4.330   2.918 -0.0289  0.1915  0.2356
 6051SOL     OW18441   3.559   5.489   2.471  0.0637 -0.2172  0.1830
 6051SOL    HW118442   3.531   5.435   2.551 -0.5598 -0.5646 -0.2689
 6051SOL    HW218443   3.621   5.436   2.414  0.0152 -0.1957  0.1095
 6052SOL     OW18444   5.317   5.085   2.514  0.3066  0.1199  0.0335
 6052SOL    HW118445   5.417   5.081   2.506  0.2893 -1.3377  0.3558
 6052SOL    HW218446   5.289   5.060   2.607 -0.4210 -0.7396 -0.4059
 6053SOL     OW18447   5.361   1.153   4.246  0.4409  0.3295  0.1679
 6053SOL    HW118448   5.436   1.108   4.199  0.3880 -0.3570  0.7331
 6053SOL    HW218449   5.277   1.147   4.191  0.4408 -0.2411  0.2318
 6054SOL     OW18450   4.924   4.826   1.949  0.2512  0.4029  0.1248
 6054SOL    HW118451   4.871   4.752   1.907  0.2131  1.1424 -1.1810
 6054SOL    HW218452   4.919   4.908   1.892  2.5975  0.5806  0.0764
 6055SOL     OW18453   4.330   4.263   2.515  0.0642 -0.0250  0.2667
 6055SOL    HW118454   4.382   4.289   2.596 -1.7827  1.0675  1.1716
 6055SOL    HW218455   4.367   4.310   2.435  0.4241  0.8005  0.9049
 6056SOL     OW18456   5.617   5.135   2.112 -0.0823 -0.3048  0.1267
 6056SOL    HW118457   5.556   5.063   2.078 -0.0031  0.0726 -0.8531
 6056SOL    HW218458   5.661   5.180   2.035  1.0447 -0.2173  0.8010
 6057SOL     OW18459   3.293   5.610   3.208  0.3038 -0.1973 -0.1283
 6057SOL    HW118460   3.299   5.521   3.161 -0.1051 -1.2124  1.6566
 6057SOL    HW218461   3.377   5.662   3.191  0.8171 -1.1795 -0.7024
 6058SOL     OW18462  -0.016   3.931   2.466 -0.4663  0.1240  0.0655
 6058SOL    HW118463   0.005   3.834   2.452 -1.1616 -0.3115  1.7717
 6058SOL    HW218464   0.040   3.987   2.405  0.6578 -1.3064 -0.2498
 6059SOL     OW18465   5.392   4.789   1.883 -0.6164 -0.2009  0.7601
 6059SOL    HW118466   5.463   4.790   1.953  0.3665 -1.5855 -0.1403
 6059SOL    HW218467   5.357   4.696   1.873 -0.7935 -0.0173 -0.5093
 6060SOL     OW18468   3.961   5.489   3.752  0.0063  0.9434  0.4322
 6060SOL    HW118469   4.013   5.421   3.804  0.8177  1.6518  0.5820
 6060SOL    HW218470   3.989   5.486   3.656 -1.7390 -0.5977 -0.0718
 6061SOL     OW18471   5.015   5.626   3.745 -0.4450  0.1500  0.2746
 6061SOL    HW118472   4.949   5.560   3.708  1.5184 -1.2314 -0.9236
 6061SOL    HW218473   5.084   5.578   3.799  0.7512  1.2556 -0.2145
 6062SOL     OW18474   3.667   5.770   3.065  0.0860  0.3990  0.1705
 6062SOL    HW118475   3.726   5.698   3.100 -2.0168 -1.3334  0.3603
 6062SOL    HW218476   3.582   5.773   3.118 -1.5740  0.2869 -2.3112
 6063SOL     OW18477   3.938   4.033   3.936  0.4477 -0.1891 -0.1165
 6063SOL    HW118478   4.001   3.983   3.878 -1.0714 -0.7925 -1.3317
 6063SOL    HW218479   3.846   3.994   3.928  0.0137  0.1901  2.1360
 6064SOL     OW18480   4.480   4.334   2.296  0.3031  0.4635  0.5005
 6064SOL    HW118481   4.514   4.411   2.242 -0.8947  0.8450  0.2714
 6064SOL    HW218482   4.513   4.248   2.256 -1.9555  0.6128 -1.9455
 6065SOL     OW18483   5.857   5.805   3.169 -0.4899 -0.7641  0.0887
 6065SOL    HW118484   5.842   5.883   3.110  0.5714  0.0851  0.8897
 6065SOL    HW218485   5.809   5.725   3.133 -1.0300  0.0813 -1.1096
 6066SOL     OW18486   3.690   5.254   2.765  0.0042 -0.6669 -0.1880
 6066SOL    HW118487   3.653   5.164   2.746  1.0986 -1.2109  0.1514
 6066SOL    HW218488   3.778   5.265   2.718  0.6110 -0.3661  0.9623
 6067SOL     OW18489   3.449   3.775   3.889 -0.2400  0.3490  0.1387
 6067SOL    HW118490   3.465   3.749   3.984 -2.1312 -2.2255 -0.1317
 6067SOL    HW218491   3.356   3.810   3.879  0.3874  1.8944 -0.5554
 6068SOL     OW18492   3.612   3.903   3.132  0.4183  0.0046  0.3324
 6068SOL    HW118493   3.604   3.990   3.180 -1.0329  0.0080  0.1104
 6068SOL    HW218494   3.675   3.913   3.055  1.9113  0.2801  1.5177
 6069SOL     OW18495   3.092   4.408   1.012 -0.7569  0.2802  0.0944
 6069SOL    HW118496   3.130   4.320   0.983  2.4518  1.2596  0.9786
 6069SOL    HW218497   3.112   4.477   0.943  1.5121  1.3372  1.6830
 6070SOL     OW18498   5.851   5.488   2.645  0.0350 -0.3220  0.3676
 6070SOL    HW118499   5.773   5.469   2.705 -0.9644  3.6912  0.6052
 6070SOL    HW218500   5.855   5.419   2.573 -3.1949 -1.1856  0.8548
 6071SOL     OW18501   4.732   4.292   2.439  0.0951 -0.2480  0.5013
 6071SOL    HW118502   4.716   4.337   2.527 -1.1034 -2.4009  1.4460
 6071SOL    HW218503   4.648   4.246   2.409  1.0911 -1.3687 -0.6867
 6072SOL     OW18504   3.314   5.106   3.716  0.0680  0.3765  0.1022
 6072SOL    HW118505   3.355   5.178   3.660  2.1490 -1.9978 -1.6779
 6072SOL    HW218506   3.356   5.106   3.807 -1.4109  2.5815  0.8506
 6073SOL     OW18507   5.409   0.216   3.034  0.4882  0.2449  0.0973
 6073SOL    HW118508   5.391   0.177   3.124 -0.7257  1.1859  0.2798
 6073SOL    HW218509   5.436   0.143   2.971 -2.1159 -1.0247  0.3105
 6074SOL     OW18510   4.987   4.615   2.740  0.2434 -0.4297 -0.3478
 6074SOL    HW118511   5.075   4.664   2.746 -0.5356  1.0200 -0.3004
 6074SOL    HW218512   5.000   4.520   2.769  2.3027 -0.9543 -2.6045
 6075SOL     OW18513   5.031   5.189   3.715  0.1331 -0.1642 -0.0069
 6075SOL    HW118514   5.052   5.174   3.618 -0.6047  1.1366 -0.4087
 6075SOL    HW218515   4.979   5.111   3.751  0.5567 -0.7320 -0.6077
 6076SOL     OW18516   4.429   0.449   3.494 -0.4441 -0.1254  0.1578
 6076SOL    HW118517   4.461   0.376   3.554 -2.0407 -0.8959  0.1375
 6076SOL    HW218518   4.443   0.538   3.537  0.3668 -0.5292  0.7329
 6077SOL     OW18519   5.156   4.294   2.447 -0.0145  0.3922 -0.2246
 6077SOL    HW118520   5.076   4.323   2.395  0.2688  1.8853  0.1145
 6077SOL    HW218521   5.214   4.374   2.466  1.3714 -0.5898 -0.1498
 6078SOL     OW18522   5.177   4.570   1.819  0.0445 -0.2931 -0.1952
 6078SOL    HW118523   5.169   4.473   1.796 -0.8740 -0.6315  1.3842
 6078SOL    HW218524   5.147   4.626   1.741  0.7516 -1.2480 -1.1806
 6079SOL     OW18525   5.000   5.025   3.015 -0.0468  0.3613  0.4417
 6079SOL    HW118526   4.921   4.970   3.043 -0.5236  0.2516 -1.0652
 6079SOL    HW218527   4.974   5.121   3.010  0.1011  0.4094  0.5586
 6080SOL     OW18528   5.230   5.018   3.155 -0.0453  0.1605  0.3109
 6080SOL    HW118529   5.309   4.998   3.098 -0.3052  1.7539 -0.6742
 6080SOL    HW218530   5.150   5.034   3.097 -0.5557  0.8566  1.1691
 6081SOL     OW18531   4.247   5.269   3.275 -0.0944 -0.1917 -0.2813
 6081SOL    HW118532   4.321   5.322   3.315 -1.1884  1.1883 -0.0057
 6081SOL    HW218533   4.285   5.198   3.215  1.4309  0.3715 -0.0175
 6082SOL     OW18534   3.780   4.403   2.230  0.3782 -0.1758 -0.2572
 6082SOL    HW118535   3.812   4.347   2.307  1.8786 -1.5016 -1.7792
 6082SOL    HW218536   3.736   4.485   2.266  0.3471 -1.0977  2.0235
 6083SOL     OW18537   3.762   0.442   1.796 -0.6750 -0.0784  0.0552
 6083SOL    HW118538   3.787   0.539   1.795 -1.3972  0.1144 -1.2103
 6083SOL    HW218539   3.808   0.397   1.872  2.3395  0.5656 -1.2316
 6084SOL     OW18540   5.090   4.736   1.541  0.1660  0.0736 -0.2515
 6084SOL    HW118541   5.132   4.729   1.450  0.2620  1.7470 -0.3657
 6084SOL    HW218542   4.995   4.765   1.532 -0.1591 -0.8326  0.1503
 6085SOL     OW18543   4.318   4.139   1.088  0.1079  0.2202 -0.3204
 6085SOL    HW118544   4.346   4.083   1.166 -1.0245  1.4141  1.0101
 6085SOL    HW218545   4.288   4.229   1.121  0.0220  0.9171 -2.1974
 6086SOL     OW18546   0.273   0.742   3.630  0.3848  0.0994  0.0793
 6086SOL    HW118547   0.217   0.792   3.696 -1.1322 -1.3768 -0.0397
 6086SOL    HW218548   0.369   0.745   3.659 -0.1217  0.2209  1.8621
 6087SOL     OW18549   3.200   5.388   4.069 -0.0140  0.2502  0.3804
 6087SOL    HW118550   3.182   5.385   4.168 -0.2350  0.3059  0.3408
 6087SOL    HW218551   3.252   5.471   4.047 -0.0870  0.3084  0.4288
 6088SOL     OW18552   2.366   5.033   2.468 -0.3128  0.5622  0.3226
 6088SOL    HW118553   2.301   5.010   2.396  0.5470 -0.6254 -0.0960
 6088SOL    HW218554   2.384   5.131   2.466  0.7327  0.3876 -2.0095
 6089SOL     OW18555   4.349   4.775   3.082  0.1930 -0.4017 -0.6717
 6089SOL    HW118556   4.404   4.807   3.158  1.2035  1.5504 -2.1210
 6089SOL    HW218557   4.397   4.702   3.034  1.0073  0.4768 -1.2229
 6090SOL     OW18558   5.724   4.364   2.676  0.0832  0.3168 -0.2376
 6090SOL    HW118559   5.760   4.285   2.627  0.7704 -0.5862  1.6495
 6090SOL    HW218560   5.653   4.334   2.740 -1.9298  1.6768 -1.7194
 6091SOL     OW18561   4.399   0.665   2.734 -0.7971  0.3288  0.0398
 6091SOL    HW118562   4.457   0.747   2.726 -1.4226  0.6292 -2.0385
 6091SOL    HW218563   4.421   0.602   2.660 -2.4990  0.0537 -0.2725
 6092SOL     OW18564   4.614   5.366   4.428 -0.0783  0.3273  0.5467
 6092SOL    HW118565   4.701   5.404   4.396  0.3740  0.9878  2.4240
 6092SOL    HW218566   4.613   5.366   4.528 -1.1222 -2.2907  0.6057
 6093SOL     OW18567   4.049   4.537   2.213 -0.3521 -0.3560  0.1787
 6093SOL    HW118568   3.987   4.461   2.233 -1.3766  0.9226  2.2344
 6093SOL    HW218569   4.133   4.526   2.266 -0.4673 -0.1187  0.4141
 6094SOL     OW18570   4.878   4.134   2.663  0.3488 -0.1210 -0.3632
 6094SOL    HW118571   4.919   4.074   2.594  0.8972  0.0249 -0.1690
 6094SOL    HW218572   4.853   4.221   2.620  0.6277 -0.0554 -0.3953
 6095SOL     OW18573   4.826   4.456   3.241  0.9062 -0.2462 -0.5735
 6095SOL    HW118574   4.893   4.466   3.315  1.7215  0.0474 -1.3366
 6095SOL    HW218575   4.755   4.392   3.269  1.9201 -1.1660 -0.0301
 6096SOL     OW18576   4.636   5.122   2.279 -0.0128 -0.1407  0.0801
 6096SOL    HW118577   4.685   5.062   2.216 -0.1111 -0.8445  0.6662
 6096SOL    HW218578   4.702   5.181   2.326  0.3926 -1.5562  1.3752
 6097SOL     OW18579   3.886   4.907   3.374 -0.1100  0.1322  0.0720
 6097SOL    HW118580   3.973   4.915   3.325  0.3168 -0.0101  0.7988
 6097SOL    HW218581   3.817   4.870   3.312  0.5688 -0.5898 -0.2822
 6098SOL     OW18582   5.121   3.681   2.608 -0.0153 -0.8139 -0.0054
 6098SOL    HW118583   5.092   3.600   2.660  2.2718 -1.3426  0.5684
 6098SOL    HW218584   5.173   3.741   2.668 -2.2525  1.5192 -0.2363
 6099SOL     OW18585   0.037   4.783   2.117  1.1034 -0.2311 -0.1852
 6099SOL    HW118586   0.100   4.711   2.147  1.2325 -0.0229  0.0436
 6099SOL    HW218587   0.024   4.776   2.018  1.4711 -0.2858 -0.2319
 6100SOL     OW18588   5.690   4.899   1.861 -0.1618 -0.5288  0.0804
 6100SOL    HW118589   5.676   4.870   1.956  1.7735  0.3093  0.6567
 6100SOL    HW218590   5.727   4.822   1.808  0.0110 -0.6140  0.3248
 6101SOL     OW18591   4.262   4.528   1.964  0.5649 -0.2288  0.0539
 6101SOL    HW118592   4.352   4.512   1.924 -0.1437  0.8554 -2.0983
 6101SOL    HW218593   4.242   4.626   1.962  0.3750 -0.1135  2.9426
 6102SOL     OW18594   5.183   5.671   2.015  0.2241 -0.2161  0.1075
 6102SOL    HW118595   5.260   5.616   1.982  1.1912  0.6136  0.8915
 6102SOL    HW218596   5.173   5.659   2.114 -0.2803  0.1247  0.1035
 6103SOL     OW18597   5.512   4.937   4.259  0.1762 -0.0161  0.5784
 6103SOL    HW118598   5.598   4.972   4.220 -0.8653  0.5661 -1.3282
 6103SOL    HW218599   5.461   5.012   4.300 -1.8283  0.8985 -3.0762
 6104SOL     OW18600   2.534   3.989   4.835  0.4343 -0.0237  0.5451
 6104SOL    HW118601   2.559   3.894   4.820 -0.0765 -0.1415  0.4006
 6104SOL    HW218602   2.580   4.047   4.769  2.0314  0.0270  1.6522
 6105SOL     OW18603   3.383   3.726   5.416  0.1609  0.0165 -0.2373
 6105SOL    HW118604   3.475   3.698   5.443  0.4661  1.7273  0.6463
 6105SOL    HW218605   3.360   3.685   5.328  1.3776 -1.2068 -0.0178
 6106SOL     OW18606   5.101   5.815   5.159 -0.9289 -0.0162 -0.3957
 6106SOL    HW118607   5.030   5.751   5.133  1.2001 -3.1213  0.8596
 6106SOL    HW218608   5.115   5.811   5.258  0.0700  1.5502 -0.4363
 6107SOL     OW18609   0.067   0.736   5.015 -0.0126 -0.1407 -0.0103
 6107SOL    HW118610   0.122   0.789   5.079  1.4053 -0.1048 -1.2047
 6107SOL    HW218611   0.127   0.681   4.957 -1.2410 -0.0418 -1.4218
 6108SOL     OW18612   5.351   5.301   3.730 -0.1608 -0.0121 -0.0212
 6108SOL    HW118613   5.358   5.260   3.639 -0.0031 -1.5495  0.6578
 6108SOL    HW218614   5.255   5.318   3.752 -0.0933  3.1825 -1.6273
 6109SOL     OW18615   5.457   4.996   4.744  0.6271  0.2574  0.5614
 6109SOL    HW118616   5.368   5.027   4.775  1.5342  2.1393  1.4542
 6109SOL    HW218617   5.454   4.974   4.646 -1.4581 -2.5097  1.1276
 6110SOL     OW18618   4.238   5.688   5.305  0.0811 -0.3642 -0.0610
 6110SOL    HW118619   4.303   5.672   5.230  0.4632  1.2965 -0.1324
 6110SOL    HW218620   4.287   5.685   5.392 -0.0619 -0.7278  0.0072
 6111SOL     OW18621   4.905   4.331   5.092 -0.4743 -0.9029  0.0654
 6111SOL    HW118622   4.939   4.274   5.017  2.3081 -2.0191  1.9836
 6111SOL    HW218623   4.926   4.287   5.180  0.5863  2.4100  1.6447
 6112SOL     OW18624   4.105   5.306   3.870 -0.1564 -0.9082  0.2374
 6112SOL    HW118625   4.163   5.234   3.833  0.8405 -0.2797  0.5495
 6112SOL    HW218626   4.076   5.281   3.963 -0.7076 -1.3895 -0.0547
 6113SOL     OW18627   5.246   5.192   5.130  0.6430 -0.0747 -0.2338
 6113SOL    HW118628   5.305   5.176   5.210  2.6417 -1.1716 -1.8445
 6113SOL    HW218629   5.234   5.290   5.117  0.1725  0.1295  1.4541
 6114SOL     OW18630   3.613   4.308   4.104 -0.0683 -0.1211 -0.2897
 6114SOL    HW118631   3.597   4.386   4.165 -2.7239 -1.0308  0.3208
 6114SOL    HW218632   3.710   4.303   4.081  0.7402  1.3840  2.3428
 6115SOL     OW18633   0.156   4.679   4.712 -0.1752  0.0840  0.5212
 6115SOL    HW118634   0.133   4.777   4.711  1.4724  0.5027 -0.4308
 6115SOL    HW218635   0.240   4.665   4.764 -1.0956 -1.0325  1.7642
 6116SOL     OW18636   4.647   5.347   4.699  0.0795  0.1025  0.4638
 6116SOL    HW118637   4.729   5.343   4.756 -0.5388  0.5612  1.4115
 6116SOL    HW218638   4.614   5.254   4.681  2.5778 -0.3466 -2.6350
 6117SOL     OW18639   4.997   0.939   4.061  0.0511 -0.3464  0.6622
 6117SOL    HW118640   4.910   0.891   4.071 -0.2354  0.0205 -0.0019
 6117SOL    HW218641   5.046   0.904   3.982  0.1822 -0.0696  0.6166
 6118SOL     OW18642   4.551   0.014   5.333 -0.2707  0.2587 -0.8497
 6118SOL    HW118643   4.504   0.067   5.404 -0.6239 -0.1690 -0.7593
 6118SOL    HW218644   4.645  -0.002   5.361 -0.4511 -0.0483 -0.3924
 6119SOL     OW18645   5.276   4.406   5.958  0.1591 -0.1759  0.3431
 6119SOL    HW118646   5.297   4.342   6.032 -1.1701 -0.3281  0.6133
 6119SOL    HW218647   5.238   4.356   5.880 -1.0738  0.2631  0.6309
 6120SOL     OW18648   2.636   5.831   3.212  0.3143  0.3817 -0.4862
 6120SOL    HW118649   2.717   5.888   3.221  0.4676 -0.1009  2.4467
 6120SOL    HW218650   2.658   5.749   3.159  1.8578  0.1409  0.4718
 6121SOL     OW18651   4.958   5.250   4.325 -0.1438  0.1669 -0.0773
 6121SOL    HW118652   4.946   5.200   4.410  1.5064  1.0467  0.7399
 6121SOL    HW218653   4.900   5.331   4.325  0.0052  0.2759  0.3247
 6122SOL     OW18654   5.112   0.617   4.667 -0.0542 -0.2828 -0.8141
 6122SOL    HW118655   5.190   0.654   4.718  0.3918 -0.3944 -1.3973
 6122SOL    HW218656   5.035   0.681   4.673 -0.8693 -1.4187  2.0323
 6123SOL     OW18657   4.632   5.169   4.121 -0.0762  0.1766 -0.4596
 6123SOL    HW118658   4.622   5.147   4.218 -0.9768 -0.4499 -0.6778
 6123SOL    HW218659   4.658   5.265   4.111 -1.3513  0.6362  0.3721
 6124SOL     OW18660   5.122   5.144   5.582 -0.0718  0.0905 -0.0157
 6124SOL    HW118661   5.048   5.087   5.543  0.3675 -0.4282 -0.1052
 6124SOL    HW218662   5.091   5.184   5.668 -0.1575 -0.8428  0.4012
 6125SOL     OW18663   2.410   4.439   5.450 -0.3652 -0.3434 -0.2936
 6125SOL    HW118664   2.465   4.444   5.534  0.9989 -0.7622 -1.1279
 6125SOL    HW218665   2.466   4.401   5.376 -1.2889  0.7755 -1.6117
 6126SOL     OW18666   4.898   0.141   2.946 -0.8773 -0.3121 -0.0393
 6126SOL    HW118667   4.876   0.127   2.849  3.0856 -3.6311 -0.7614
 6126SOL    HW218668   4.890   0.054   2.994  0.1850  0.6060  1.8867
 6127SOL     OW18669   4.138   4.955   3.278  0.4194 -0.2179 -0.5331
 6127SOL    HW118670   4.225   4.952   3.327 -0.2363 -0.9698  0.6406
 6127SOL    HW218671   4.141   5.026   3.208  1.0479  1.6270  1.2818
 6128SOL     OW18672   5.475   4.234   4.382 -0.0750  0.2306 -0.4062
 6128SOL    HW118673   5.465   4.276   4.292 -0.8900 -1.3087 -1.0742
 6128SOL    HW218674   5.508   4.140   4.372 -1.1265 -0.3079  0.8278
 6129SOL     OW18675   4.343   5.542   4.100 -0.1283 -0.3550 -0.2707
 6129SOL    HW118676   4.319   5.637   4.118 -1.3404 -0.7530  0.3508
 6129SOL    HW218677   4.353   5.493   4.187  4.1333 -0.0287 -0.3548
 6130SOL     OW18678   3.893   4.228   4.713  0.1822  0.1030 -0.0816
 6130SOL    HW118679   3.855   4.262   4.626  1.0134 -0.7681 -0.8085
 6130SOL    HW218680   3.980   4.183   4.695  1.3838  1.6549  1.4930
 6131SOL     OW18681   4.559   5.097   3.572 -0.1987  0.8416  0.3491
 6131SOL    HW118682   4.636   5.037   3.550 -0.6141  0.3148  0.2851
 6131SOL    HW218683   4.563   5.124   3.668  0.1527  0.9482  0.3037
 6132SOL     OW18684   4.345   4.439   4.856  0.1404  0.0298  0.5520
 6132SOL    HW118685   4.418   4.450   4.790 -0.4180 -0.0110 -0.0831
 6132SOL    HW218686   4.262   4.483   4.822  0.1630  1.0990  1.7679
 6133SOL     OW18687   4.805   4.107   4.125  0.1758  0.4827  0.4193
 6133SOL    HW118688   4.827   4.158   4.208 -0.4334 -0.3107  1.0868
 6133SOL    HW218689   4.720   4.143   4.086  0.3209  0.6799  0.2814
 6134SOL     OW18690   4.111   4.616   5.224  0.2078 -0.4138 -0.1578
 6134SOL    HW118691   4.126   4.567   5.310  0.8962  3.3907  2.1309
 6134SOL    HW218692   4.192   4.670   5.201 -0.8839  0.6372 -1.8245
 6135SOL     OW18693   4.921   5.629   2.589 -0.3447  0.2201  0.0691
 6135SOL    HW118694   4.891   5.615   2.495 -0.1186  0.5680 -0.0554
 6135SOL    HW218695   4.887   5.554   2.646 -1.8372  0.8249  0.0210
 6136SOL     OW18696   4.596   0.409   5.469 -0.3886  0.6438 -0.1890
 6136SOL    HW118697   4.611   0.356   5.552 -0.9297  1.2262  0.2899
 6136SOL    HW218698   4.505   0.450   5.471 -0.6370  0.1990 -1.3310
 6137SOL     OW18699   3.976   3.618   5.861  0.3034  0.2946 -0.5442
 6137SOL    HW118700   3.955   3.535   5.913 -0.2869  0.8398  0.1089
 6137SOL    HW218701   4.026   3.682   5.919  2.7860 -0.4783 -1.7097
 6138SOL     OW18702   5.603   5.649   5.510 -0.2617 -0.4322 -0.0973
 6138SOL    HW118703   5.617   5.663   5.608 -1.2158 -0.6481  0.0761
 6138SOL    HW218704   5.518   5.600   5.495  0.8720 -2.2319 -0.9351
 6139SOL     OW18705   0.257   0.653   4.716  0.2077  0.0160 -0.0260
 6139SOL    HW118706   0.344   0.623   4.755  0.8543 -1.0843 -2.1478
 6139SOL    HW218707   0.186   0.587   4.739  0.6326 -0.7475 -0.8144
 6140SOL     OW18708   3.479   4.263   3.438 -0.2900  0.1574  0.7946
 6140SOL    HW118709   3.379   4.257   3.442 -0.2356 -0.8443  0.9945
 6140SOL    HW218710   3.513   4.205   3.364  0.1472  0.3959  0.8075
 6141SOL     OW18711   5.249   5.074   4.888 -0.0411  0.4940  0.7031
 6141SOL    HW118712   5.175   5.009   4.873  1.2657 -1.0343  0.6923
 6141SOL    HW218713   5.247   5.106   4.983 -0.5664  0.3040  0.7615
 6142SOL     OW18714   4.325   4.851   3.772 -0.1626 -0.1648 -0.5052
 6142SOL    HW118715   4.299   4.795   3.851  0.2752  1.2809  0.7133
 6142SOL    HW218716   4.336   4.792   3.692 -0.2572 -1.7414  0.5886
 6143SOL     OW18717   3.624   4.025   5.630 -0.5476  0.0507 -0.1777
 6143SOL    HW118718   3.644   4.030   5.532  0.2664  0.5055  0.0089
 6143SOL    HW218719   3.549   3.960   5.644 -0.7042  0.0044 -1.1010
 6144SOL     OW18720   0.394   3.542   4.698  0.7165 -0.2312  0.0290
 6144SOL    HW118721   0.345   3.601   4.634 -1.0817 -0.4951  1.0978
 6144SOL    HW218722   0.412   3.593   4.783  3.1018  0.1276 -0.6165
 6145SOL     OW18723   4.582   5.429   5.835 -0.4206 -0.0754 -0.3078
 6145SOL    HW118724   4.517   5.403   5.763 -0.7588 -0.9470  0.2922
 6145SOL    HW218725   4.536   5.489   5.901 -0.8824 -1.3253  0.5467
 6146SOL     OW18726   4.539   4.471   5.398 -0.3607 -0.6333 -0.3682
 6146SOL    HW118727   4.539   4.435   5.304 -3.4571  1.0687 -1.1798
 6146SOL    HW218728   4.461   4.433   5.447  0.4043 -0.3768  1.0769
 6147SOL     OW18729   4.263   4.908   4.371 -0.2120 -0.0514  0.0712
 6147SOL    HW118730   4.192   4.974   4.348  0.4202  0.2437 -1.1073
 6147SOL    HW218731   4.324   4.947   4.440  1.2795  1.4437 -1.9427
 6148SOL     OW18732   4.745   4.158   4.835 -0.4380 -0.2757 -0.5759
 6148SOL    HW118733   4.817   4.106   4.880 -0.0511  0.9674  0.3017
 6148SOL    HW218734   4.687   4.096   4.782  0.2322 -1.5275  0.1027
 6149SOL     OW18735   4.560   0.151   4.842  0.6546 -0.5277 -0.5883
 6149SOL    HW118736   4.563   0.211   4.923  2.9077 -1.2632 -0.0436
 6149SOL    HW218737   4.523   0.062   4.869 -0.4309 -0.1723 -0.8496
 6150SOL     OW18738   3.882   4.461   5.192  0.6509 -0.0995  0.3529
 6150SOL    HW118739   3.875   4.410   5.106 -0.6182 -1.0643  1.0012
 6150SOL    HW218740   3.964   4.519   5.190  0.8809 -0.4356 -1.3179
 6151SOL     OW18741   4.444   4.985   5.801  0.4191 -0.1726  1.0672
 6151SOL    HW118742   4.367   4.943   5.752  1.2764  0.5037 -0.9562
 6151SOL    HW218743   4.526   4.983   5.744  1.2781  1.4091  2.1450
 6152SOL     OW18744   4.865   5.271   3.960  0.4722  0.3835  0.3793
 6152SOL    HW118745   4.924   5.294   3.883 -1.2466  1.0252 -0.8041
 6152SOL    HW218746   4.870   5.172   3.976 -0.8192 -0.1919 -2.1063
 6153SOL     OW18747   3.787   2.442   5.499  0.3350 -0.1473 -0.3558
 6153SOL    HW118748   3.759   2.468   5.592 -0.1631  1.6717 -0.9703
 6153SOL    HW218749   3.721   2.477   5.433  1.0514 -0.8186 -1.4599
 6154SOL     OW18750   4.216   5.826   3.161 -0.0410  0.1570  1.3628
 6154SOL    HW118751   4.298   5.779   3.193  0.6198  1.9514  2.4386
 6154SOL    HW218752   4.146   5.822   3.233 -0.1394  0.4480  1.2821
 6155SOL     OW18753   4.499   5.912   4.959 -0.1790 -0.4028 -0.3578
 6155SOL    HW118754   4.590   5.911   5.000 -0.2125  0.7059 -0.2257
 6155SOL    HW218755   4.442   5.841   5.001  0.1420 -0.0481  0.6849
 6156SOL     OW18756   3.615   0.230   3.841  0.7260  0.4272  0.1718
 6156SOL    HW118757   3.518   0.253   3.849  0.0599 -1.8921 -0.4127
 6156SOL    HW218758   3.644   0.181   3.923  1.0923  0.1726 -0.1064
 6157SOL     OW18759   4.181   4.537   5.485 -0.6017 -0.2514  0.4058
 6157SOL    HW118760   4.246   4.464   5.504 -0.7670 -0.5037  0.0138
 6157SOL    HW218761   4.159   4.585   5.570  0.2401 -0.0368  0.5089
 6158SOL     OW18762   3.473   4.727   4.143 -0.4019  0.4519 -0.5023
 6158SOL    HW118763   3.380   4.691   4.132 -0.4532  1.1039 -2.7269
 6158SOL    HW218764   3.495   4.785   4.065  2.2552 -0.4972 -0.5474
 6159SOL     OW18765   0.323   5.565   5.283 -0.2439  0.3089 -0.0496
 6159SOL    HW118766   0.277   5.652   5.261 -0.4800  0.7650  2.0329
 6159SOL    HW218767   0.260   5.489   5.265 -1.1926  0.8032  1.0367
 6160SOL     OW18768   3.531   5.182   4.210  0.1152 -0.5606 -0.1397
 6160SOL    HW118769   3.563   5.273   4.183 -1.4597 -0.1710 -0.8674
 6160SOL    HW218770   3.441   5.191   4.254  1.0690 -1.5440  2.1389
 6161SOL     OW18771   5.503   5.549   3.796 -0.5067 -0.0900  0.3443
 6161SOL    HW118772   5.595   5.556   3.835 -0.3696 -0.3447  0.0727
 6161SOL    HW218773   5.475   5.453   3.795  0.0348 -0.2509 -1.4111
 6162SOL     OW18774   4.439   3.487   5.233  0.2820  0.1014 -0.0382
 6162SOL    HW118775   4.414   3.503   5.329  1.4849 -0.4147  0.3754
 6162SOL    HW218776   4.530   3.447   5.228 -0.9759 -2.9025 -1.2360
 6163SOL     OW18777   3.779   5.038   4.250  0.2295  0.3171  0.1541
 6163SOL    HW118778   3.693   5.082   4.276  0.7471  1.0247  0.6899
 6163SOL    HW218779   3.776   5.015   4.153  0.2685  2.3235 -0.3575
 6164SOL     OW18780   3.752   0.939   3.328 -0.2509  0.1097  0.0428
 6164SOL    HW118781   3.696   0.974   3.253 -1.6656  0.4020  1.1928
 6164SOL    HW218782   3.713   0.854   3.363  0.7597 -0.3709  0.0511
 6165SOL     OW18783   5.208   4.068   2.985 -0.1509 -0.3959 -0.2845
 6165SOL    HW118784   5.136   4.124   3.025 -0.5490 -1.2074  0.1628
 6165SOL    HW218785   5.211   4.083   2.886 -0.9497 -0.3631 -0.3098
 6166SOL     OW18786   4.933   5.160   5.003  0.3955  0.1051  0.1582
 6166SOL    HW118787   5.000   5.180   5.075  0.4180 -1.3366  0.5879
 6166SOL    HW218788   4.957   5.073   4.960 -0.1114  0.5365 -1.0195
 6167SOL     OW18789   4.874   4.638   5.973  0.2479 -0.1413  0.4746
 6167SOL    HW118790   4.972   4.622   5.981  0.5584  1.6016  0.4221
 6167SOL    HW218791   4.856   4.735   5.959 -1.5216 -0.3496  0.9773
 6168SOL     OW18792   4.273   4.823   4.754  0.2589  0.5908 -0.8680
 6168SOL    HW118793   4.242   4.729   4.742  0.7640  0.3504 -0.3198
 6168SOL    HW218794   4.275   4.846   4.851  0.1109  1.1773 -0.9986
 6169SOL     OW18795   0.889   5.428   3.214  0.2255  0.3059  0.5293
 6169SOL    HW118796   0.967   5.372   3.186 -0.9069 -0.7089 -0.7577
 6169SOL    HW218797   0.872   5.415   3.311  1.4900  0.3421  0.7710
 6170SOL     OW18798   3.735   4.592   4.517  0.3451 -0.3976  0.1381
 6170SOL    HW118799   3.690   4.620   4.602 -1.8108 -0.3974 -0.9310
 6170SOL    HW218800   3.797   4.664   4.488 -0.6247  0.6416  0.5376
 6171SOL     OW18801   4.183   5.011   0.283  0.2371 -0.2156 -0.4211
 6171SOL    HW118802   4.119   4.978   0.214  0.7011  0.6182 -1.2805
 6171SOL    HW218803   4.247   5.076   0.240 -0.7945  1.9909  1.2196
 6172SOL     OW18804   4.240   4.890   5.006  0.3721 -0.1262 -0.0353
 6172SOL    HW118805   4.267   4.985   4.995 -2.6614  1.5363  4.2025
 6172SOL    HW218806   4.290   4.849   5.083 -1.2728 -0.4639  0.9106
 6173SOL     OW18807   4.715   4.105   0.412 -0.5209  0.2928 -0.2901
 6173SOL    HW118808   4.779   4.099   0.336 -0.6565  1.1512 -0.4865
 6173SOL    HW218809   4.685   4.200   0.423 -2.2118 -0.1706 -0.5718
 6174SOL     OW18810   4.022   0.117   4.616  0.2492 -0.9254 -0.0799
 6174SOL    HW118811   4.113   0.110   4.574  0.4920 -0.7860  0.4197
 6174SOL    HW218812   4.031   0.115   4.715 -0.2669 -0.5496 -0.0246
 6175SOL     OW18813   4.274   5.182   5.033 -0.5887  0.2153  0.1101
 6175SOL    HW118814   4.241   5.230   4.951  0.6002  2.0300  0.6353
 6175SOL    HW218815   4.233   5.223   5.114  1.9347  1.8021  0.6998
 6176SOL     OW18816   4.042   3.983   3.675 -0.1892 -0.5902 -0.3025
 6176SOL    HW118817   4.030   3.888   3.645 -0.9466 -0.7592  0.4862
 6176SOL    HW218818   3.953   4.026   3.684  0.1912  0.5797 -1.7788
 6177SOL     OW18819   5.334   5.374   4.488  0.3569 -0.0151  0.4933
 6177SOL    HW118820   5.303   5.313   4.415  1.6517 -0.3813  0.2262
 6177SOL    HW218821   5.275   5.455   4.491 -0.3369 -0.4737 -0.2720
 6178SOL     OW18822   4.276   5.119   3.832  0.5149 -0.1267 -0.1894
 6178SOL    HW118823   4.298   5.022   3.819  0.6042  0.0601 -1.5739
 6178SOL    HW218824   4.361   5.172   3.835  0.4511 -0.0398  0.0911
 6179SOL     OW18825   4.681   4.918   4.035 -0.0693  0.3750  0.6889
 6179SOL    HW118826   4.739   4.926   3.955 -1.1305 -0.5588 -0.2099
 6179SOL    HW218827   4.642   5.007   4.058  0.6238  0.7372  0.4843
 6180SOL     OW18828   4.756   3.687   5.313  0.6189  0.0046 -0.1715
 6180SOL    HW118829   4.671   3.728   5.279 -0.3910 -1.7672  0.1295
 6180SOL    HW218830   4.828   3.756   5.312 -1.2470  2.1447  1.3906
 6181SOL     OW18831   3.594   5.136   3.705  0.2292  0.0955 -0.1830
 6181SOL    HW118832   3.547   5.117   3.792 -3.3855 -0.0097 -1.9739
 6181SOL    HW218833   3.649   5.056   3.679 -1.2223 -1.1766  0.5022
 6182SOL     OW18834   4.263   5.715   3.731 -0.0256  0.2706 -0.0516
 6182SOL    HW118835   4.306   5.638   3.778 -0.1601 -0.0758 -0.4862
 6182SOL    HW218836   4.188   5.682   3.674  0.0031  0.7021 -0.3515
 6183SOL     OW18837   4.263   5.953   3.807  0.2788 -0.7085  0.7352
 6183SOL    HW118838   4.257   6.013   3.726 -1.9922 -0.3673  1.0862
 6183SOL    HW218839   4.269   5.858   3.777  3.5670 -0.4481  0.1731
 6184SOL     OW18840   3.757   3.727   4.763  0.1732  0.2037  0.5208
 6184SOL    HW118841   3.668   3.684   4.751  0.3204 -0.3325  1.2582
 6184SOL    HW218842   3.829   3.662   4.738  0.4235 -0.3086  2.3901
 6185SOL     OW18843   4.544   5.039   4.977 -0.0406  0.3667 -0.0032
 6185SOL    HW118844   4.609   5.058   5.050  1.2009  0.9181 -1.2109
 6185SOL    HW218845   4.461   5.092   4.992 -0.1128 -0.0944  1.3827
 6186SOL     OW18846   3.452   3.664   4.525  0.3348 -0.6981  0.1233
 6186SOL    HW118847   3.477   3.752   4.565  1.1867 -0.5069 -0.7877
 6186SOL    HW218848   3.482   3.590   4.586 -1.6951 -0.3683  1.6111
 6187SOL     OW18849   3.824   4.756   3.821  1.4401 -0.3197  0.0966
 6187SOL    HW118850   3.814   4.660   3.850  0.5580 -0.3415 -0.2686
 6187SOL    HW218851   3.894   4.800   3.878  3.0501 -1.6088 -0.7760
 6188SOL     OW18852   4.138   4.352   4.082 -0.7267  0.1752  0.0854
 6188SOL    HW118853   4.155   4.328   3.986 -3.5049 -0.9263 -0.2166
 6188SOL    HW218854   4.223   4.387   4.123  1.2515 -1.8811 -1.9695
 6189SOL     OW18855   4.495   4.418   4.618  0.2595 -0.2889  0.0029
 6189SOL    HW118856   4.550   4.483   4.566 -1.2904 -0.9341 -2.6418
 6189SOL    HW218857   4.467   4.343   4.558 -0.2964 -1.9883  2.2453
 6190SOL     OW18858   4.644   5.893   4.156 -0.4355 -0.0682 -0.6654
 6190SOL    HW118859   4.613   5.888   4.251  0.1129 -1.6727 -0.5338
 6190SOL    HW218860   4.729   5.945   4.151 -0.2311 -0.3495 -0.1959
 6191SOL     OW18861   5.128   0.067   3.516  0.1508 -0.3218  0.1000
 6191SOL    HW118862   5.031   0.079   3.493  0.2198 -0.6917 -0.3929
 6191SOL    HW218863   5.152  -0.030   3.510  0.5094 -0.2524  0.4004
 6192SOL     OW18864   4.199   4.864   4.084 -0.7553 -0.0932 -0.0490
 6192SOL    HW118865   4.132   4.794   4.106 -0.2880  0.0020  1.9187
 6192SOL    HW218866   4.219   4.918   4.167  0.5233  0.9230 -0.9741
 6193SOL     OW18867   4.897   5.329   4.801  0.5107 -0.1027  0.1917
 6193SOL    HW118868   4.981   5.377   4.775  0.2766  0.5736  0.6499
 6193SOL    HW218869   4.906   5.297   4.895  0.6493 -0.9307 -0.1012
 6194SOL     OW18870   4.773   4.639   3.567 -0.1752  0.2029  0.5199
 6194SOL    HW118871   4.745   4.544   3.558 -0.5099  0.3745 -0.3070
 6194SOL    HW218872   4.820   4.668   3.484 -0.8813  1.0281  0.4023
 6195SOL     OW18873   3.765   3.499   3.355 -0.5431 -0.1273  0.3873
 6195SOL    HW118874   3.703   3.473   3.281  0.2552 -1.1813  0.0743
 6195SOL    HW218875   3.792   3.594   3.343 -1.2423  0.0273 -0.0737
 6196SOL     OW18876   5.630   5.259   3.820  0.2240  0.3862  0.5885
 6196SOL    HW118877   5.536   5.269   3.787  0.4757  0.5507 -0.1008
 6196SOL    HW218878   5.633   5.279   3.918 -0.4262  0.5794  0.5769
 6197SOL     OW18879   4.371   4.738   5.184 -0.0520  0.1917  0.1021
 6197SOL    HW118880   4.425   4.673   5.130 -0.7778 -0.9755  0.7131
 6197SOL    HW218881   4.430   4.787   5.248  0.4646 -0.1383 -0.1196
 6198SOL     OW18882   5.522   5.397   0.222 -0.0606 -0.6814  0.7496
 6198SOL    HW118883   5.475   5.313   0.249  0.1349 -1.3980 -1.0692
 6198SOL    HW218884   5.604   5.409   0.279 -0.6244 -1.1752  1.6867
 6199SOL     OW18885   5.650   5.671   5.005  0.2245  0.2687  0.1185
 6199SOL    HW118886   5.667   5.641   5.099  0.5069 -0.6907 -0.2227
 6199SOL    HW218887   5.573   5.618   4.967  0.2136  0.5399 -0.2382
 6200SOL     OW18888   4.562   5.375   3.537 -0.6422  0.1925  0.2585
 6200SOL    HW118889   4.478   5.414   3.499 -1.6202 -0.6858  1.4216
 6200SOL    HW218890   4.550   5.277   3.549  1.2668 -0.2772 -1.3138
 6201SOL     OW18891   4.633   4.332   5.168  0.5522  0.0895 -0.2467
 6201SOL    HW118892   4.730   4.357   5.172  0.8696 -1.2159  2.2161
 6201SOL    HW218893   4.624   4.236   5.143 -0.2338  0.5839 -1.9938
 6202SOL     OW18894   4.035   5.510   5.325 -0.1964  0.4471 -0.0052
 6202SOL    HW118895   3.982   5.535   5.244 -0.1240  1.2971  0.2022
 6202SOL    HW218896   4.110   5.575   5.336  2.1562 -1.8241 -1.4389
 6203SOL     OW18897   4.576   4.818   3.257 -0.0342 -0.4394  0.0464
 6203SOL    HW118898   4.584   4.719   3.258  3.6309 -0.3133  0.6329
 6203SOL    HW218899   4.638   4.855   3.188 -1.5475  1.4626 -0.3675
 6204SOL     OW18900   3.757   5.353   3.881 -0.2305 -0.3545 -0.1057
 6204SOL    HW118901   3.718   5.333   3.792 -0.0521 -0.8164 -0.0799
 6204SOL    HW218902   3.849   5.390   3.870  0.2199 -1.4281 -0.0792
 6205SOL     OW18903   4.954   3.279   4.233 -0.0069  0.1261 -0.2564
 6205SOL    HW118904   5.023   3.351   4.231 -0.3172  0.4280 -0.0238
 6205SOL    HW218905   5.000   3.190   4.235  0.3900  0.3482  1.0008
 6206SOL     OW18906   4.118   5.297   4.148  0.2340  0.3827  0.4611
 6206SOL    HW118907   4.040   5.358   4.164  0.1555  1.0756 -2.1339
 6206SOL    HW218908   4.202   5.351   4.149  0.3361  0.2395 -0.1066
 6207SOL     OW18909   3.516   4.967   5.011 -0.1038 -0.3297 -0.0516
 6207SOL    HW118910   3.501   4.868   5.001  0.6666 -0.6331  1.4877
 6207SOL    HW218911   3.615   4.984   5.014 -0.2075  0.1773  2.0796
 6208SOL     OW18912   5.082   4.793   4.375 -0.0252  0.1822 -0.2280
 6208SOL    HW118913   5.139   4.712   4.361 -0.6946 -0.6538  1.6145
 6208SOL    HW218914   5.014   4.798   4.302 -2.1394 -2.8933  1.2758
 6209SOL     OW18915   5.386   5.312   4.786 -0.2872  0.1650 -0.3411
 6209SOL    HW118916   5.386   5.313   4.686 -1.5392 -1.8363 -0.4003
 6209SOL    HW218917   5.328   5.238   4.819 -1.7973  2.2032  1.9075
 6210SOL     OW18918   5.362   4.651   5.103  0.1328  0.1808  0.5487
 6210SOL    HW118919   5.356   4.572   5.165  0.5008  0.3807  0.8435
 6210SOL    HW218920   5.413   4.724   5.148 -0.3705  0.6611  0.3529
 6211SOL     OW18921   4.580   5.183   3.812  0.0661 -0.1245 -0.7850
 6211SOL    HW118922   4.614   5.277   3.802 -0.7498  0.2524 -0.2030
 6211SOL    HW218923   4.587   5.156   3.908 -1.1158 -0.0833 -0.6774
 6212SOL     OW18924   4.964   4.971   5.455 -0.2682 -0.2837 -0.1825
 6212SOL    HW118925   5.019   4.889   5.439  1.5384  0.7371  0.5023
 6212SOL    HW218926   4.868   4.951   5.436  0.0045 -2.7548  0.7025
 6213SOL     OW18927   5.195   4.649   5.555  0.9833  0.1159  0.6950
 6213SOL    HW118928   5.195   4.706   5.637 -0.6411  0.7011  0.3229
 6213SOL    HW218929   5.169   4.704   5.476  1.0009 -0.7880  0.0378
 6214SOL     OW18930   5.385   4.370   4.778  0.0826  0.3783  0.2035
 6214SOL    HW118931   5.321   4.382   4.702  0.6230 -0.9329 -0.4797
 6214SOL    HW218932   5.372   4.445   4.844 -0.2058  1.7072 -1.2903
 6215SOL     OW18933   5.503   4.018   0.380  0.2440 -0.4380 -0.3946
 6215SOL    HW118934   5.561   4.015   0.461 -1.3732  1.9969  0.9973
 6215SOL    HW218935   5.497   3.927   0.340  3.3646 -1.1648  0.5076
 6216SOL     OW18936   4.020   4.379   0.271  0.1622 -0.5300  0.8087
 6216SOL    HW118937   3.960   4.441   0.321  1.4312  2.1462 -0.8018
 6216SOL    HW218938   4.112   4.380   0.312  0.7144  0.2436 -0.3933
 6217SOL     OW18939   4.749   5.921   5.041 -0.4694  0.2114  0.1688
 6217SOL    HW118940   4.809   5.842   5.029 -0.9304  0.1356 -2.1380
 6217SOL    HW218941   4.803   6.000   5.070  0.2730 -0.5031  0.7767
 6218SOL     OW18942   4.992   5.057   4.120 -0.4873  0.2133 -0.4013
 6218SOL    HW118943   4.991   5.099   4.211 -1.1277 -0.4906 -0.0721
 6218SOL    HW218944   5.078   5.080   4.074  0.0782  0.1525  0.5846
 6219SOL     OW18945   4.035   4.949   3.881 -0.2107 -0.1671 -0.0720
 6219SOL    HW118946   4.104   4.918   3.946 -1.4682 -0.8584  0.9687
 6219SOL    HW218947   4.080   4.999   3.806  1.1761  1.9683  2.0497
 6220SOL     OW18948   4.027   3.568   5.424 -0.0039  0.0652 -0.5814
 6220SOL    HW118949   3.984   3.561   5.333  1.7039 -0.0936 -1.4078
 6220SOL    HW218950   4.035   3.476   5.463 -1.0355  0.1630 -0.0949
 6221SOL     OW18951   4.078   5.013   0.527 -0.3336  0.0203 -0.0088
 6221SOL    HW118952   4.146   4.965   0.583 -1.0962 -0.5853  0.4271
 6221SOL    HW218953   4.100   5.002   0.430 -0.8524 -1.8086  0.0458
 6222SOL     OW18954   4.710   5.728   4.473 -0.6264 -0.4278 -0.0436
 6222SOL    HW118955   4.704   5.750   4.571  0.1264 -1.0352  0.1458
 6222SOL    HW218956   4.618   5.721   4.435 -0.9269 -0.1471  0.6145
 6223SOL     OW18957   5.373   4.108   4.770 -0.1322  0.0490 -0.1507
 6223SOL    HW118958   5.466   4.075   4.751  0.0366  0.1681  0.4529
 6223SOL    HW218959   5.371   4.207   4.759 -0.2899  0.0040 -0.5538
 6224SOL     OW18960   3.978   3.570   4.742 -0.1709  0.3643  0.2141
 6224SOL    HW118961   4.055   3.519   4.704 -1.1166 -2.2697  1.5684
 6224SOL    HW218962   4.010   3.628   4.817  0.5784 -0.1610  0.3118
 6225SOL     OW18963   5.703   3.621   3.849 -0.0776 -0.7598 -0.6330
 6225SOL    HW118964   5.691   3.651   3.944 -1.1966 -1.1745 -0.6278
 6225SOL    HW218965   5.624   3.566   3.821 -0.7417  1.0112 -2.4583
 6226SOL     OW18966   4.781   4.182   5.416 -0.1048  0.1333 -0.0300
 6226SOL    HW118967   4.682   4.168   5.404 -0.1064 -0.2322  0.3798
 6226SOL    HW218968   4.826   4.169   5.327 -0.2683 -1.1695  0.0444
 6227SOL     OW18969   4.486   4.710   0.561 -0.2203 -0.0392  0.4785
 6227SOL    HW118970   4.415   4.668   0.618 -0.9260  0.8694  0.2861
 6227SOL    HW218971   4.531   4.639   0.505 -0.4223 -0.7335  1.1899
 6228SOL     OW18972   1.033   5.818   0.681 -0.5697  0.6938  0.4290
 6228SOL    HW118973   1.023   5.753   0.756 -0.0646 -0.4558 -0.4834
 6228SOL    HW218974   1.103   5.786   0.618 -1.1192  1.5506 -0.6395
 6229SOL     OW18975   3.875   4.198   5.651 -0.3233 -0.9427 -0.1208
 6229SOL    HW118976   3.815   4.120   5.633 -1.9847  0.1531  0.3469
 6229SOL    HW218977   3.824   4.267   5.703  1.0699  0.4858 -0.5700
 6230SOL     OW18978   5.254   4.600   4.329  0.1092  0.5493 -0.3257
 6230SOL    HW118979   5.349   4.613   4.302  0.1849  1.6766  0.4260
 6230SOL    HW218980   5.244   4.512   4.376  0.5647 -0.0348 -1.2956
 6231SOL     OW18981   5.764   5.278   5.044 -0.4838  0.5740  0.2378
 6231SOL    HW118982   5.822   5.352   5.079  0.9940 -0.4324  0.0083
 6231SOL    HW218983   5.730   5.303   4.954 -0.0229  0.9975  0.1751
 6232SOL     OW18984   4.594   4.777   4.270  0.0541  0.2816 -0.0497
 6232SOL    HW118985   4.510   4.827   4.292  0.0609  0.2318  0.0865
 6232SOL    HW218986   4.634   4.816   4.187  0.5313  1.0919  0.5378
 6233SOL     OW18987   4.772   3.178   4.944  0.0749  0.8766 -0.1909
 6233SOL    HW118988   4.810   3.170   4.852 -0.2798 -1.6254 -0.1851
 6233SOL    HW218989   4.678   3.213   4.939  0.4018  1.7088 -0.6749
 6234SOL     OW18990   4.793   4.279   4.344  0.2293 -0.7848 -0.0861
 6234SOL    HW118991   4.849   4.321   4.415  0.8948 -1.6911 -0.0635
 6234SOL    HW218992   4.696   4.290   4.366  0.3907  0.4607  0.0693
 6235SOL     OW18993   4.441   3.766   5.755 -0.3438  0.0463 -0.8429
 6235SOL    HW118994   4.368   3.714   5.712 -0.1425 -1.2400  0.2969
 6235SOL    HW218995   4.435   3.756   5.854  1.6934 -0.5961 -0.7371
 6236SOL     OW18996   4.206   2.912   3.235 -0.0427 -0.5390  0.3008
 6236SOL    HW118997   4.153   2.951   3.160 -0.0594 -0.0605  0.5600
 6236SOL    HW218998   4.152   2.911   3.319  0.7032  0.9876  0.8393
 6237SOL     OW18999   3.358   0.015   4.188  0.0385 -0.1010 -0.6065
 6237SOL    HW119000   3.316   0.003   4.278  1.5220 -0.5403  0.0689
 6237SOL    HW219001   3.456  -0.003   4.195 -0.0433 -1.7523 -2.6528
 6238SOL     OW19002   5.128   5.485   4.811  0.1760  0.0934 -0.3815
 6238SOL    HW119003   5.101   5.565   4.758 -2.1372 -0.8257 -0.6926
 6238SOL    HW219004   5.215   5.504   4.857  0.6896  2.0272 -2.0089
 6239SOL     OW19005   4.087   5.925   2.948  0.7301  0.5480  0.6239
 6239SOL    HW119006   4.128   5.866   3.016  0.8884  1.7259  1.5866
 6239SOL    HW219007   4.159   5.978   2.902  0.8987 -1.7174 -2.0349
 6240SOL     OW19008   4.580   5.086   4.689 -0.4320 -0.0251 -0.3207
 6240SOL    HW119009   4.586   5.076   4.789  0.8747 -0.2946 -0.4077
 6240SOL    HW219010   4.559   4.997   4.648  2.3122 -0.6999 -0.4740
 6241SOL     OW19011   3.548   4.963   4.567 -0.5519 -0.1611  0.0018
 6241SOL    HW119012   3.507   4.938   4.479 -0.2604  1.0276 -0.4967
 6241SOL    HW219013   3.478   5.008   4.623 -0.2406  0.8664 -0.4140
 6242SOL     OW19014   4.288   4.365   0.363 -0.1258 -0.0613 -0.1701
 6242SOL    HW119015   4.285   4.277   0.411  1.6085  0.8886  1.8143
 6242SOL    HW219016   4.382   4.396   0.355 -0.5732  0.9554 -2.1868
 6243SOL     OW19017   3.131   4.658   5.614  0.3468  0.6785 -0.0473
 6243SOL    HW119018   3.189   4.631   5.691 -0.7446  1.7497  1.2027
 6243SOL    HW219019   3.141   4.591   5.540  0.0340 -1.4615  1.7257
 6244SOL     OW19020   3.831   4.773   4.303 -0.7440  0.2015  0.0040
 6244SOL    HW119021   3.900   4.751   4.234 -3.1043 -0.9060 -2.1468
 6244SOL    HW219022   3.830   4.872   4.318  0.9244  0.2967 -0.2680
 6245SOL     OW19023   5.402   0.099   4.660 -0.3104  0.2046  0.5296
 6245SOL    HW119024   5.349   0.090   4.576  0.1605 -0.4756  0.2979
 6245SOL    HW219025   5.378   0.024   4.722 -1.4739  1.3055  1.4829
 6246SOL     OW19026   3.711   5.172   0.780 -0.2878 -0.3006  0.6428
 6246SOL    HW119027   3.660   5.159   0.864 -0.0061 -0.2960  0.8149
 6246SOL    HW219028   3.647   5.189   0.704 -0.4974  0.8225  1.0513
 6247SOL     OW19029   5.185   4.011   5.234  0.0922 -0.2083 -0.3126
 6247SOL    HW119030   5.230   3.925   5.209  1.4399 -0.5660  2.8795
 6247SOL    HW219031   5.224   4.085   5.179  0.5502 -1.2934 -1.5098
 6248SOL     OW19032   5.223   5.846   4.674 -0.4838  0.5502 -0.0825
 6248SOL    HW119033   5.223   5.909   4.597 -0.4188 -0.4147 -0.8879
 6248SOL    HW219034   5.135   5.801   4.681  0.2660 -1.1862 -1.1498
 6249SOL     OW19035   4.079   4.235   2.925  0.5538  0.0632  0.9386
 6249SOL    HW119036   4.014   4.193   2.861 -0.2735  2.3296  0.1701
 6249SOL    HW219037   4.031   4.258   3.010  0.4164  1.2970  0.5535
 6250SOL     OW19038   3.981   4.840   5.098 -0.4706  0.3503 -0.0636
 6250SOL    HW119039   3.999   4.752   5.143 -1.0506  0.1469 -0.2183
 6250SOL    HW219040   4.062   4.868   5.047 -0.1645  0.0682  0.2602
 6251SOL     OW19041   5.944   5.297   4.536  0.2725 -0.0113  0.2533
 6251SOL    HW119042   5.896   5.214   4.562  0.4624 -0.4368 -0.6983
 6251SOL    HW219043   5.943   5.362   4.611 -1.7376 -0.0193  0.2670
 6252SOL     OW19044   4.334   5.445   3.852 -0.9044  0.6199 -0.4538
 6252SOL    HW119045   4.243   5.403   3.853 -0.3390 -0.6833  0.8963
 6252SOL    HW219046   4.356   5.479   3.943 -0.6883  2.4844 -1.1644
 6253SOL     OW19047   4.470   0.328   5.891 -0.0019  0.1215 -0.4540
 6253SOL    HW119048   4.516   0.241   5.874  0.9089  0.3581  0.6628
 6253SOL    HW219049   4.392   0.338   5.829 -0.4686 -1.7371 -0.2138
 6254SOL     OW19050   0.520   4.408   4.791  0.1077  0.0874  0.2138
 6254SOL    HW119051   0.565   4.361   4.714  0.7986 -0.0571  0.7002
 6254SOL    HW219052   0.493   4.500   4.762  1.4193  0.4636  0.1343
 6255SOL     OW19053   3.936   5.465   4.258  0.2912  0.0604 -0.1536
 6255SOL    HW119054   3.870   5.408   4.308  1.8431 -0.6133  1.1991
 6255SOL    HW219055   3.886   5.528   4.198 -1.5295 -2.0065 -0.9595
 6256SOL     OW19056   4.317   5.268   0.875  0.2066  0.4967  0.2485
 6256SOL    HW119057   4.353   5.185   0.918 -1.0471 -0.2194 -0.0217
 6256SOL    HW219058   4.313   5.342   0.942  0.4290  0.0613  0.7487
 6257SOL     OW19059   5.489   4.795   4.505 -0.1270  0.0062 -0.2502
 6257SOL    HW119060   5.579   4.768   4.540 -0.3876 -0.7462 -0.1358
 6257SOL    HW219061   5.496   4.813   4.407  0.4700  1.5065  0.0361
 6258SOL     OW19062   5.627   5.009   4.959  0.3210 -0.1228  0.4799
 6258SOL    HW119063   5.552   5.015   4.893  0.5461 -1.2071  0.0999
 6258SOL    HW219064   5.603   5.060   5.041 -1.1058 -0.9587  0.6146
 6259SOL     OW19065   4.865   5.629   5.115 -0.1306  0.4513 -0.1362
 6259SOL    HW119066   4.928   5.563   5.156  0.1993  0.5411 -0.4942
 6259SOL    HW219067   4.780   5.630   5.167 -1.4162 -2.5886 -1.9510
 6260SOL     OW19068   5.354   0.558   4.204  0.3340  0.2025 -0.0570
 6260SOL    HW119069   5.370   0.492   4.278  0.6266 -0.1084 -0.3933
 6260SOL    HW219070   5.412   0.638   4.217 -1.1625  1.1476  1.2416
 6261SOL     OW19071   4.367   4.650   0.026  0.3116 -0.2566  0.8847
 6261SOL    HW119072   4.434   4.720   0.050 -0.6899  1.0946 -0.1008
 6261SOL    HW219073   4.403   4.594  -0.049 -0.6516  2.3196 -1.7332
 6262SOL     OW19074   3.774   4.942   3.624 -1.4171  0.7415  0.9229
 6262SOL    HW119075   3.816   4.900   3.544 -0.3713  0.4430  1.6083
 6262SOL    HW219076   3.798   4.889   3.706 -1.5100  1.6901  1.5804
 6263SOL     OW19077   5.811   5.537   5.712 -0.3630  0.1743 -0.4124
 6263SOL    HW119078   5.803   5.611   5.779  1.9836 -0.1853  0.3540
 6263SOL    HW219079   5.905   5.503   5.710 -0.5826 -0.5356 -3.1961
 6264SOL     OW19080   5.277   5.636   4.292 -0.1656  0.1811 -0.0709
 6264SOL    HW119081   5.197   5.691   4.271 -1.4926 -0.2018  3.2999
 6264SOL    HW219082   5.262   5.542   4.260 -2.0734 -0.3955  2.2580
 6265SOL     OW19083   4.326   3.742   4.526  0.0798 -0.1579  1.1001
 6265SOL    HW119084   4.402   3.792   4.486  0.3517 -1.2530  0.1899
 6265SOL    HW219085   4.255   3.727   4.457 -0.6859  0.3123  1.7739
 6266SOL     OW19086   0.285   5.646   2.525  0.1683 -0.5145  0.2438
 6266SOL    HW119087   0.335   5.695   2.453  0.5199 -1.0188  0.1360
 6266SOL    HW219088   0.229   5.575   2.483  1.1281 -1.4603  0.5306
 6267SOL     OW19089   4.116   4.585   4.685 -0.1568 -0.2504  0.0504
 6267SOL    HW119090   4.082   4.495   4.660  0.6998 -1.2042  2.0887
 6267SOL    HW219091   4.039   4.648   4.695 -0.7941 -0.8257 -1.0573
 6268SOL     OW19092   3.907   4.744   4.736  0.4816 -0.4472 -0.0200
 6268SOL    HW119093   3.930   4.841   4.748  1.0873 -0.6711  0.6802
 6268SOL    HW219094   3.811   4.730   4.761  0.3849 -0.0273 -0.1361
 6269SOL     OW19095   5.423   0.692   3.735 -0.1334 -0.0663  0.6889
 6269SOL    HW119096   5.487   0.616   3.736 -0.4508 -0.3892 -0.9521
 6269SOL    HW219097   5.359   0.681   3.659  0.7425  2.5986 -0.5628
 6270SOL     OW19098   4.133   4.761   5.935 -0.7828 -0.3703 -0.4169
 6270SOL    HW119099   4.158   4.811   5.852 -1.4772 -0.3298 -0.6105
 6270SOL    HW219100   4.215   4.732   5.983 -0.3743  0.0719 -0.8422
 6271SOL     OW19101   5.677   5.610   5.248  0.0283 -0.4719 -0.0792
 6271SOL    HW119102   5.664   5.616   5.347 -1.5608 -1.2138 -0.2141
 6271SOL    HW219103   5.763   5.564   5.229  0.2747 -0.4650  0.9585
 6272SOL     OW19104   4.786   5.328   3.317 -0.1376 -0.8962  0.0593
 6272SOL    HW119105   4.718   5.374   3.373  0.9373 -0.7302  1.2595
 6272SOL    HW219106   4.786   5.368   3.225 -0.8426 -0.1052  0.3938
 6273SOL     OW19107   0.305   5.483   3.299  0.3160  0.0993  0.1433
 6273SOL    HW119108   0.349   5.566   3.333  0.1288  0.6048 -0.8167
 6273SOL    HW219109   0.350   5.453   3.215 -0.2751 -0.1758 -0.0834
 6274SOL     OW19110   3.277   3.524   5.582  0.0359 -0.3360  0.1512
 6274SOL    HW119111   3.289   3.601   5.519  1.2819 -1.6222 -1.2996
 6274SOL    HW219112   3.192   3.477   5.561  0.5834 -0.9324 -0.8404
 6275SOL     OW19113   5.543   3.206   4.569 -0.0779 -0.3519 -0.6215
 6275SOL    HW119114   5.552   3.160   4.657 -0.7217 -3.7679 -2.1708
 6275SOL    HW219115   5.634   3.222   4.530  0.1652 -0.4554 -0.0979
 6276SOL     OW19116   2.367   4.633   2.909  0.2349 -0.0033  0.1577
 6276SOL    HW119117   2.356   4.574   2.990  0.0657  1.6845  1.4248
 6276SOL    HW219118   2.285   4.627   2.852  1.1333 -2.7085 -0.9963
 6277SOL     OW19119   3.783   5.019   5.034  0.4519  0.4947 -0.1798
 6277SOL    HW119120   3.788   5.116   5.060  0.3466  0.1056  1.4337
 6277SOL    HW219121   3.854   4.968   5.083 -0.2634 -0.4288 -0.0751
 6278SOL     OW19122   4.503   3.529   4.873 -0.4654 -0.3390 -0.1219
 6278SOL    HW119123   4.587   3.582   4.884 -0.3424 -0.4611 -0.4859
 6278SOL    HW219124   4.437   3.558   4.942  0.7619 -2.0095  1.8731
 6279SOL     OW19125   3.821   4.122   3.622  0.3105 -0.0971 -0.0340
 6279SOL    HW119126   3.860   4.204   3.664  0.4830 -0.0782 -0.2279
 6279SOL    HW219127   3.721   4.123   3.633  0.3407 -0.0124  0.2291
 6280SOL     OW19128   4.532   4.692   5.582 -0.0992  0.5016 -0.0012
 6280SOL    HW119129   4.540   4.607   5.531 -0.6912 -0.6539  1.7165
 6280SOL    HW219130   4.599   4.693   5.656 -0.8575  0.9788  0.7080
 6281SOL     OW19131   3.541   3.523   3.853 -0.5127 -0.0076 -0.2585
 6281SOL    HW119132   3.499   3.496   3.766 -1.7938  1.4471 -0.1310
 6281SOL    HW219133   3.513   3.616   3.876  0.4440 -0.0832  1.3363
 6282SOL     OW19134   4.487   5.529   2.871  0.0441 -0.1360  0.2972
 6282SOL    HW119135   4.500   5.616   2.824 -0.9822 -0.9200 -1.5567
 6282SOL    HW219136   4.444   5.464   2.809  0.3844 -1.8493  1.7677
 6283SOL     OW19137   3.238   4.973   5.021 -0.6220 -0.8048  0.3192
 6283SOL    HW119138   3.213   5.027   4.941 -0.3947 -1.9626 -0.5481
 6283SOL    HW219139   3.337   4.975   5.033 -0.7136 -0.0019  1.0435
 6284SOL     OW19140   0.061   0.438   4.625 -0.4734  0.2609  0.2534
 6284SOL    HW119141  -0.032   0.454   4.590 -0.9131  0.8852  1.6252
 6284SOL    HW219142   0.056   0.411   4.721  0.7441 -0.5219  0.1233
 6285SOL     OW19143   4.550   4.056   5.165  0.1967 -0.1327 -0.1916
 6285SOL    HW119144   4.493   4.052   5.248  0.7662 -2.0152  0.1495
 6285SOL    HW219145   4.492   4.041   5.085  0.0529 -1.1661  0.0908
 6286SOL     OW19146   4.931   5.101   4.585 -0.0802  0.9364 -0.0070
 6286SOL    HW119147   4.911   5.162   4.661  0.6655  0.1850  0.8251
 6286SOL    HW219148   4.894   5.010   4.604 -0.2174  0.8414 -0.7133
 6287SOL     OW19149   3.193   5.537   5.720 -0.2723  0.6827 -0.1863
 6287SOL    HW119150   3.252   5.456   5.708 -0.5253  0.6253 -1.1288
 6287SOL    HW219151   3.248   5.620   5.710 -0.0301  0.6449  0.6894
 6288SOL     OW19152   5.085   4.742   5.089  0.1160  0.4274 -0.4672
 6288SOL    HW119153   5.016   4.690   5.039 -0.6786 -0.5286  1.5234
 6288SOL    HW219154   5.170   4.690   5.094  0.2679  0.6189 -0.9723
 6289SOL     OW19155   4.398   3.260   4.938  0.5626 -0.5651 -0.0607
 6289SOL    HW119156   4.432   3.170   4.911  0.5029 -0.9991  1.2249
 6289SOL    HW219157   4.465   3.330   4.911  1.0762 -1.0991 -0.1977
 6290SOL     OW19158   4.233   5.239   5.788 -0.1715  0.1991 -0.1613
 6290SOL    HW119159   4.210   5.332   5.818 -0.7365  0.0375 -0.0789
 6290SOL    HW219160   4.314   5.241   5.730 -0.1582  0.7407 -0.1235
 6291SOL     OW19161   0.401   4.889   4.572  0.2181  0.5466  0.4601
 6291SOL    HW119162   0.489   4.933   4.555 -0.7728  1.7851 -1.8285
 6291SOL    HW219163   0.336   4.957   4.607  0.0320 -0.2858  1.8276
 6292SOL     OW19164   5.925   5.803   3.882 -0.1598 -0.1721  0.3227
 6292SOL    HW119165   6.018   5.837   3.892  0.4209 -1.2085 -1.2388
 6292SOL    HW219166   5.916   5.754   3.795 -1.6522 -1.6913  1.2662
 6293SOL     OW19167   3.207   3.709   4.374 -0.1144 -0.1375 -0.0006
 6293SOL    HW119168   3.268   3.716   4.295  1.0551  0.9353  0.9676
 6293SOL    HW219169   3.258   3.730   4.457 -1.6938  0.2945  0.8894
 6294SOL     OW19170   5.388   0.971   4.940  0.0166  0.1825  0.1914
 6294SOL    HW119171   5.420   1.017   5.023  2.2458 -0.8309 -0.0428
 6294SOL    HW219172   5.448   0.994   4.864 -1.2967  0.1418 -0.8920
 6295SOL     OW19173   4.493   4.857   4.563  0.4128 -0.0511  0.8236
 6295SOL    HW119174   4.571   4.802   4.535  2.5609  2.3210  1.7372
 6295SOL    HW219175   4.443   4.809   4.636 -0.2755 -2.4823 -1.1188
 6296SOL     OW19176   4.717   5.817   3.772 -0.3145 -0.5496  0.1516
 6296SOL    HW119177   4.698   5.767   3.687 -0.2238  0.8267 -0.7154
 6296SOL    HW219178   4.711   5.754   3.850 -1.5344 -1.6091 -0.7518
 6297SOL     OW19179   5.929  -0.013   4.494  0.1271  0.3231  0.4532
 6297SOL    HW119180   5.851  -0.009   4.556 -1.0173  0.6302 -0.9348
 6297SOL    HW219181   5.940   0.077   4.450  1.2479  0.2664  0.6047
 6298SOL     OW19182   3.911   5.008   4.798  0.7180  0.2081  0.1056
 6298SOL    HW119183   3.871   4.981   4.885 -0.8534  0.3958 -0.5362
 6298SOL    HW219184   3.851   5.072   4.751  1.4082 -0.0822 -1.2409
 6299SOL     OW19185   3.413   4.224   4.811 -0.2441  0.8812 -0.3834
 6299SOL    HW119186   3.375   4.261   4.727  0.2600  0.9276 -0.5935
 6299SOL    HW219187   3.361   4.259   4.889 -0.7924  0.7339 -0.6784
 6300SOL     OW19188   4.371   4.368   5.590 -0.4589 -0.4605  0.0402
 6300SOL    HW119189   4.345   4.273   5.574  1.2827 -0.5885 -2.6118
 6300SOL    HW219190   4.424   4.374   5.675 -1.6580 -1.6085  0.9072
 6301SOL     OW19191   4.868   4.249   5.907  0.0501  0.4390  0.2412
 6301SOL    HW119192   4.869   4.236   6.006 -0.0736 -0.7378  0.0948
 6301SOL    HW219193   4.803   4.186   5.866  0.9540  0.1126 -0.7114
 6302SOL     OW19194   3.854   3.868   4.395  0.5866  0.0002 -0.1891
 6302SOL    HW119195   3.837   3.776   4.357  0.1920  0.1239 -0.3182
 6302SOL    HW219196   3.921   3.915   4.338 -1.4380  0.9258 -1.9617
 6303SOL     OW19197   0.178   4.847   3.961 -0.1633 -0.1111 -0.1103
 6303SOL    HW119198   0.120   4.838   3.880 -1.6221  0.1370  0.8602
 6303SOL    HW219199   0.176   4.941   3.994  0.4346 -0.1993  0.1873
 6304SOL     OW19200   4.369   3.344   4.175  0.0911  0.6374 -0.1758
 6304SOL    HW119201   4.294   3.279   4.168  0.2960  0.4395 -0.5842
 6304SOL    HW219202   4.387   3.364   4.271 -1.7400  2.1786 -0.1178
 6305SOL     OW19203   4.563   5.678   3.993 -0.0518 -0.0518 -0.2745
 6305SOL    HW119204   4.474   5.637   4.015  1.1872 -0.8768  4.4061
 6305SOL    HW219205   4.579   5.757   4.052  2.6543 -0.4411 -0.3580
 6306SOL     OW19206   5.822   5.546   4.691 -0.0196 -0.4805 -0.7220
 6306SOL    HW119207   5.760   5.603   4.637  1.8925  1.5896 -0.8788
 6306SOL    HW219208   5.770   5.491   4.756 -1.9226  2.2138  0.1632
 6307SOL     OW19209   5.154   4.124   4.177  0.6030  0.8078  0.3855
 6307SOL    HW119210   5.074   4.156   4.126  0.8443  1.2018  0.2526
 6307SOL    HW219211   5.133   4.123   4.275 -0.9991 -3.0333  0.1867
 6308SOL     OW19212   5.337   0.081   3.273  0.5174  0.1810 -0.0236
 6308SOL    HW119213   5.285   0.135   3.338 -0.8534  0.0369 -0.9597
 6308SOL    HW219214   5.435   0.090   3.292  0.1619 -0.0567  2.1931
 6309SOL     OW19215   4.407   5.296   5.336 -0.0909  0.2404 -0.0981
 6309SOL    HW119216   4.313   5.282   5.307 -0.1803 -0.6477  0.5744
 6309SOL    HW219217   4.459   5.340   5.263 -0.7276 -0.3628 -0.9253
 6310SOL     OW19218   5.558   3.418   4.154  0.5183 -0.7002  0.8369
 6310SOL    HW119219   5.461   3.441   4.155  0.6025 -0.3339  0.6828
 6310SOL    HW219220   5.604   3.463   4.231  0.6204 -0.6278  0.7344
 6311SOL     OW19221   3.639   4.642   5.210 -0.1227 -0.1252  0.2782
 6311SOL    HW119222   3.730   4.618   5.175  0.0218  0.2924  0.3647
 6311SOL    HW219223   3.646   4.722   5.269 -0.4283 -0.5863  0.9485
 6312SOL     OW19224   4.561   5.102   4.368 -0.5645  0.1895  0.1651
 6312SOL    HW119225   4.559   5.036   4.443 -2.1258  0.6452  0.5622
 6312SOL    HW219226   4.574   5.194   4.406 -1.1986  0.4046 -0.1329
 6313SOL     OW19227   2.687   4.037   4.155 -0.2411 -0.5473 -0.2995
 6313SOL    HW119228   2.609   4.097   4.137 -0.4652 -0.7388  0.0289
 6313SOL    HW219229   2.716   4.046   4.250  2.9664  2.8557 -1.3765
 6314SOL     OW19230   4.886   0.093   3.413  0.9871  0.1505 -0.2800
 6314SOL    HW119231   4.844   0.172   3.370  1.9361  1.0559  0.3901
 6314SOL    HW219232   4.870   0.011   3.357 -0.4838  0.6993 -0.6940
 6315SOL     OW19233   3.714   4.873   5.376 -0.4051  0.6325  0.0998
 6315SOL    HW119234   3.782   4.877   5.449 -0.7601 -0.0287  0.4727
 6315SOL    HW219235   3.693   4.966   5.345 -1.1749  1.0465  1.7176
 6316SOL     OW19236   4.961   4.331   0.710 -0.3631  0.1800  0.3221
 6316SOL    HW119237   5.057   4.332   0.740 -0.6068 -0.5875  1.1914
 6316SOL    HW219238   4.946   4.404   0.643  0.2975  1.7994  1.8464
 6317SOL     OW19239   4.699   0.210   1.459 -0.5018 -0.0276 -0.0366
 6317SOL    HW119240   4.740   0.294   1.425 -0.8299 -0.2407 -0.9891
 6317SOL    HW219241   4.610   0.196   1.414  0.3391 -1.7850 -1.2279
 6318SOL     OW19242   5.344   5.965   4.908  0.5280 -0.4525  0.5533
 6318SOL    HW119243   5.276   5.932   4.843 -1.4126  0.8142  1.8409
 6318SOL    HW219244   5.325   5.926   4.999  1.1006  0.4548  1.0795
 6319SOL     OW19245   5.895   4.583   0.295 -0.1054 -0.2127 -0.5627
 6319SOL    HW119246   5.987   4.557   0.326  0.4676  2.6383  0.4225
 6319SOL    HW219247   5.868   4.669   0.338 -4.1687 -1.9099  0.8542
 6320SOL     OW19248   2.629   5.443   5.916 -0.3144 -0.9083  0.0300
 6320SOL    HW119249   2.646   5.542   5.916 -1.2133 -0.7295 -0.7511
 6320SOL    HW219250   2.678   5.400   5.841 -0.7149 -0.8915 -0.2462
 6321SOL     OW19251   4.812   3.565   5.768  0.0768  0.2102 -0.0776
 6321SOL    HW119252   4.754   3.614   5.704 -0.8167  1.8354  1.8675
 6321SOL    HW219253   4.755   3.517   5.835  0.8588  1.9057  1.9337
 6322SOL     OW19254   5.997   5.913   0.151  0.8461  0.0229  0.0944
 6322SOL    HW119255   5.908   5.887   0.113  1.1201 -0.2349 -0.3814
 6322SOL    HW219256   6.068   5.852   0.115  1.0258 -0.6579  1.5338
 6323SOL     OW19257   5.162   0.148   5.098  0.4309 -0.0928  0.0961
 6323SOL    HW119258   5.127   0.056   5.086  0.5664 -0.2943  1.1987
 6323SOL    HW219259   5.257   0.145   5.129  0.4260  0.4149  0.1836
 6324SOL     OW19260   4.631   3.528   5.500  0.2169 -0.1125  0.4376
 6324SOL    HW119261   4.535   3.549   5.519 -0.2618 -0.8763 -0.9757
 6324SOL    HW219262   4.670   3.600   5.443 -0.1619 -0.8181 -0.7594
 6325SOL     OW19263   4.219   3.930   5.349  0.0248 -0.2191  0.5430
 6325SOL    HW119264   4.194   3.903   5.256  0.8690  0.9855 -0.0554
 6325SOL    HW219265   4.242   4.027   5.351 -2.8817  0.5742  2.6099
 6326SOL     OW19266   4.523   4.980   0.625  0.5196  0.2311 -0.1379
 6326SOL    HW119267   4.515   4.892   0.579  0.9949 -0.8034  1.6728
 6326SOL    HW219268   4.566   4.967   0.714 -0.5275  2.1226  0.6940
 6327SOL     OW19269   4.741   5.655   0.340  0.1411 -0.2111 -0.1716
 6327SOL    HW119270   4.649   5.650   0.299 -0.2673 -0.4726  0.7450
 6327SOL    HW219271   4.794   5.575   0.312  0.2882  0.2149 -1.1462
 6328SOL     OW19272   5.270   5.230   0.207 -0.3808 -0.5158 -0.1750
 6328SOL    HW119273   5.227   5.186   0.286 -0.7381 -0.4940 -0.3531
 6328SOL    HW219274   5.253   5.329   0.211 -1.0369 -0.6024 -0.6644
 6329SOL     OW19275   3.705   5.599   4.521  0.7903  0.2532  0.2007
 6329SOL    HW119276   3.611   5.621   4.495  0.4241  2.3432  2.8518
 6329SOL    HW219277   3.763   5.680   4.508  1.6208 -0.1765  1.1063
 6330SOL     OW19278   3.261   4.051   5.396  0.3606 -0.3742  0.3498
 6330SOL    HW119279   3.285   3.956   5.419  1.0488 -0.5416 -0.9255
 6330SOL    HW219280   3.323   4.084   5.325 -1.6307  0.0575 -1.2984
 6331SOL     OW19281   5.842   5.544   4.320 -0.3532 -0.0227 -0.0161
 6331SOL    HW119282   5.746   5.570   4.307 -0.3559  0.2770  0.5660
 6331SOL    HW219283   5.850   5.480   4.396 -0.1011 -0.1043 -0.1100
 6332SOL     OW19284   4.570   5.413   5.155  0.0456 -0.1101  0.6719
 6332SOL    HW119285   4.536   5.431   5.062 -0.5100 -2.1614  0.4122
 6332SOL    HW219286   4.598   5.498   5.198 -1.3439  1.1184 -0.7341
 6333SOL     OW19287   4.813   4.072   5.659  0.4316  0.8088  0.4871
 6333SOL    HW119288   4.827   4.124   5.575  0.0052  1.5776  0.8888
 6333SOL    HW219289   4.902   4.057   5.703  0.4691  2.0190  0.8518
 6334SOL     OW19290   0.153   3.967   5.666  0.0311 -0.1845  0.0720
 6334SOL    HW119291   0.153   3.891   5.731  1.5762  1.7994  2.5496
 6334SOL    HW219292   0.064   4.012   5.667 -0.4465 -1.0813 -0.3976
 6335SOL     OW19293   4.613   4.831   0.860 -0.6807  0.0536  0.9098
 6335SOL    HW119294   4.561   4.745   0.853 -0.2857 -0.1468  0.2868
 6335SOL    HW219295   4.636   4.848   0.955 -0.3217 -0.8039  0.9889
 6336SOL     OW19296   5.464   4.275   0.377  0.6414 -0.3411 -0.2798
 6336SOL    HW119297   5.557   4.305   0.398  0.9219 -1.1782 -0.2824
 6336SOL    HW219298   5.458   4.176   0.386 -0.2774 -0.2916 -0.2051
 6337SOL     OW19299   4.778   3.441   0.540  0.0947 -0.1307 -0.0511
 6337SOL    HW119300   4.806   3.487   0.456 -0.8343 -0.4771 -0.5628
 6337SOL    HW219301   4.807   3.495   0.619  0.3240  0.5761 -0.6118
 6338SOL     OW19302   4.795   4.818   0.249 -0.2637  0.4133  0.3933
 6338SOL    HW119303   4.751   4.773   0.171 -2.2118  0.9673  1.0991
 6338SOL    HW219304   4.782   4.917   0.242  0.8132  0.5915  0.7090
 6339SOL     OW19305   4.325   5.448   0.225  0.6538  0.5158 -0.3208
 6339SOL    HW119306   4.227   5.462   0.208 -0.1138 -0.9212  2.2750
 6339SOL    HW219307   4.376   5.528   0.193 -1.3928  1.4423 -1.4590
 6340SOL     OW19308   5.034   4.957   0.060 -0.3088 -0.0192 -0.3887
 6340SOL    HW119309   5.039   4.938   0.158 -1.0871  1.1202 -0.1102
 6340SOL    HW219310   4.941   4.940   0.027 -0.8089  2.1986 -0.3181
 6341SOL     OW19311   3.621   3.204   1.210  0.2991 -0.5638 -0.3821
 6341SOL    HW119312   3.655   3.200   1.116 -1.5528 -0.6304 -1.0973
 6341SOL    HW219313   3.525   3.233   1.209  0.4581  0.1704  1.5511
 6342SOL     OW19314   5.484   5.325   5.955  0.5054 -0.0558  0.3049
 6342SOL    HW119315   5.511   5.229   5.945 -1.5377 -0.4957 -2.0351
 6342SOL    HW219316   5.501   5.355   6.048  0.4502 -2.9582  1.3550
 6343SOL     OW19317   4.379   4.452   4.199  0.3614  0.1119 -0.2509
 6343SOL    HW119318   4.448   4.499   4.145 -0.0637 -0.5723 -1.4271
 6343SOL    HW219319   4.333   4.517   4.259  1.6432  0.6683  0.1524
 6344SOL     OW19320   3.309   5.035   5.350 -0.1752  0.0159  0.7972
 6344SOL    HW119321   3.333   4.959   5.411 -0.0323 -0.9232 -0.3687
 6344SOL    HW219322   3.240   5.004   5.284 -1.7663  1.5679  1.6759
 6345SOL     OW19323   5.510   3.366   0.955 -0.1227  0.4472  0.1466
 6345SOL    HW119324   5.513   3.371   1.054 -0.7732 -0.9962  0.2650
 6345SOL    HW219325   5.596   3.397   0.917  0.3806  0.3718  1.2044
 6346SOL     OW19326   4.466   4.872   5.399 -0.0582  0.1537  0.4189
 6346SOL    HW119327   4.405   4.941   5.439  1.2380  0.6159  1.6982
 6346SOL    HW219328   4.501   4.813   5.472 -0.2315 -1.1395 -0.5103
 6347SOL     OW19329   5.510   3.232   5.555  0.5555 -0.1466 -0.6793
 6347SOL    HW119330   5.591   3.234   5.613  0.8611 -2.2390 -0.9386
 6347SOL    HW219331   5.512   3.309   5.492  1.9801  0.2318 -0.2179
 6348SOL     OW19332   4.486   0.158   0.473  0.0311 -0.0203 -0.3032
 6348SOL    HW119333   4.433   0.148   0.557 -0.7177 -1.6453 -0.9093
 6348SOL    HW219334   4.443   0.227   0.414  0.0700  0.5039  0.2771
 6349SOL     OW19335   4.485   4.428   5.844  0.3995 -0.5766  0.5041
 6349SOL    HW119336   4.503   4.364   5.918 -0.0254  0.5656  1.6335
 6349SOL    HW219337   4.572   4.463   5.809  0.6754 -2.2489 -0.6136
 6350SOL     OW19338   5.182   5.086   5.889  0.3599 -0.4133  0.4918
 6350SOL    HW119339   5.129   5.041   5.961 -0.1896 -2.5518 -1.1523
 6350SOL    HW219340   5.276   5.101   5.921  0.7671 -3.3764  0.9710
 6351SOL     OW19341   0.057   4.929   4.735 -0.0577  0.1629 -0.0159
 6351SOL    HW119342   0.065   5.025   4.762  0.3670 -0.2798  1.5367
 6351SOL    HW219343  -0.038   4.899   4.748 -0.0783  0.2295 -0.0111
 6352SOL     OW19344   5.428   5.704   1.369  0.2771 -0.0803 -0.6509
 6352SOL    HW119345   5.379   5.770   1.427 -0.2246  0.9942 -2.2326
 6352SOL    HW219346   5.450   5.623   1.423 -2.8012 -0.4219  0.2974
 6353SOL     OW19347   4.727   0.867   5.236 -0.4433  0.3683 -0.2264
 6353SOL    HW119348   4.795   0.830   5.299 -2.5344 -1.1509  1.2519
 6353SOL    HW219349   4.701   0.797   5.170 -0.5741  0.9351 -0.7826
 6354SOL     OW19350   3.628   3.485   0.184  0.4758  0.1750 -0.5018
 6354SOL    HW119351   3.624   3.572   0.233  0.3288 -1.4425  2.5341
 6354SOL    HW219352   3.614   3.502   0.086 -0.9583  3.3913  0.1290
 6355SOL     OW19353   4.040   5.066   5.719  0.3537 -0.2062  0.1794
 6355SOL    HW119354   4.115   5.126   5.747 -1.3066  1.9919  0.2215
 6355SOL    HW219355   3.969   5.068   5.790 -0.6617 -0.5307 -0.8070
 6356SOL     OW19356   4.407   4.856   0.337  0.3009  0.8597 -0.3300
 6356SOL    HW119357   4.437   4.812   0.421 -1.5368  0.3386  0.1001
 6356SOL    HW219358   4.329   4.916   0.356 -0.9547 -0.2187 -1.8111
 6357SOL     OW19359   4.822   4.089   0.680 -0.3316 -0.0629  0.3038
 6357SOL    HW119360   4.882   4.168   0.696  0.0563 -0.2435 -0.2665
 6357SOL    HW219361   4.788   4.091   0.586  2.0562 -2.1635 -0.7066
 6358SOL     OW19362   3.452   5.967   4.973 -0.9880  0.0558  0.6452
 6358SOL    HW119363   3.419   5.879   4.938  0.7397  0.5045 -2.5644
 6358SOL    HW219364   3.536   5.953   5.024  0.3408 -0.1329 -1.4518
 6359SOL     OW19365   5.099   4.282   5.746  0.1452 -0.1493  0.0724
 6359SOL    HW119366   5.071   4.334   5.666 -0.2341 -0.0137  0.2913
 6359SOL    HW219367   5.019   4.262   5.803  0.1677 -1.5288 -0.3287
 6360SOL     OW19368   4.942   3.925   5.324  0.0845  0.2280 -0.0110
 6360SOL    HW119369   5.037   3.956   5.316 -0.6219  2.7954  0.3892
 6360SOL    HW219370   4.914   3.928   5.420 -0.5788  0.1663 -0.1975
 6361SOL     OW19371   3.279   5.633   0.562  0.0829 -0.0987  0.1811
 6361SOL    HW119372   3.192   5.648   0.609  0.1877 -0.3016  0.4390
 6361SOL    HW219373   3.354   5.659   0.622  0.1664  1.6915 -0.6310
 6362SOL     OW19374   5.011   5.305   5.855 -0.5075  0.1808 -0.4488
 6362SOL    HW119375   5.053   5.382   5.903 -0.4462 -0.5135  0.6470
 6362SOL    HW219376   5.076   5.230   5.848 -0.8908 -0.1452 -0.5922
 6363SOL     OW19377   4.703   1.687   0.733  0.0071  0.4206 -0.3465
 6363SOL    HW119378   4.653   1.601   0.741 -0.0979  0.3171 -1.8296
 6363SOL    HW219379   4.801   1.671   0.747 -0.1368  0.2935  0.6067
 6364SOL     OW19380   3.336   5.747   1.562  0.5082  1.2217  0.4339
 6364SOL    HW119381   3.306   5.661   1.602 -2.8554  2.5830  1.2134
 6364SOL    HW219382   3.425   5.772   1.599  1.0777 -1.3671  0.9773
 6365SOL     OW19383   4.062   5.467   0.267  0.0004  0.6481 -0.4216
 6365SOL    HW119384   4.021   5.552   0.301 -0.6976  0.2882 -0.3544
 6365SOL    HW219385   4.072   5.403   0.343 -0.5632  0.2379 -0.6872
 6366SOL     OW19386   3.513   0.636   5.896 -0.1649  0.2630 -0.7808
 6366SOL    HW119387   3.587   0.624   5.831  0.2206 -0.7761 -0.1725
 6366SOL    HW219388   3.493   0.549   5.940  0.1640  1.0832  1.0980
 6367SOL     OW19389   5.437   5.838   0.915 -0.4242 -0.0127  0.2308
 6367SOL    HW119390   5.369   5.882   0.858  1.0284  0.4102 -1.2620
 6367SOL    HW219391   5.467   5.753   0.872  0.2980  0.0337  0.6244
 6368SOL     OW19392   5.009   5.731   1.813 -0.1758  0.5277  0.1881
 6368SOL    HW119393   5.080   5.700   1.876 -0.5695  1.3313  1.0382
 6368SOL    HW219394   4.974   5.653   1.761  0.5327 -0.0495  0.5617
 6369SOL     OW19395   4.522   4.455   1.137 -0.1745  0.5832 -0.7424
 6369SOL    HW119396   4.433   4.416   1.164  0.0049 -0.4463 -1.5586
 6369SOL    HW219397   4.587   4.381   1.120  0.3401  1.2485 -1.8301
 6370SOL     OW19398   4.357   5.373   2.652  0.5900 -0.0204 -0.6425
 6370SOL    HW119399   4.275   5.367   2.710  1.3377 -0.0979  0.4438
 6370SOL    HW219400   4.339   5.434   2.575 -0.8479 -0.9145 -1.0547
 6371SOL     OW19401   0.136   0.329   5.772 -0.2890  0.1945  0.4557
 6371SOL    HW119402   0.124   0.259   5.843  0.9673  0.6637  1.1714
 6371SOL    HW219403   0.157   0.286   5.685  0.0819 -0.3363  0.8056
 6372SOL     OW19404   3.479   4.792   0.713 -0.1745  0.1683  0.1548
 6372SOL    HW119405   3.457   4.889   0.707  1.9210  0.6405 -1.0566
 6372SOL    HW219406   3.527   4.774   0.799 -1.7975 -0.1073  1.0296
 6373SOL     OW19407   3.131   5.713   1.347  0.1955 -0.1564 -0.1852
 6373SOL    HW119408   3.202   5.726   1.417 -1.3886 -0.2022  1.5223
 6373SOL    HW219409   3.112   5.615   1.337  0.6311 -0.1711 -0.9316
 6374SOL     OW19410   5.452   5.038   0.160 -0.3816 -0.1758 -0.2044
 6374SOL    HW119411   5.385   5.113   0.167 -0.6539  0.0523 -3.5787
 6374SOL    HW219412   5.410   4.953   0.192 -1.0697  0.5750  0.9557
 6375SOL     OW19413   5.825   0.783   1.178  0.1107 -0.0634 -0.1289
 6375SOL    HW119414   5.903   0.768   1.118 -0.3442  1.3454 -1.1454
 6375SOL    HW219415   5.766   0.854   1.138 -2.0363 -1.5357  0.2725
 6376SOL     OW19416   4.397   0.169   5.202 -0.0530 -0.2743  0.0415
 6376SOL    HW119417   4.476   0.118   5.235  0.2761  1.5948  2.4288
 6376SOL    HW219418   4.313   0.124   5.235 -0.1260 -2.3990 -2.7004
 6377SOL     OW19419   4.797   0.286   2.428  0.4403 -0.5103  0.5547
 6377SOL    HW119420   4.720   0.339   2.394  0.6437  0.7258  1.9200
 6377SOL    HW219421   4.777   0.188   2.419  0.1059 -0.2811 -2.1319
 6378SOL     OW19422   4.723   5.706   1.194 -0.2345  0.0559 -0.0647
 6378SOL    HW119423   4.809   5.686   1.148 -0.8513  0.3119 -1.3821
 6378SOL    HW219424   4.732   5.788   1.250  0.6656 -0.5285  0.6638
 6379SOL     OW19425   5.120   0.324   5.447 -0.7279 -0.2962  0.0481
 6379SOL    HW119426   5.201   0.286   5.402  0.1875  1.6007  0.0073
 6379SOL    HW219427   5.088   0.403   5.395 -1.7726 -0.1967  0.8313
 6380SOL     OW19428   5.231   4.318   0.846 -0.6567  0.0356 -0.5477
 6380SOL    HW119429   5.248   4.309   0.748  1.4569 -0.4028 -0.1955
 6380SOL    HW219430   5.231   4.415   0.871 -0.4876  0.1203 -0.8727
 6381SOL     OW19431   3.309   4.749   1.493  0.2056  0.3187  0.3486
 6381SOL    HW119432   3.211   4.732   1.505  0.0638 -0.5678 -1.6672
 6381SOL    HW219433   3.324   4.846   1.477 -0.3390  0.4423  0.5566
 6382SOL     OW19434   5.453   4.016   0.841 -0.1425 -0.1516 -0.0220
 6382SOL    HW119435   5.435   4.001   0.939 -1.5182  0.2485 -0.1924
 6382SOL    HW219436   5.448   3.929   0.793 -1.9928 -0.0385 -0.0934
 6383SOL     OW19437   3.998   5.352   0.027  0.0213 -0.6538 -0.0169
 6383SOL    HW119438   4.014   5.379   0.122  0.6156 -1.0248 -0.0060
 6383SOL    HW219439   4.085   5.344  -0.021 -0.2671 -0.5806 -0.5679
 6384SOL     OW19440   4.437   0.173   1.334 -0.4005 -1.0736 -0.0475
 6384SOL    HW119441   4.365   0.169   1.403 -1.5883  0.6424 -1.1054
 6384SOL    HW219442   4.424   0.099   1.268 -1.9710 -0.1059 -0.8928
 6385SOL     OW19443   4.972   5.017   2.497  0.3720 -0.6257 -0.3203
 6385SOL    HW119444   5.029   4.980   2.424  0.5427 -0.5299 -0.2353
 6385SOL    HW219445   5.005   4.984   2.586 -0.1304 -1.1401 -0.3127
 6386SOL     OW19446   2.956   5.635   0.970 -0.3462  0.2367  0.0910
 6386SOL    HW119447   2.984   5.551   1.017  3.1026  1.2263  0.0673
 6386SOL    HW219448   2.863   5.624   0.936 -0.5722 -2.9946  1.3578
 6387SOL     OW19449   2.952   0.972   2.035  0.3653 -0.3852 -0.2891
 6387SOL    HW119450   2.884   1.025   1.986 -1.7022 -0.0745  2.6189
 6387SOL    HW219451   3.042   1.014   2.025 -0.1936  0.3654 -2.5991
 6388SOL     OW19452   4.783   5.590   5.682  0.8626 -0.0617  0.4645
 6388SOL    HW119453   4.721   5.512   5.696 -1.8471  1.8278 -0.3166
 6388SOL    HW219454   4.812   5.625   5.771 -0.5245 -0.0369  0.9468
 6389SOL     OW19455   2.973   0.363   1.061  0.0254  0.4840 -0.2069
 6389SOL    HW119456   2.984   0.267   1.036 -1.4461  0.9903 -3.2972
 6389SOL    HW219457   3.049   0.417   1.023 -0.6197  0.8577 -1.0214
 6390SOL     OW19458   5.296   5.374   5.612 -0.3575 -0.3121  0.8247
 6390SOL    HW119459   5.249   5.298   5.565  0.2561  0.7511 -1.6710
 6390SOL    HW219460   5.395   5.360   5.607 -0.2719  0.1040  1.3138
 6391SOL     OW19461   4.635   0.525   1.147  0.0080 -0.3429 -0.6841
 6391SOL    HW119462   4.601   0.618   1.163  0.7958  0.1499 -1.7851
 6391SOL    HW219463   4.558   0.461   1.151 -0.7675  0.5200 -1.2149
 6392SOL     OW19464   4.740   4.412   2.799 -0.0847  0.3593  0.0699
 6392SOL    HW119465   4.827   4.375   2.832  1.1042  0.5879 -2.5256
 6392SOL    HW219466   4.758   4.493   2.742 -2.1028  0.9833  0.2344
 6393SOL     OW19467   5.548   5.634   0.760 -0.2965 -0.2724 -0.1762
 6393SOL    HW119468   5.522   5.619   0.665  0.0696 -0.5595 -0.2323
 6393SOL    HW219469   5.549   5.547   0.809  1.2886 -0.3839 -0.3669
 6394SOL     OW19470   5.744   4.557   5.664 -0.0419  0.4150  0.4813
 6394SOL    HW119471   5.779   4.490   5.599  1.6617 -0.0639  1.8143
 6394SOL    HW219472   5.644   4.560   5.659 -0.0911 -1.4226 -0.3587
 6395SOL     OW19473   5.941   5.552   1.685  0.0016 -0.0920  0.0082
 6395SOL    HW119474   5.895   5.480   1.634 -1.5433  0.5165  0.5007
 6395SOL    HW219475   5.964   5.518   1.777 -0.4127 -0.0625  0.1225
 6396SOL     OW19476   4.129   5.502   0.655  0.1214 -0.3070  0.0991
 6396SOL    HW119477   4.219   5.458   0.648 -0.0687 -0.6844  0.0362
 6396SOL    HW219478   4.089   5.482   0.744 -0.4647 -1.2136 -0.3627
 6397SOL     OW19479   3.958   5.439   0.863  0.4291 -0.3147  0.4679
 6397SOL    HW119480   3.977   5.346   0.896  0.4118 -0.5977 -0.2921
 6397SOL    HW219481   3.860   5.449   0.845  0.4881 -0.2901  0.1497
 6398SOL     OW19482   3.553   0.183   0.169 -0.1374 -0.3137 -0.3447
 6398SOL    HW119483   3.494   0.178   0.250 -0.3006 -2.0428 -0.5400
 6398SOL    HW219484   3.644   0.213   0.197 -0.8059  1.4175  0.1032
 6399SOL     OW19485   4.360   5.208   0.058 -0.4475  0.4572 -0.3806
 6399SOL    HW119486   4.325   5.207  -0.036 -1.6324  0.8241  0.0372
 6399SOL    HW219487   4.362   5.302   0.091 -0.0082  0.3296 -0.0391
 6400SOL     OW19488   0.063   0.191   0.029  0.1872  0.6902 -0.0152
 6400SOL    HW119489   0.036   0.099   0.057 -0.2743  1.0088  0.6325
 6400SOL    HW219490  -0.011   0.255   0.051  1.0754  1.4364  0.8778
 6401SOL     OW19491   5.812   0.786   1.465 -0.1837  0.2882 -0.1501
 6401SOL    HW119492   5.874   0.721   1.510  0.4545  0.6389 -0.5050
 6401SOL    HW219493   5.831   0.786   1.366 -0.9443  0.1970 -0.2982
 6402SOL     OW19494   0.196   4.634   1.395  0.1984  0.1246 -0.1057
 6402SOL    HW119495   0.257   4.558   1.373 -0.9560 -0.3725 -1.8285
 6402SOL    HW219496   0.208   4.707   1.327 -0.4224  0.4463  0.1175
 6403SOL     OW19497   5.104   4.771   3.251  0.2573 -0.7582 -0.1837
 6403SOL    HW119498   5.131   4.867   3.240 -0.3134 -0.6964 -1.1309
 6403SOL    HW219499   5.171   4.725   3.309  0.4201  0.2640  0.4717
 6404SOL     OW19500   6.007   4.930   0.747  0.2912 -0.0088  0.3477
 6404SOL    HW119501   6.054   4.927   0.658 -0.4420  0.9164 -0.0941
 6404SOL    HW219502   5.913   4.899   0.735 -0.1611  1.2188  0.5442
 6405SOL     OW19503   5.588   4.560   0.675 -0.0252  0.2768 -0.2926
 6405SOL    HW119504   5.649   4.483   0.694 -0.4566 -0.5624 -2.1426
 6405SOL    HW219505   5.545   4.589   0.761 -1.3631 -2.8585  0.2384
 6406SOL     OW19506   5.250   5.978   0.777 -0.1895 -0.9515  0.4824
 6406SOL    HW119507   5.313   6.024   0.714  0.4110  0.1404  1.8244
 6406SOL    HW219508   5.161   5.967   0.733 -0.3765  1.5428  0.0649
 6407SOL     OW19509   5.088   5.863   0.475 -0.2952  0.3117 -0.3541
 6407SOL    HW119510   5.181   5.833   0.497 -0.5901  0.4875  1.3292
 6407SOL    HW219511   5.070   5.850   0.378  1.8791  1.3477 -0.9522
 6408SOL     OW19512   3.167   0.346   3.005 -0.4797  0.2964  0.8080
 6408SOL    HW119513   3.130   0.280   3.070  2.1739  0.4376  2.5789
 6408SOL    HW219514   3.201   0.426   3.054  2.1870  0.1573 -0.6217
 6409SOL     OW19515   4.057   5.144   3.059  0.0822  0.1623 -0.8986
 6409SOL    HW119516   3.980   5.187   3.108 -0.5414  1.0200 -2.5293
 6409SOL    HW219517   4.022   5.072   2.999  0.9918 -1.8651  0.8615
 6410SOL     OW19518   4.689   0.527   1.469  0.4587  0.0472 -0.1351
 6410SOL    HW119519   4.594   0.529   1.440  0.4503 -0.2954 -0.1324
 6410SOL    HW219520   4.748   0.545   1.390  0.3496  1.6930  0.1246
 6411SOL     OW19521   4.176   0.522   3.729 -0.1963  0.0480  0.1346
 6411SOL    HW119522   4.182   0.621   3.715 -0.4007  0.4320  2.3816
 6411SOL    HW219523   4.267   0.484   3.741 -0.0985 -0.1015 -1.0057
 6412SOL     OW19524   0.660   1.128   2.165 -0.4201 -0.1185 -0.4008
 6412SOL    HW119525   0.711   1.144   2.250  1.1637 -0.3725 -1.2669
 6412SOL    HW219526   0.588   1.060   2.182  1.0851 -1.6017  0.3406
 6413SOL     OW19527   0.007   0.941   2.404 -0.2060  0.0484  0.1427
 6413SOL    HW119528   0.091   0.947   2.457  0.1210  0.7364 -0.4345
 6413SOL    HW219529   0.005   0.856   2.352 -0.2052 -0.3012  0.7180
 6414SOL     OW19530   4.113   5.624   1.865  0.4011  0.3223  0.1353
 6414SOL    HW119531   4.039   5.592   1.806  0.1455  0.2964  0.4664
 6414SOL    HW219532   4.180   5.674   1.811 -0.2671  1.0458 -0.0364
 6415SOL     OW19533   5.120   5.708   3.320 -0.4694 -0.1939  0.0384
 6415SOL    HW119534   5.066   5.749   3.247  0.6630  1.5679  0.1190
 6415SOL    HW219535   5.206   5.674   3.282 -0.5410 -0.6732  0.3055
 6416SOL     OW19536   4.253   0.456   1.764 -0.2160  0.1602 -0.3574
 6416SOL    HW119537   4.187   0.479   1.693  1.2728  0.1997 -1.8014
 6416SOL    HW219538   4.268   0.357   1.764  0.0545  0.2013 -0.3397
 6417SOL     OW19539   4.164   0.621   1.267  0.4492 -0.2006  0.0842
 6417SOL    HW119540   4.256   0.589   1.247  0.6146  0.2297  0.1494
 6417SOL    HW219541   4.102   0.598   1.192  1.2647  2.3335 -1.4801
 6418SOL     OW19542   4.218   0.039   1.966 -0.2766  0.0475  0.5856
 6418SOL    HW119543   4.202   0.060   2.062 -1.6816  0.9545  0.1746
 6418SOL    HW219544   4.131   0.033   1.917  0.4277 -0.0419 -0.7160
 6419SOL     OW19545   3.598   0.052   3.558  0.1813  0.3936  0.1907
 6419SOL    HW119546   3.588   0.116   3.634  3.7031  0.8919  0.3852
 6419SOL    HW219547   3.627   0.102   3.476 -0.0542 -0.5835 -0.5001
 6420SOL     OW19548   5.271   0.650   2.900 -0.3220 -0.5099 -0.1899
 6420SOL    HW119549   5.309   0.557   2.906  0.8640 -0.1671 -1.6574
 6420SOL    HW219550   5.178   0.645   2.864 -0.3126 -1.1429 -0.1489
 6421SOL     OW19551   4.781   0.805   4.123 -0.9104 -0.2336 -0.1652
 6421SOL    HW119552   4.796   0.822   4.220 -0.9509 -1.6315  0.1081
 6421SOL    HW219553   4.740   0.714   4.111 -1.1450  0.0246 -1.4717
 6422SOL     OW19554   4.586   5.501   1.300 -0.1655  0.1276 -0.0949
 6422SOL    HW119555   4.535   5.435   1.246  2.3711 -0.9808 -1.3071
 6422SOL    HW219556   4.630   5.568   1.239 -0.2757  1.1367  0.8931
 6423SOL     OW19557   3.105   5.701   2.396  0.2349 -0.0498  0.2819
 6423SOL    HW119558   3.167   5.623   2.400 -1.5290 -1.5738 -0.9639
 6423SOL    HW219559   3.140   5.774   2.456  2.7894 -1.1125  0.2003
 6424SOL     OW19560   5.639   1.235   3.883  0.0199  0.8392  0.3645
 6424SOL    HW119561   5.621   1.212   3.788  1.9899  0.4920  0.0333
 6424SOL    HW219562   5.607   1.161   3.943  1.9484 -0.6336 -0.3277
 6425SOL     OW19563   3.854   0.358   1.536  0.1014  0.0923  0.0447
 6425SOL    HW119564   3.871   0.260   1.530 -0.2386  0.0628 -0.5349
 6425SOL    HW219565   3.828   0.383   1.629  2.7498  0.0533  0.8820
 6426SOL     OW19566   5.013   5.321   0.907  0.2210  0.9099  0.1379
 6426SOL    HW119567   5.076   5.310   0.983 -1.8625  0.4765  1.9007
 6426SOL    HW219568   4.979   5.415   0.905  0.1829  0.8919 -0.1963
 6427SOL     OW19569   5.726   0.827   2.403 -0.6755  0.5472  0.0652
 6427SOL    HW119570   5.802   0.877   2.363 -0.8029  0.5854 -0.1322
 6427SOL    HW219571   5.747   0.804   2.498 -0.9941  1.8009  0.4646
 6428SOL     OW19572   5.131   5.772   2.727 -0.4736 -0.4155 -0.3222
 6428SOL    HW119573   5.064   5.722   2.671 -1.4745  0.8981 -0.3554
 6428SOL    HW219574   5.148   5.722   2.811 -1.5029 -0.7861 -0.3178
 6429SOL     OW19575   5.172   5.712   2.986  0.2390  0.1151  0.1658
 6429SOL    HW119576   5.226   5.789   3.020 -0.3409  0.3052  0.6588
 6429SOL    HW219577   5.214   5.626   3.016  0.1744  0.2646  0.6784
 6430SOL     OW19578   3.835   5.198   1.825  0.3345 -0.3318  0.0681
 6430SOL    HW119579   3.854   5.232   1.733  0.6647  0.6519  0.4840
 6430SOL    HW219580   3.745   5.231   1.854  1.0946  1.1422  0.8817
 6431SOL     OW19581   3.750   5.391   2.278  0.2357 -0.5422  0.2212
 6431SOL    HW119582   3.784   5.298   2.269  0.0203 -0.5893 -0.1332
 6431SOL    HW219583   3.768   5.442   2.194 -0.4355 -0.5268  0.0835
 6432SOL     OW19584   3.833   5.533   2.033  0.5091 -0.4486 -0.1938
 6432SOL    HW119585   3.897   5.485   1.973  0.9123  0.8774 -0.8542
 6432SOL    HW219586   3.834   5.631   2.012 -1.6987 -0.3681 -0.2092
 6433SOL     OW19587   3.004   5.666   3.209  0.4028  0.1805  0.5098
 6433SOL    HW119588   2.970   5.744   3.260  1.0593 -1.6817  4.1051
 6433SOL    HW219589   3.104   5.674   3.198  0.3102  0.4022 -0.2183
 6434SOL     OW19590   4.636   5.652   3.570  0.5634 -0.0298 -0.2632
 6434SOL    HW119591   4.702   5.579   3.585 -0.1021 -1.0584 -2.0752
 6434SOL    HW219592   4.544   5.614   3.568 -0.1759  1.3752  2.1992
 6435SOL     OW19593   4.341   1.093   3.237 -0.4539  0.3502  0.1615
 6435SOL    HW119594   4.370   1.003   3.269 -0.6874  0.0833 -0.3568
 6435SOL    HW219595   4.244   1.091   3.216 -0.2289  0.3925 -0.9488
 6436SOL     OW19596   3.146   0.774   2.295  0.0450  0.0268 -0.0963
 6436SOL    HW119597   3.078   0.746   2.227 -0.9012  0.9948  0.4247
 6436SOL    HW219598   3.185   0.693   2.339 -0.1922 -0.5637 -0.9499
 6437SOL     OW19599   4.169   5.322   2.885 -0.0761 -0.1105  0.2902
 6437SOL    HW119600   4.165   5.403   2.942 -1.6835 -0.2243  0.3958
 6437SOL    HW219601   4.155   5.240   2.941  1.9349 -0.5169  0.2474
 6438SOL     OW19602   3.325   5.975   2.258  0.0351 -0.1309  0.1206
 6438SOL    HW119603   3.279   5.893   2.226  0.5767 -0.5490  0.3993
 6438SOL    HW219604   3.272   6.056   2.232 -0.1096 -0.5199 -0.8200
 6439SOL     OW19605   4.782   5.751   3.118 -0.2160 -0.1111  0.3091
 6439SOL    HW119606   4.809   5.794   3.032 -3.5401 -2.4063 -2.1722
 6439SOL    HW219607   4.715   5.809   3.165  1.3507  0.9883  1.2647
 6440SOL     OW19608   5.613   4.767   2.074 -0.0958  0.3621  0.6262
 6440SOL    HW119609   5.665   4.684   2.089  2.5048  1.9754  1.1284
 6440SOL    HW219610   5.601   4.815   2.161 -1.2373  0.7121  0.2912
 6441SOL     OW19611   5.372   0.416   2.860  0.0048  0.2952  0.3711
 6441SOL    HW119612   5.465   0.403   2.826 -0.1616  0.9481 -0.3457
 6441SOL    HW219613   5.352   0.345   2.928  0.3230 -1.1116 -0.9322
 6442SOL     OW19614   4.771   1.090   2.434 -0.1347 -0.0887 -0.5437
 6442SOL    HW119615   4.673   1.093   2.415  0.0827  0.9289 -1.5998
 6442SOL    HW219616   4.821   1.139   2.362  1.1223 -0.2513  0.1848
 6443SOL     OW19617   3.787   5.710   3.771  0.1040  0.3606 -0.2825
 6443SOL    HW119618   3.696   5.672   3.786  0.5646  0.2044  2.6725
 6443SOL    HW219619   3.853   5.636   3.762  0.5447  0.3571  2.3058
 6444SOL     OW19620   1.919   0.924   1.181  0.8648 -0.1185  0.3899
 6444SOL    HW119621   1.847   0.909   1.114  1.6098 -2.0650 -0.0344
 6444SOL    HW219622   1.936   1.022   1.191 -0.8549  0.3093 -0.5115
 6445SOL     OW19623   4.829   5.254   2.425 -0.2146 -0.1103 -0.4285
 6445SOL    HW119624   4.909   5.196   2.410  1.2937  2.0765 -1.5819
 6445SOL    HW219625   4.837   5.299   2.514  1.1791  1.9042 -1.4884
 6446SOL     OW19626   5.876   5.265   3.684 -0.2007 -0.0975 -0.0707
 6446SOL    HW119627   5.885   5.170   3.652 -1.9539 -0.4480  0.3828
 6446SOL    HW219628   5.797   5.272   3.744 -0.2905  1.7382 -0.3698
 6447SOL     OW19629   4.389   0.311   3.244  0.3053 -0.7605 -0.7860
 6447SOL    HW119630   4.410   0.385   3.179 -1.0793  1.3216  0.9862
 6447SOL    HW219631   4.402   0.345   3.337 -1.0531 -2.5788  0.1173
 6448SOL     OW19632   4.709   4.960   2.566  0.1835 -0.1963  0.1152
 6448SOL    HW119633   4.804   4.993   2.570  0.8897 -1.8316 -1.6305
 6448SOL    HW219634   4.679   4.956   2.470 -0.8006 -1.9268  0.4514
 6449SOL     OW19635   5.566   5.335   2.309  0.1886 -0.2252 -0.6897
 6449SOL    HW119636   5.597   5.430   2.305  1.7493 -0.7381 -1.4474
 6449SOL    HW219637   5.610   5.283   2.236 -0.2229 -1.6540  0.0582
 6450SOL     OW19638   4.580   5.027   2.936 -0.6315  0.2477 -0.1759
 6450SOL    HW119639   4.544   4.953   2.880 -0.2897 -0.5713  0.6519
 6450SOL    HW219640   4.610   5.102   2.878 -2.1527  0.2847 -0.9731
 6451SOL     OW19641   5.021   0.697   1.922  0.2942 -0.1976  0.6084
 6451SOL    HW119642   5.081   0.776   1.931  0.1311  0.1975 -1.3350
 6451SOL    HW219643   4.935   0.725   1.879 -0.2367 -1.2312  0.9615
 6452SOL     OW19644   4.759   1.001   2.685 -0.1904 -0.2655 -0.2055
 6452SOL    HW119645   4.663   0.985   2.711 -0.4644  2.6003  0.8913
 6452SOL    HW219646   4.763   1.027   2.589 -0.4335 -0.8901 -0.3921
 6453SOL     OW19647   4.822   0.826   3.544 -0.0579 -0.5204 -0.2383
 6453SOL    HW119648   4.820   0.730   3.575  1.1378 -1.0085 -1.5798
 6453SOL    HW219649   4.805   0.829   3.446 -0.6756  0.7214 -0.1025
 6454SOL     OW19650   4.035   0.780   4.601  0.1107 -0.4298 -0.1690
 6454SOL    HW119651   4.029   0.789   4.502 -1.9677 -0.9873 -0.1381
 6454SOL    HW219652   4.065   0.688   4.625 -0.9922 -0.8357 -0.2906
 6455SOL     OW19653   4.280   0.089   4.523  0.8412 -0.3071 -0.6297
 6455SOL    HW119654   4.378   0.111   4.517  0.9433 -0.8449 -0.9959
 6455SOL    HW219655   4.264   0.031   4.604  0.4490  1.7089  0.8068
 6456SOL     OW19656   0.411   0.686   4.207  0.0007 -0.4207  0.9476
 6456SOL    HW119657   0.501   0.642   4.205  0.3269  0.1448  2.2342
 6456SOL    HW219658   0.372   0.678   4.299 -0.2113  1.4166  1.0477
 6457SOL     OW19659   5.901   1.137   4.645 -0.8050 -0.2341  0.4773
 6457SOL    HW119660   5.906   1.085   4.560 -1.5653 -1.4880  1.1616
 6457SOL    HW219661   5.858   1.225   4.629 -1.7642 -0.8254 -0.2842
 6458SOL     OW19662   0.892   0.695   4.106 -0.3639  0.3617  0.2816
 6458SOL    HW119663   0.978   0.695   4.159 -0.4765  0.5914  0.4669
 6458SOL    HW219664   0.905   0.748   4.022 -0.0437 -0.3998 -0.1578
 6459SOL     OW19665   5.060   0.262   4.398  0.3162 -0.7953 -0.5233
 6459SOL    HW119666   4.970   0.296   4.423  0.3241 -0.6486 -0.6930
 6459SOL    HW219667   5.069   0.262   4.298 -0.3017 -2.8537 -0.6369
 6460SOL     OW19668   2.607   0.499   3.402 -0.7431 -0.1006  0.6614
 6460SOL    HW119669   2.569   0.452   3.482 -3.2161  1.0030  0.2245
 6460SOL    HW219670   2.564   0.465   3.319 -0.3830  0.8325  0.0702
 6461SOL     OW19671   4.663   4.738   4.897 -0.0843 -0.1481 -0.2016
 6461SOL    HW119672   4.580   4.767   4.944 -0.3337 -0.4629 -0.4449
 6461SOL    HW219673   4.650   4.646   4.859  0.3345 -0.1553 -0.3362
 6462SOL     OW19674   5.307   0.262   3.568 -0.8311  0.4076 -0.0847
 6462SOL    HW119675   5.253   0.179   3.555 -0.4064 -0.1246  1.3758
 6462SOL    HW219676   5.288   0.326   3.494 -1.8517 -0.6228 -0.7421
 6463SOL     OW19677   5.530   0.911   4.342 -0.1673 -0.1606 -0.1045
 6463SOL    HW119678   5.573   0.997   4.369  0.3788 -0.2446 -0.6958
 6463SOL    HW219679   5.593   0.857   4.287  0.5227 -2.2069  2.4963
 6464SOL     OW19680   4.797   5.634   4.854  0.5027 -0.1110  0.0768
 6464SOL    HW119681   4.768   5.551   4.807  2.5250 -1.4296  1.0190
 6464SOL    HW219682   4.806   5.615   4.952  1.4727  1.0903  0.2452
 6465SOL     OW19683   4.055   5.473   4.686 -0.2467 -0.2183 -0.0884
 6465SOL    HW119684   4.095   5.492   4.597 -0.2191 -0.5253 -0.1429
 6465SOL    HW219685   3.967   5.427   4.674 -0.1511 -0.4390  0.0440
 6466SOL     OW19686   5.600   5.133   5.207 -0.5058  0.0350 -0.3106
 6466SOL    HW119687   5.667   5.195   5.165  1.3714 -1.0665  0.9534
 6466SOL    HW219688   5.610   5.135   5.306 -0.5529 -2.0991 -0.2243
 6467SOL     OW19689   0.143   5.714   0.345 -0.2236  0.1980  0.3144
 6467SOL    HW119690   0.180   5.765   0.267 -0.8851  0.8348  0.3986
 6467SOL    HW219691   0.218   5.681   0.402  0.2789 -0.5481 -0.7578
 6468SOL     OW19692   5.381   1.394   3.758 -0.7223  0.2935 -0.2035
 6468SOL    HW119693   5.434   1.334   3.818 -1.3220 -1.5042 -1.3823
 6468SOL    HW219694   5.442   1.432   3.688 -0.7468 -0.8875 -0.8917
 6469SOL     OW19695   5.852   5.597   0.102  0.2492 -0.0796  0.8410
 6469SOL    HW119696   5.790   5.519   0.116  1.6702 -1.2629  0.7796
 6469SOL    HW219697   5.940   5.564   0.068  1.3114  1.4375  1.9613
 6470SOL     OW19698   4.679   4.997   5.672  0.1152  0.4107 -0.4893
 6470SOL    HW119699   4.710   5.082   5.714  1.6963 -0.5230  0.3576
 6470SOL    HW219700   4.698   4.999   5.574  1.8859  0.3314 -0.1760
 6471SOL     OW19701   4.124   5.550   4.416  0.0458 -0.6689 -0.2171
 6471SOL    HW119702   4.072   5.513   4.339  0.3896 -1.6087 -0.0097
 6471SOL    HW219703   4.211   5.502   4.423 -0.6445 -1.7879  1.7433
 6472SOL     OW19704   4.642   0.343   3.734  0.2809  0.9826 -0.2399
 6472SOL    HW119705   4.678   0.250   3.733  1.2539  1.2807 -2.9140
 6472SOL    HW219706   4.717   0.408   3.749 -0.4907  1.3981  2.3564
 6473SOL     OW19707   4.681   0.285   3.321  0.1028 -0.0010 -0.0042
 6473SOL    HW119708   4.641   0.248   3.405  0.7426  1.6855  1.1138
 6473SOL    HW219709   4.609   0.320   3.262 -0.3081 -0.3827  0.2670
 6474SOL     OW19710   5.703   0.047   4.618  0.3046 -0.0126  0.3400
 6474SOL    HW119711   5.603   0.045   4.614  0.3482 -0.3546 -1.5421
 6474SOL    HW219712   5.733   0.138   4.645 -0.5031 -0.0366  1.3960
 6475SOL     OW19713   4.097   1.117   3.519 -0.0349 -0.3867 -0.8047
 6475SOL    HW119714   4.078   1.172   3.438  2.6873 -1.6010 -2.3935
 6475SOL    HW219715   4.086   1.020   3.498  2.0822 -0.8185 -0.2473
 6476SOL     OW19716   4.402   4.957   3.396  0.1353  0.1501  0.5015
 6476SOL    HW119717   4.474   4.899   3.360  0.6155  0.5993  0.7351
 6476SOL    HW219718   4.440   5.020   3.463 -0.5385  0.1339  0.9104
 6477SOL     OW19719   4.920   4.177   4.605 -0.4776  0.2694 -0.0226
 6477SOL    HW119720   4.932   4.266   4.561 -0.7086  0.1636 -0.2980
 6477SOL    HW219721   4.847   4.183   4.673 -1.0189  0.0949 -0.5825
 6478SOL     OW19722   4.144   5.272   5.250  0.4944 -0.3142  0.1447
 6478SOL    HW119723   4.085   5.353   5.254  2.3462  1.1096  0.1078
 6478SOL    HW219724   4.094   5.192   5.283 -1.1103  1.0108  1.0697
 6479SOL     OW19725   5.345   5.135   5.383  0.3258  0.2455 -0.0691
 6479SOL    HW119726   5.261   5.134   5.438  1.6052 -0.9564  1.9824
 6479SOL    HW219727   5.421   5.168   5.439  2.0884 -2.8793 -0.4028
 6480SOL     OW19728   5.667   5.745   4.556  0.3597  0.0310 -0.5663
 6480SOL    HW119729   5.701   5.836   4.578 -0.1925 -0.2892  1.8429
 6480SOL    HW219730   5.599   5.752   4.483 -0.6423  1.7491  0.4595
 6481SOL     OW19731   4.526   1.651   4.383  0.4507  0.1321  0.1925
 6481SOL    HW119732   4.619   1.648   4.418  0.2718 -1.9220  0.6395
 6481SOL    HW219733   4.498   1.559   4.355 -1.6847  0.5615  0.7245
 6482SOL     OW19734   3.443   5.848   3.828  0.1236  0.6812  0.1560
 6482SOL    HW119735   3.504   5.898   3.766  1.4081 -0.3495  0.5469
 6482SOL    HW219736   3.467   5.751   3.827 -1.5300  0.2489  0.3392
 6483SOL     OW19737   5.018   0.479   2.441  0.3688 -0.0002 -0.7154
 6483SOL    HW119738   4.955   0.556   2.430  0.8551  1.1753  3.2890
 6483SOL    HW219739   4.968   0.393   2.430 -0.7551  0.8309 -2.5958
 6484SOL     OW19740   3.744   0.957   4.663 -0.3023  0.2310 -0.0646
 6484SOL    HW119741   3.783   0.977   4.574 -0.4295  1.1963  0.0799
 6484SOL    HW219742   3.756   0.860   4.685  0.4806  0.1643 -0.7568
 6485SOL     OW19743   5.035   4.922   4.900  0.4171 -0.0107  0.4168
 6485SOL    HW119744   5.064   4.875   4.983 -3.3454  0.2413  2.0713
 6485SOL    HW219745   5.014   4.855   4.829  1.8745 -0.3335  0.2653
 6486SOL     OW19746   5.533   0.447   3.655 -0.7464 -0.0031  0.0171
 6486SOL    HW119747   5.460   0.415   3.594  1.0726  0.4561 -2.6116
 6486SOL    HW219748   5.619   0.404   3.629  0.2593  0.7968  1.8505
 6487SOL     OW19749   5.075   0.223   3.878 -0.2845  0.0635 -0.1176
 6487SOL    HW119750   5.044   0.271   3.796  1.8972  0.0277 -1.0502
 6487SOL    HW219751   5.038   0.130   3.879 -0.9283  0.3109 -0.6813
 6488SOL     OW19752   4.647   0.230   4.137 -0.2520  0.7471 -0.6085
 6488SOL    HW119753   4.558   0.225   4.091 -0.4639 -1.6946 -0.0618
 6488SOL    HW219754   4.707   0.158   4.100  0.5497  0.6080  0.9091
 6489SOL     OW19755   5.397   0.684   4.538 -0.2208  0.4342 -0.1437
 6489SOL    HW119756   5.314   0.628   4.532 -0.4394  0.4941  1.7509
 6489SOL    HW219757   5.374   0.779   4.517  0.1379 -0.0593 -3.3006
 6490SOL     OW19758   3.173   5.962   3.323 -0.1202  0.2112  0.2147
 6490SOL    HW119759   3.214   5.955   3.232  0.3235  1.2759  0.3139
 6490SOL    HW219760   3.244   5.953   3.393 -0.2579  0.7089  0.4227
 6491SOL     OW19761   4.382   0.304   4.068 -0.1422 -0.4473 -0.3435
 6491SOL    HW119762   4.370   0.359   4.150  3.0728 -1.4048  0.9286
 6491SOL    HW219763   4.321   0.224   4.072  0.0522 -0.5398  1.2026
 6492SOL     OW19764   4.416   0.488   4.828 -0.3642  0.2205 -0.1945
 6492SOL    HW119765   4.358   0.563   4.859 -1.9926 -1.2230  0.4225
 6492SOL    HW219766   4.469   0.453   4.905  1.1883  1.3507 -0.6983
 6493SOL     OW19767   5.633   0.536   5.154 -0.5239 -0.7410  0.1416
 6493SOL    HW119768   5.551   0.579   5.192 -0.2671  0.4037 -0.5510
 6493SOL    HW219769   5.694   0.607   5.118  0.2371 -1.6543 -0.4047
 6494SOL     OW19770   5.943   5.280   0.019  0.6697  0.3205 -0.0695
 6494SOL    HW119771   5.918   5.260   0.114  2.2462  0.0818  0.3232
 6494SOL    HW219772   5.944   5.195  -0.034  0.2828  0.3804 -0.1701
 6495SOL     OW19773   5.778   5.199   4.279  0.1305  0.1753 -0.5653
 6495SOL    HW119774   5.830   5.115   4.288  0.9211  0.4839 -1.9444
 6495SOL    HW219775   5.813   5.267   4.343 -0.3685 -0.4609  0.3974
 6496SOL     OW19776   5.518   1.568   4.850 -0.2861 -0.2889  0.0624
 6496SOL    HW119777   5.444   1.633   4.835 -2.0030 -1.9535  0.8456
 6496SOL    HW219778   5.581   1.570   4.772 -1.7480  0.4079 -1.1548
 6497SOL     OW19779   3.735   0.369   3.094 -0.5497 -0.5857 -0.1683
 6497SOL    HW119780   3.804   0.416   3.039 -1.3370 -0.6605 -1.2426
 6497SOL    HW219781   3.778   0.294   3.144  0.2988 -0.1070 -0.1624
 6498SOL     OW19782   4.905   5.903   4.420  0.1633  0.0834 -0.2786
 6498SOL    HW119783   4.949   5.905   4.330  0.6390  0.9601 -0.0413
 6498SOL    HW219784   4.835   5.832   4.421  0.5534 -0.3386 -1.1496
 6499SOL     OW19785   5.502   4.588   5.923  0.3389  0.1526 -0.1651
 6499SOL    HW119786   5.591   4.575   5.969 -1.0558 -0.3049  2.6594
 6499SOL    HW219787   5.432   4.539   5.974 -1.9446  2.4730 -0.8614
 6500SOL     OW19788   5.292   5.732   5.957  0.1926  0.9431  0.2989
 6500SOL    HW119789   5.254   5.729   6.050 -2.2757  1.4826 -0.6090
 6500SOL    HW219790   5.270   5.647   5.909 -2.1147  2.1521 -0.9886
 6501SOL     OW19791   5.348   0.215   5.331  0.3113 -0.5350 -0.0212
 6501SOL    HW119792   5.413   0.268   5.275  0.7844  0.1200  1.1217
 6501SOL    HW219793   5.383   0.121   5.341 -0.4099 -1.0618 -1.8449
 6502SOL     OW19794   4.690   5.005   5.387 -0.7043 -1.0693 -1.0266
 6502SOL    HW119795   4.707   5.081   5.325  0.2544 -0.6735 -0.3039
 6502SOL    HW219796   4.606   4.958   5.360 -1.3565  0.2798 -1.4506
 6503SOL     OW19797   5.626   5.811   0.467  0.2781 -0.3049  0.0658
 6503SOL    HW119798   5.687   5.752   0.415  1.1726 -0.6495  1.4620
 6503SOL    HW219799   5.537   5.766   0.476  0.6568 -1.0230  0.3157
 6504SOL     OW19800   3.880   0.011   0.666 -0.0381  0.1169 -0.3782
 6504SOL    HW119801   3.864   0.061   0.581  1.5768  1.7764  0.2268
 6504SOL    HW219802   3.940  -0.067   0.649  2.9143  2.2163 -0.3932
 6505SOL     OW19803   4.793   4.891   5.928  0.7475 -0.0004  0.1223
 6505SOL    HW119804   4.756   4.885   5.835 -0.0903 -1.1818  0.5057
 6505SOL    HW219805   4.725   4.933   5.988 -0.3688 -2.8104  0.9777
 6506SOL     OW19806   3.285   0.353   5.351 -0.4731 -0.2221 -0.2511
 6506SOL    HW119807   3.289   0.403   5.438  0.6845  1.5817 -1.2908
 6506SOL    HW219808   3.362   0.290   5.345  0.6705  1.1574 -0.7855
 6507SOL     OW19809   5.514   1.230   5.500 -0.1063  0.0099 -0.2286
 6507SOL    HW119810   5.446   1.163   5.471 -0.4925 -0.0496  0.8003
 6507SOL    HW219811   5.483   1.276   5.583  0.3634  1.1428 -0.6555
 6508SOL     OW19812   5.436   4.718   4.851 -0.4038 -0.1312  0.1451
 6508SOL    HW119813   5.466   4.813   4.839  0.2259 -0.4562 -0.9702
 6508SOL    HW219814   5.418   4.701   4.948  2.6326  0.2047  0.8485
 6509SOL     OW19815   4.811   5.382   0.250 -1.0297 -0.3639  0.1095
 6509SOL    HW119816   4.845   5.331   0.329 -0.0664 -3.1588 -1.9201
 6509SOL    HW219817   4.721   5.347   0.223 -0.6268 -0.6284 -0.9641
 6510SOL     OW19818   2.897   0.676   1.141  0.1900  0.3939  0.3123
 6510SOL    HW119819   2.989   0.651   1.170 -0.4448 -2.2913  0.3314
 6510SOL    HW219820   2.901   0.716   1.049  1.5722  2.8726  1.3707
 6511SOL     OW19821   3.603   5.416   5.234 -0.0605  0.1116  0.2357
 6511SOL    HW119822   3.582   5.451   5.143 -0.8385 -1.1952 -0.1150
 6511SOL    HW219823   3.523   5.369   5.271  0.7054 -0.6672  0.9638
 6512SOL     OW19824   5.430   5.537   4.919  0.4556 -0.1444 -0.4948
 6512SOL    HW119825   5.411   5.451   4.870  0.2512 -0.1825 -0.3497
 6512SOL    HW219826   5.434   5.612   4.854 -0.5566 -0.0782 -0.4918
 6513SOL     OW19827   0.429   5.175   0.173 -0.1135 -0.0176 -0.2274
 6513SOL    HW119828   0.411   5.183   0.271 -0.7126  0.0630 -0.3359
 6513SOL    HW219829   0.513   5.223   0.150  0.6281 -0.9703  0.4239
 6514SOL     OW19830   5.548   5.877   2.174  0.0408 -0.2376 -0.1714
 6514SOL    HW119831   5.485   5.895   2.099  0.8333  1.1913 -0.5518
 6514SOL    HW219832   5.582   5.964   2.210 -1.4756 -0.7879  2.9064
 6515SOL     OW19833   0.173   0.875   0.804 -0.4579  0.4238  0.6067
 6515SOL    HW119834   0.182   0.926   0.889  0.0420  0.9978  0.2167
 6515SOL    HW219835   0.228   0.918   0.733  0.3148 -0.8968  0.3693
 6516SOL     OW19836   0.496   1.013   0.929 -0.0632  0.5938  0.5685
 6516SOL    HW119837   0.484   1.105   0.891 -0.0286  1.1154  1.7742
 6516SOL    HW219838   0.491   0.946   0.855 -0.0102  1.5638 -0.3438
 6517SOL     OW19839   5.888   2.509   1.745 -0.2583  0.1287  0.3932
 6517SOL    HW119840   5.933   2.598   1.736  0.3293 -0.2371 -0.4068
 6517SOL    HW219841   5.835   2.490   1.662  1.1810 -1.1026 -0.2825
 6518SOL     OW19842   5.032   2.629   4.375 -0.3567 -0.1766 -0.2250
 6518SOL    HW119843   5.026   2.640   4.474 -1.0799  0.5420 -0.3326
 6518SOL    HW219844   4.954   2.674   4.332 -0.8539 -1.7750 -1.0456
 6519SOL     OW19845   5.965   1.551   0.447  0.2085 -0.0904  0.4387
 6519SOL    HW119846   5.867   1.559   0.429 -0.1406 -3.2206  0.3725
 6519SOL    HW219847   5.987   1.457   0.472  2.9667  0.9143  2.2501
 6520SOL     OW19848  -0.002   2.376   0.058 -0.8179  0.6054  0.3753
 6520SOL    HW119849   0.073   2.331   0.011 -1.6072  0.7829 -1.1198
 6520SOL    HW219850  -0.053   2.309   0.112 -0.0204  0.3501  0.8088
 6521SOL     OW19851   0.112   5.360   1.036  0.2989 -0.6126 -0.0369
 6521SOL    HW119852   0.107   5.373   1.135  1.1275 -0.6317  0.0116
 6521SOL    HW219853   0.206   5.375   1.005  0.1417 -1.0677 -0.7532
 6522SOL     OW19854   4.482   2.236   0.102  0.4319  0.1244  0.5273
 6522SOL    HW119855   4.520   2.308   0.160 -0.9764  1.0702  0.3131
 6522SOL    HW219856   4.421   2.178   0.156  0.9558 -0.4502  0.5173
 6523SOL     OW19857   5.367   0.354   1.395 -0.5002  0.7950  0.2398
 6523SOL    HW119858   5.350   0.340   1.492  0.9830 -0.3931  0.3465
 6523SOL    HW219859   5.295   0.310   1.341  0.0423 -0.7437  0.7523
 6524SOL     OW19860   5.273   1.044   1.852 -0.6069  0.3565 -0.0495
 6524SOL    HW119861   5.190   1.000   1.819  1.1434 -2.6899 -0.7703
 6524SOL    HW219862   5.334   0.976   1.893  1.9057  2.2803 -0.2798
 6525SOL     OW19863   5.481   0.625   1.871  0.6573  0.0148  0.5166
 6525SOL    HW119864   5.408   0.635   1.939  0.3166  2.1496 -0.1112
 6525SOL    HW219865   5.558   0.684   1.895  0.9467  0.0309 -0.4327
 6526SOL     OW19866   5.342   1.787   2.510 -0.3519  0.0538  0.4074
 6526SOL    HW119867   5.311   1.722   2.579 -2.5177  1.5309  0.9104
 6526SOL    HW219868   5.362   1.875   2.553  0.9425  0.2271 -0.4881
 6527SOL     OW19869   5.384   5.328   0.974  0.1984 -0.0853 -0.4728
 6527SOL    HW119870   5.479   5.359   0.964  0.4446 -1.0268 -1.1592
 6527SOL    HW219871   5.373   5.283   1.063 -0.0744  1.5665  0.3850
 6528SOL     OW19872   4.723   1.880   0.184 -0.1634  0.6777 -0.6159
 6528SOL    HW119873   4.683   1.867   0.093  1.3394  1.8989 -1.5014
 6528SOL    HW219874   4.814   1.922   0.175  0.8714 -0.9198  1.3464
 6529SOL     OW19875   5.409   1.768   0.809  0.0556 -0.1225  0.0605
 6529SOL    HW119876   5.383   1.836   0.877  2.3344 -0.1829  1.0896
 6529SOL    HW219877   5.383   1.677   0.841 -1.9917  0.1071 -0.8075
 6530SOL     OW19878   5.565   5.729   5.802 -0.3140  0.2749 -0.1421
 6530SOL    HW119879   5.502   5.786   5.750  0.1132  2.2354  1.3813
 6530SOL    HW219880   5.515   5.674   5.868 -0.7048 -0.9894 -1.4439
 6531SOL     OW19881   0.272   0.093   0.791  1.1694  0.3546  0.6637
 6531SOL    HW119882   0.340   0.048   0.850  0.7156  0.6838  1.4445
 6531SOL    HW219883   0.312   0.174   0.749  0.6533  1.7957  2.8176
 6532SOL     OW19884   5.988   1.482   1.599  0.0982  0.0804 -0.0542
 6532SOL    HW119885   5.919   1.553   1.611  0.6849  0.4105  1.6354
 6532SOL    HW219886   5.987   1.420   1.677  0.4164 -1.0637 -0.9343
 6533SOL     OW19887   4.756   0.102   1.109  0.0206 -0.5863  0.0423
 6533SOL    HW119888   4.831   0.147   1.062 -1.2114  0.3051 -1.1533
 6533SOL    HW219889   4.683   0.082   1.044 -0.4677 -2.1491  1.0179
 6534SOL     OW19890   4.151   5.983   2.300 -0.1247 -0.0770  0.1726
 6534SOL    HW119891   4.184   5.971   2.393  0.0986  1.2688  0.2929
 6534SOL    HW219892   4.143   5.894   2.255  0.3059 -0.6937  1.2853
 6535SOL     OW19893   4.644   0.296   1.859 -0.0229  0.3890 -0.2606
 6535SOL    HW119894   4.679   0.372   1.804  0.4320  0.7985  0.5615
 6535SOL    HW219895   4.674   0.308   1.954 -1.3620  0.0773  0.2274
 6536SOL     OW19896   0.082   2.008   0.204 -0.2557  0.0517  0.2371
 6536SOL    HW119897   0.010   1.939   0.198 -0.9809  0.7942  0.1139
 6536SOL    HW219898   0.130   2.014   0.116  1.6503 -2.1748  1.0300
 6537SOL     OW19899   4.756   1.608   0.219 -0.6128  1.0905  0.1635
 6537SOL    HW119900   4.800   1.583   0.132 -1.4272  0.5917 -0.1102
 6537SOL    HW219901   4.738   1.707   0.220  1.9958  1.6397  0.9715
 6538SOL     OW19902   5.807   2.320   5.729 -0.2374  0.0878 -0.0060
 6538SOL    HW119903   5.833   2.249   5.795 -1.6012 -0.7274 -0.3173
 6538SOL    HW219904   5.848   2.407   5.757 -1.2375 -0.0956  2.2419
 6539SOL     OW19905   0.344   1.035   0.619 -0.0485  0.0223  0.2723
 6539SOL    HW119906   0.413   0.982   0.667  1.0408  1.6318  0.5611
 6539SOL    HW219907   0.388   1.100   0.557 -1.2820  0.9886  0.3597
 6540SOL     OW19908   0.493   5.897   1.293  0.2710 -0.0539 -0.9972
 6540SOL    HW119909   0.441   5.975   1.328  1.6489 -0.1696  1.5279
 6540SOL    HW219910   0.429   5.824   1.267 -0.9785  1.4211 -2.2586
 6541SOL     OW19911   1.138   2.661   2.120  0.5404 -0.3416 -0.3043
 6541SOL    HW119912   1.232   2.640   2.093  1.6498  0.5085  2.4955
 6541SOL    HW219913   1.092   2.576   2.147  0.5404 -0.7411 -1.5259
 6542SOL     OW19914   5.311   1.550   2.336 -0.1531 -0.0094 -0.2356
 6542SOL    HW119915   5.322   1.635   2.388 -1.1369 -1.1310  1.9223
 6542SOL    HW219916   5.232   1.557   2.276  0.1560  0.8106 -0.5628
 6543SOL     OW19917   5.651   1.530   1.175 -0.2950 -0.9771  0.2944
 6543SOL    HW119918   5.700   1.571   1.098  0.4613 -3.7947 -0.8748
 6543SOL    HW219919   5.708   1.457   1.215 -1.1494 -0.3582  2.8161
 6544SOL     OW19920   0.828   1.695   0.695  0.3919  0.3515  0.2157
 6544SOL    HW119921   0.815   1.681   0.794  1.2943  1.1539  0.4548
 6544SOL    HW219922   0.907   1.642   0.664  0.4725  0.5762  0.0381
 6545SOL     OW19923   5.010   2.393   1.579  0.6950  0.1609 -0.5080
 6545SOL    HW119924   5.037   2.475   1.528  0.6666  0.5222  0.0519
 6545SOL    HW219925   5.045   2.399   1.673  0.2784 -0.2477 -0.3247
 6546SOL     OW19926   0.090   0.614   2.014  0.8249  0.4181  0.1975
 6546SOL    HW119927   0.165   0.622   1.948  1.1876 -1.0716  0.3763
 6546SOL    HW219928   0.005   0.596   1.965  1.2749 -1.7910  0.1072
 6547SOL     OW19929   5.497   0.190   5.884  0.0236 -0.4385  0.5485
 6547SOL    HW119930   5.486   0.206   5.786 -0.4927 -0.0953  0.6540
 6547SOL    HW219931   5.542   0.269   5.926  0.8781 -0.8766  0.4859
 6548SOL     OW19932   5.232   0.985   1.203 -0.1117  0.1545  0.3927
 6548SOL    HW119933   5.235   1.082   1.179  1.1411  0.1216  0.3586
 6548SOL    HW219934   5.311   0.962   1.260 -0.0815 -0.9626 -0.0690
 6549SOL     OW19935   5.279   0.136   2.005 -0.5711 -1.0350 -0.0060
 6549SOL    HW119936   5.334   0.084   1.940  0.2365  0.3874 -0.5037
 6549SOL    HW219937   5.220   0.074   2.056  1.0218 -2.5469  0.0851
 6550SOL     OW19938   4.528   1.723   0.482  0.9258 -0.0328 -0.4783
 6550SOL    HW119939   4.613   1.701   0.529  1.2645  1.5755 -0.2554
 6550SOL    HW219940   4.533   1.817   0.446 -1.6156  1.0591  1.6282
 6551SOL     OW19941   3.761   1.027   5.947 -0.4874  0.7740 -0.1181
 6551SOL    HW119942   3.672   0.991   5.922 -0.7201  0.7415  0.7274
 6551SOL    HW219943   3.817   0.953   5.985 -0.6339  1.0869  0.7384
 6552SOL     OW19944   5.428   1.388   1.541 -0.2843 -0.3069  0.1540
 6552SOL    HW119945   5.524   1.400   1.568  0.2216 -1.6552 -0.9447
 6552SOL    HW219946   5.404   1.291   1.544 -0.9290 -0.2554 -1.7459
 6553SOL     OW19947   5.688   0.113   3.773  0.0644 -0.3112  0.1282
 6553SOL    HW119948   5.686   0.034   3.710 -0.4252 -0.4745  0.3458
 6553SOL    HW219949   5.764   0.102   3.837  1.0081  0.2026 -0.8777
 6554SOL     OW19950   5.299   5.344   2.383 -0.0480 -0.1212  0.8173
 6554SOL    HW119951   5.282   5.254   2.423 -0.9889 -0.9722 -1.3441
 6554SOL    HW219952   5.392   5.347   2.345  0.3712  0.2228  1.8470
 6555SOL     OW19953   0.758   0.786   2.341  0.2385 -0.1999 -0.2222
 6555SOL    HW119954   0.792   0.879   2.326  0.0012  0.0088  0.4885
 6555SOL    HW219955   0.788   0.727   2.266 -0.9612  0.8019 -1.5516
 6556SOL     OW19956   5.466   2.273   4.053 -0.1899  0.1236  0.2185
 6556SOL    HW119957   5.556   2.236   4.072  0.0838  1.0219  0.7645
 6556SOL    HW219958   5.415   2.211   3.993 -0.0924 -1.5527  1.7833
 6557SOL     OW19959   1.039   1.116   2.507  0.7495  0.0205  0.0839
 6557SOL    HW119960   1.057   1.044   2.573  0.1039 -0.2894 -0.0691
 6557SOL    HW219961   1.076   1.203   2.541  1.6951 -0.4126  0.1823
 6558SOL     OW19962   4.707   3.127   2.282 -0.1120  0.0583  0.3648
 6558SOL    HW119963   4.785   3.110   2.221  0.0375  0.7424  0.3521
 6558SOL    HW219964   4.622   3.126   2.229 -0.0523 -0.0948  0.2724
 6559SOL     OW19965   0.684   0.054   3.206 -0.8925  0.0360  0.2139
 6559SOL    HW119966   0.606   0.117   3.202 -1.1960 -0.3961 -0.9056
 6559SOL    HW219967   0.691   0.018   3.299  0.0056  2.5645  1.2035
 6560SOL     OW19968   5.153   1.931   2.718 -0.2234  0.2215  0.1621
 6560SOL    HW119969   5.188   1.847   2.759  0.1425  0.0857 -0.4151
 6560SOL    HW219970   5.114   1.989   2.789 -0.1694 -0.2829  0.6132
 6561SOL     OW19971   5.178   2.635   1.815 -0.2519  0.6699  0.2885
 6561SOL    HW119972   5.146   2.542   1.798  1.7017  0.3961 -2.5936
 6561SOL    HW219973   5.100   2.697   1.822 -1.5643 -1.0728  1.7624
 6562SOL     OW19974   5.990   1.680   2.894 -0.2407  0.1937  0.3123
 6562SOL    HW119975   5.906   1.698   2.946  0.0338  0.9759  0.5045
 6562SOL    HW219976   6.031   1.767   2.866  1.3471 -0.0862  1.5767
 6563SOL     OW19977   5.704   1.584   3.748 -0.1158  0.1408  0.3563
 6563SOL    HW119978   5.751   1.503   3.714  0.2932 -0.2221  1.7435
 6563SOL    HW219979   5.718   1.593   3.846 -0.5998  1.6071  0.3213
 6564SOL     OW19980   0.873   0.605   3.706  0.3912  0.0272 -0.4210
 6564SOL    HW119981   0.895   0.699   3.733 -0.0512  0.2218 -0.7198
 6564SOL    HW219982   0.866   0.600   3.606 -0.9998 -0.0020 -0.3395
 6565SOL     OW19983   5.658   1.305   3.391  0.2613 -0.0610 -0.0740
 6565SOL    HW119984   5.718   1.271   3.318  0.3024  0.6742 -0.4006
 6565SOL    HW219985   5.606   1.229   3.430 -0.8806 -0.2888 -1.9069
 6566SOL     OW19986   0.956   0.848   4.532 -0.1466  0.8547 -0.1552
 6566SOL    HW119987   0.857   0.839   4.524 -0.3183  2.0860  0.3857
 6566SOL    HW219988   0.981   0.944   4.527  1.0708  0.5285 -0.7016
 6567SOL     OW19989   5.667   2.082   2.443 -0.2468  0.2117  0.2308
 6567SOL    HW119990   5.745   2.019   2.436 -0.8366 -0.5980  0.7205
 6567SOL    HW219991   5.700   2.174   2.459  0.6969  0.2647 -1.7292
 6568SOL     OW19992   5.758   2.769   3.737 -0.1630 -0.7990 -0.0447
 6568SOL    HW119993   5.729   2.674   3.744 -0.5187 -0.5755  2.5816
 6568SOL    HW219994   5.678   2.829   3.740  0.1889 -0.3438  2.5252
 6569SOL     OW19995   5.264   4.897   1.176  0.4262 -0.7123  0.7264
 6569SOL    HW119996   5.277   4.922   1.080  0.6637 -1.3244  0.5907
 6569SOL    HW219997   5.314   4.962   1.234  1.0699 -0.8863  0.3843
 6570SOL     OW19998   0.320   1.134   3.005  0.2266  0.0720  0.1715
 6570SOL    HW119999   0.251   1.110   3.073  0.5827  0.9047  0.8538
 6570SOL    HW220000   0.375   1.053   2.983 -0.5182 -0.4333  0.1296
 6571SOL     OW20001   5.566   1.163   3.638 -0.6308 -0.4735 -0.2273
 6571SOL    HW120002   5.626   1.083   3.649  0.0661 -0.0425 -0.8174
 6571SOL    HW220003   5.479   1.133   3.596 -0.2296 -0.8733 -0.8026
 6572SOL     OW20004   0.708   0.095   4.373  0.5296  0.2565  0.2063
 6572SOL    HW120005   0.684  -0.001   4.363 -1.0907  0.6698 -0.1959
 6572SOL    HW220006   0.635   0.143   4.421  1.4814  1.2274  0.7301
 6573SOL     OW20007   5.919   0.554   3.826 -0.4528  0.2069  0.0723
 6573SOL    HW120008   5.900   0.601   3.740  1.5262 -0.9124 -1.0417
 6573SOL    HW220009   5.841   0.495   3.849 -1.0763  0.6358 -0.8448
 6574SOL     OW20010   0.683   1.024   3.004 -0.1456  0.2372  0.6779
 6574SOL    HW120011   0.629   0.997   2.924  0.1538  1.1138  0.1780
 6574SOL    HW220012   0.640   1.102   3.049  0.6839  0.9185  0.2981
 6575SOL     OW20013   1.188   0.034   3.153  0.0190  0.1808 -0.2971
 6575SOL    HW120014   1.232   0.080   3.076  0.0104  0.1447 -0.3234
 6575SOL    HW220015   1.091   0.058   3.156  0.1286  0.5878  0.0052
 6576SOL     OW20016   0.644   0.702   2.813 -0.5638  0.0873  0.5585
 6576SOL    HW120017   0.569   0.648   2.849 -2.2729  0.7773 -1.7280
 6576SOL    HW220018   0.612   0.795   2.793  1.2420  0.7834  0.6664
 6577SOL     OW20019   1.112   1.053   3.476 -0.2009  0.3021  0.2017
 6577SOL    HW120020   1.204   1.068   3.440  0.1309  0.5518  1.1406
 6577SOL    HW220021   1.045   1.069   3.403  0.5175 -0.5287 -0.6726
 6578SOL     OW20022   1.121   5.920   1.382 -0.7718  0.0178 -0.5366
 6578SOL    HW120023   1.159   5.903   1.291  1.3466 -0.2329  0.3268
 6578SOL    HW220024   1.161   5.855   1.447 -0.6576  1.4954  0.9418
 6579SOL     OW20025   5.868   0.678   3.202 -0.0359 -0.0115  0.6966
 6579SOL    HW120026   5.813   0.752   3.243 -0.5646 -0.4399  0.7749
 6579SOL    HW220027   5.964   0.705   3.203  0.1713 -0.4994  3.4409
 6580SOL     OW20028   5.743   0.507   2.506  0.2940 -0.4153  0.3171
 6580SOL    HW120029   5.651   0.491   2.469 -0.6861 -0.3796  2.5585
 6580SOL    HW220030   5.737   0.570   2.583  2.0330 -1.3180  1.2512
 6581SOL     OW20031   0.738   0.810   4.977 -0.4449 -0.0001  0.0461
 6581SOL    HW120032   0.828   0.766   4.972 -0.7017 -0.5576  0.2815
 6581SOL    HW220033   0.750   0.909   4.971  0.3700  0.0638  1.8464
 6582SOL     OW20034   0.088   1.256   3.497  0.4093 -0.4654  0.0708
 6582SOL    HW120035   0.171   1.242   3.442 -0.8577 -1.0062 -1.8171
 6582SOL    HW220036   0.025   1.180   3.483 -1.3464  0.9863 -0.3664
 6583SOL     OW20037   0.276   0.833   2.744 -0.3722  0.3249 -0.2433
 6583SOL    HW120038   0.256   0.811   2.648 -0.2394 -1.8545  0.1716
 6583SOL    HW220039   0.191   0.828   2.797  0.0316 -1.8392  0.2880
 6584SOL     OW20040   0.603   0.481   4.027  0.2289  0.1756 -0.6513
 6584SOL    HW120041   0.656   0.398   4.045  1.9137  1.5839  1.2619
 6584SOL    HW220042   0.584   0.488   3.929 -0.5357 -2.7458 -0.8062
 6585SOL     OW20043   0.408   1.719   4.471  0.3570 -1.0322  0.0313
 6585SOL    HW120044   0.503   1.743   4.452  0.6079 -0.6599  1.6119
 6585SOL    HW220045   0.403   1.623   4.498  0.2855 -1.0312  0.0219
 6586SOL     OW20046   5.521   5.894   4.151 -0.2371 -0.5698  0.3045
 6586SOL    HW120047   5.615   5.921   4.130 -0.8335  1.8557  0.5450
 6586SOL    HW220048   5.487   5.833   4.079  0.3071  1.4813 -1.7914
 6587SOL     OW20049   0.333   0.588   1.363  0.0469  0.1041 -0.0795
 6587SOL    HW120050   0.412   0.532   1.338  0.7406  0.9877  0.0665
 6587SOL    HW220051   0.250   0.550   1.323  0.7050 -0.2273 -1.1544
 6588SOL     OW20052   5.546   1.336   1.882 -0.0787 -0.5667  0.7454
 6588SOL    HW120053   5.446   1.336   1.891 -0.0006 -1.4373  1.7895
 6588SOL    HW220054   5.585   1.263   1.938  1.0888 -0.9679 -0.5419
 6589SOL     OW20055   1.423   0.354   3.844  0.5174 -0.5231 -1.1186
 6589SOL    HW120056   1.425   0.454   3.848 -2.3328 -0.2942 -3.1853
 6589SOL    HW220057   1.514   0.319   3.869  1.3483  2.4701  0.6120
 6590SOL     OW20058   1.670   5.595   2.659 -0.1074 -0.2217 -0.9226
 6590SOL    HW120059   1.770   5.597   2.669 -0.1568  0.9533 -0.4633
 6590SOL    HW220060   1.646   5.605   2.563  0.2235 -0.5591 -1.0408
 6591SOL     OW20061   0.247   0.768   1.573 -0.4079 -0.2514  0.0443
 6591SOL    HW120062   0.317   0.836   1.594  0.7246 -1.5401  0.6473
 6591SOL    HW220063   0.280   0.709   1.499 -1.8287  0.4785 -1.2318
 6592SOL     OW20064   1.379   5.934   3.699 -0.7913  0.0106 -0.2234
 6592SOL    HW120065   1.321   6.014   3.684  1.4195  1.4759 -1.5784
 6592SOL    HW220066   1.420   5.940   3.790 -0.3977  0.6137 -0.4334
 6593SOL     OW20067   5.008   0.193   0.380  0.0017  0.1147  0.1305
 6593SOL    HW120068   4.948   0.183   0.459  1.0566 -1.6741  0.7383
 6593SOL    HW220069   4.960   0.164   0.297 -1.0438  1.8288  0.0783
 6594SOL     OW20070   0.895   0.251   4.794  0.2628 -0.2115 -0.2291
 6594SOL    HW120071   0.985   0.283   4.825 -0.5585  1.3027  0.6887
 6594SOL    HW220072   0.901   0.225   4.697  1.8270 -0.7838 -0.0192
 6595SOL     OW20073   5.661   1.770   5.477  0.0662 -0.3131 -0.4991
 6595SOL    HW120074   5.705   1.791   5.565  0.6071 -0.4751 -0.7259
 6595SOL    HW220075   5.595   1.696   5.490  1.0180 -1.1791 -0.4498
 6596SOL     OW20076   5.517   1.112   5.147  0.3934  0.0741  0.4000
 6596SOL    HW120077   5.526   1.205   5.182 -1.9650  0.7943 -0.7053
 6596SOL    HW220078   5.497   1.050   5.223 -2.7757  1.2978  0.7209
 6597SOL     OW20079   0.300   1.553   3.918 -0.1855  0.6660 -0.1463
 6597SOL    HW120080   0.273   1.501   3.837  0.6627  0.8872 -0.5939
 6597SOL    HW220081   0.394   1.586   3.906 -0.2852  1.2773  0.6425
 6598SOL     OW20082   4.652   1.291   5.420  0.2238  0.3806 -0.0523
 6598SOL    HW120083   4.665   1.222   5.349  0.6380  0.2848  0.1139
 6598SOL    HW220084   4.638   1.380   5.378  0.7865  0.3789 -0.2581
 6599SOL     OW20085   0.778   0.881   5.594 -0.4628 -0.3253 -0.0645
 6599SOL    HW120086   0.735   0.968   5.569 -0.7168 -0.6147 -0.6509
 6599SOL    HW220087   0.841   0.896   5.670 -0.2700  0.4328 -0.3632
 6600SOL     OW20088   0.632   5.857   4.183  0.3948 -0.0084 -0.3341
 6600SOL    HW120089   0.540   5.866   4.221  1.3324  2.5745  1.6245
 6600SOL    HW220090   0.674   5.772   4.217 -0.3926  0.0176  0.7527
 6601SOL     OW20091   0.937   0.761   2.872 -0.2334 -0.4700  0.0245
 6601SOL    HW120092   0.948   0.672   2.916  1.0411 -0.8850 -1.0763
 6601SOL    HW220093   0.840   0.774   2.849 -0.2847 -2.1536 -0.9247
 6602SOL     OW20094   0.514   0.703   5.163 -0.1398  0.4271 -0.9720
 6602SOL    HW120095   0.552   0.674   5.251 -0.5844  2.1518 -0.1724
 6602SOL    HW220096   0.585   0.745   5.107  0.0730 -0.3911 -1.3393
 6603SOL     OW20097   4.787   1.646   4.476  0.5531  0.1211 -0.0372
 6603SOL    HW120098   4.814   1.732   4.520  0.6753 -0.7353  1.6357
 6603SOL    HW220099   4.833   1.569   4.520 -1.0161 -0.9816 -0.2112
 6604SOL     OW20100   0.548   0.723   4.802 -0.4603  0.4204  0.1030
 6604SOL    HW120101   0.592   0.666   4.732 -1.4633  0.1311 -0.3042
 6604SOL    HW220102   0.619   0.762   4.861  0.2381 -1.8473  0.8655
 6605SOL     OW20103   4.346   3.493   5.475  0.2555 -0.3193  0.3412
 6605SOL    HW120104   4.272   3.425   5.478  1.3108 -1.4870  2.4328
 6605SOL    HW220105   4.326   3.566   5.540 -0.8128  1.4172 -1.8130
 6606SOL     OW20106   4.971   0.505   5.264  0.1480 -0.5689 -0.1764
 6606SOL    HW120107   4.987   0.603   5.267  0.5186 -0.6087 -0.7644
 6606SOL    HW220108   5.005   0.468   5.177 -1.5624 -0.9306 -0.7374
 6607SOL     OW20109   0.625   1.964   4.390  0.6489 -0.0113 -0.4604
 6607SOL    HW120110   0.663   1.877   4.357 -0.8207 -0.9640  0.2639
 6607SOL    HW220111   0.550   1.992   4.330  0.5605  0.3128 -0.1987
 6608SOL     OW20112   5.869   1.580   4.194  0.0360 -0.1857 -0.0620
 6608SOL    HW120113   5.789   1.554   4.139  0.8859 -2.4141 -0.3478
 6608SOL    HW220114   5.940   1.617   4.134  0.4914 -1.4366 -0.3091
 6609SOL     OW20115   4.704   0.863   3.224  0.0687 -0.1368  0.0642
 6609SOL    HW120116   4.784   0.809   3.249  0.7347  0.7969  0.0124
 6609SOL    HW220117   4.732   0.957   3.204 -0.6883 -0.3345 -2.2883
 6610SOL     OW20118   0.823   1.051   4.858  0.5258 -0.0057 -0.0055
 6610SOL    HW120119   0.763   1.013   4.787  1.1137 -0.0125 -0.5085
 6610SOL    HW220120   0.915   1.061   4.821  0.9509 -0.4537  0.9108
 6611SOL     OW20121   5.733   1.969   4.986  0.0656  0.3404  0.6062
 6611SOL    HW120122   5.773   2.053   5.024  1.8467 -0.4126  0.4793
 6611SOL    HW220123   5.646   1.950   5.031 -0.1477  2.0046  0.9576
 6612SOL     OW20124   5.747   0.179   5.553 -0.4868 -0.0427 -0.0629
 6612SOL    HW120125   5.780   0.203   5.461  2.0177  1.9384  1.2234
 6612SOL    HW220126   5.807   0.110   5.593 -1.9668 -1.4097 -0.0929
 6613SOL     OW20127   0.374   5.956   5.260  0.1537  0.3323  0.2130
 6613SOL    HW120128   0.426   5.934   5.342  0.5759  1.3858  0.2441
 6613SOL    HW220129   0.373   6.055   5.247  0.9707  0.1398 -1.6142
 6614SOL     OW20130   0.867   0.314   5.495  0.3776 -0.1851  0.5806
 6614SOL    HW120131   0.881   0.223   5.458  0.4803 -0.8209  2.0993
 6614SOL    HW220132   0.850   0.379   5.421 -1.1753 -1.6875 -0.4512
 6615SOL     OW20133   5.637   2.241   4.379 -0.3467 -0.3352 -0.2012
 6615SOL    HW120134   5.567   2.219   4.311  0.5466  0.5557 -1.4549
 6615SOL    HW220135   5.672   2.334   4.362 -0.7532  0.2842  2.0665
 6616SOL     OW20136   5.898   1.923   3.481 -0.3286 -0.1690 -0.3350
 6616SOL    HW120137   5.942   1.852   3.536  0.8348 -0.4706 -1.6201
 6616SOL    HW220138   5.823   1.964   3.534  1.1891  0.0645  1.7777
 6617SOL     OW20139   5.616   4.056   2.806  0.4565 -0.1928  0.0823
 6617SOL    HW120140   5.575   4.031   2.894 -1.0802 -0.8222 -0.7617
 6617SOL    HW220141   5.563   4.014   2.732  2.0247 -0.1207 -1.1370
 6618SOL     OW20142   0.295   0.986   4.360  0.3540 -0.7228  0.9626
 6618SOL    HW120143   0.242   1.068   4.339  1.2593  0.0689  1.6536
 6618SOL    HW220144   0.254   0.939   4.438  0.3809 -0.3986  1.1726
 6619SOL     OW20145   0.129   5.935   4.670 -0.4837  0.7034  0.4858
 6619SOL    HW120146   0.050   5.966   4.617 -0.2567  0.4494 -0.0100
 6619SOL    HW220147   0.201   5.906   4.607  0.0771  1.1143  0.9328
 6620SOL     OW20148   5.682   0.459   0.411 -0.5452 -0.1660 -0.2792
 6620SOL    HW120149   5.631   0.481   0.494 -1.3277  0.6640 -0.9475
 6620SOL    HW220150   5.641   0.378   0.367  1.2620 -2.0215  1.2759
 6621SOL     OW20151   4.590   1.546   5.816  0.0562 -0.3009 -0.1774
 6621SOL    HW120152   4.555   1.497   5.736 -2.4862 -1.9372  1.7774
 6621SOL    HW220153   4.648   1.485   5.870 -0.7166 -0.2486  0.7452
 6622SOL     OW20154   5.000   1.044   5.271  0.2504 -0.5686  0.0749
 6622SOL    HW120155   5.084   1.097   5.268  0.5066 -0.9861 -0.3151
 6622SOL    HW220156   4.951   1.063   5.356  0.0920  0.6649 -0.2694
 6623SOL     OW20157   0.063   0.351   5.333  0.0518 -0.3896 -0.1893
 6623SOL    HW120158  -0.036   0.336   5.326  0.2355 -0.8455 -2.8032
 6623SOL    HW220159   0.103   0.351   5.242  2.1281  2.3961  0.5726
 6624SOL     OW20160   0.309   1.603   4.829 -0.4008 -0.3200  0.4155
 6624SOL    HW120161   0.371   1.529   4.803  0.0768  0.2313 -0.0542
 6624SOL    HW220162   0.242   1.569   4.895  1.9724 -0.3474  2.9976
 6625SOL     OW20163   5.986   0.829   0.375  0.1631  0.7629  0.0358
 6625SOL    HW120164   5.937   0.747   0.348  1.7015 -0.0940 -0.2950
 6625SOL    HW220165   5.981   0.841   0.474 -0.6500  0.6689  0.0073
 6626SOL     OW20166   4.410   1.093   0.011  0.4887 -0.4121 -1.1546
 6626SOL    HW120167   4.370   1.166   0.067 -0.2042 -0.7908 -1.1502
 6626SOL    HW220168   4.474   1.133  -0.054 -0.6739  0.3385 -1.8809
 6627SOL     OW20169   0.463   0.336   2.760 -0.0078 -0.2891  0.7677
 6627SOL    HW120170   0.459   0.402   2.685  1.2609  1.7610  2.3949
 6627SOL    HW220171   0.477   0.244   2.723  0.7599  0.6702 -1.4800
 6628SOL     OW20172   0.622   0.095   3.706  0.2066 -0.0494  0.2854
 6628SOL    HW120173   0.627   0.194   3.723  1.0694 -0.3676  2.1589
 6628SOL    HW220174   0.670   0.047   3.779  1.9682 -1.7794 -1.8757
 6629SOL     OW20175   0.028   5.625   5.414 -0.0612 -0.2035 -0.4178
 6629SOL    HW120176  -0.047   5.664   5.468  2.1940  0.8499  2.1598
 6629SOL    HW220177   0.060   5.692   5.348  1.0804  0.8867  1.1674
 6630SOL     OW20178   5.422   0.710   5.241 -0.5788  0.1918  0.2711
 6630SOL    HW120179   5.431   0.805   5.273 -1.1616  0.4578 -0.3415
 6630SOL    HW220180   5.341   0.702   5.184 -0.6710 -0.7427  0.5267
 6631SOL     OW20181   0.313   1.846   4.696 -0.1802  0.1289 -0.2222
 6631SOL    HW120182   0.330   1.764   4.751  1.2667  0.7277  0.2894
 6631SOL    HW220183   0.339   1.828   4.601  0.9765  0.2365  0.0581
 6632SOL     OW20184   5.729   1.030   0.115 -0.0076 -0.2786 -0.0961
 6632SOL    HW120185   5.747   1.128   0.119  1.8288 -0.5614 -0.4528
 6632SOL    HW220186   5.709   0.996   0.207 -0.6615  0.4252  0.0272
 6633SOL     OW20187   5.682   3.027   0.506  0.2221 -0.5525  0.1778
 6633SOL    HW120188   5.781   3.013   0.517  0.1756 -1.1640 -0.1059
 6633SOL    HW220189   5.640   2.941   0.476  0.0757  0.4417 -2.8366
 6634SOL     OW20190   5.252   2.265   5.608  0.5798  0.4358  0.0982
 6634SOL    HW120191   5.271   2.201   5.533  0.5135  0.1131  0.3564
 6634SOL    HW220192   5.238   2.356   5.570 -0.4027  0.0978 -0.3909
 6635SOL     OW20193   5.591   2.706   4.974  0.8098 -0.2165  0.0865
 6635SOL    HW120194   5.665   2.743   5.031  0.9550 -1.1664  0.5370
 6635SOL    HW220195   5.519   2.774   4.963  2.2441  1.1742 -1.3092
 6636SOL     OW20196   5.982   1.513   4.827  0.3683 -0.5326  0.4671
 6636SOL    HW120197   5.951   1.579   4.894  1.6314 -0.7252  1.2878
 6636SOL    HW220198   5.931   1.428   4.837 -1.1224  0.2151 -0.4586
 6637SOL     OW20199   4.534   0.344   5.042  0.4609  0.1864  0.0960
 6637SOL    HW120200   4.492   0.285   5.111  1.6412  0.8352  1.4056
 6637SOL    HW220201   4.603   0.402   5.085  2.1014 -0.2470 -1.8456
 6638SOL     OW20202   4.681   1.038   0.292 -0.1789  0.2549 -0.0354
 6638SOL    HW120203   4.662   0.950   0.250  0.3596  0.4085 -0.6240
 6638SOL    HW220204   4.596   1.080   0.323 -0.5184 -0.1393 -0.4345
 6639SOL     OW20205   4.867   0.214   5.076 -0.1477 -0.5183  0.2243
 6639SOL    HW120206   4.800   0.242   5.144 -0.2428  0.6538 -0.3361
 6639SOL    HW220207   4.954   0.260   5.094  0.3693 -1.6059  0.6184
 6640SOL     OW20208   5.753   1.819   0.639 -0.1449 -0.0444  0.0671
 6640SOL    HW120209   5.692   1.864   0.573 -1.3930 -1.6991  0.0158
 6640SOL    HW220210   5.742   1.863   0.729 -0.6740  0.3224 -0.1670
 6641SOL     OW20211   5.616   1.374   0.513  0.0601 -0.1954 -0.1736
 6641SOL    HW120212   5.672   1.306   0.465 -0.0442 -1.9198  1.9819
 6641SOL    HW220213   5.520   1.349   0.505 -0.0493  0.2160 -0.1447
 6642SOL     OW20214   0.081   2.859   0.742  0.7054  0.2120  0.3087
 6642SOL    HW120215   0.020   2.891   0.669 -1.8589 -4.0135  0.2836
 6642SOL    HW220216   0.169   2.832   0.703  1.4644  3.0609 -0.2020
 6643SOL     OW20217   5.046   1.261   0.459 -0.0016 -0.1630 -0.7747
 6643SOL    HW120218   4.983   1.332   0.492  0.1935  0.0867 -0.9318
 6643SOL    HW220219   5.137   1.277   0.498 -0.2330 -1.0295  0.1431
 6644SOL     OW20220   1.748   3.998   0.579  0.4382 -0.0783 -0.2253
 6644SOL    HW120221   1.682   3.981   0.651  0.7670  1.0982  0.3832
 6644SOL    HW220222   1.725   3.943   0.498  0.0277 -1.3500  0.7300
 6645SOL     OW20223   1.349   4.132   1.640 -0.2640 -0.1155  0.2821
 6645SOL    HW120224   1.371   4.226   1.613 -1.3086 -0.0147 -0.2902
 6645SOL    HW220225   1.433   4.083   1.664  0.3543  0.7693 -0.0322
 6646SOL     OW20226   5.676   3.868   0.152  0.5183 -0.4065  0.4537
 6646SOL    HW120227   5.588   3.880   0.199  0.6070 -0.4404  0.6279
 6646SOL    HW220228   5.714   3.779   0.175  0.6074 -0.3838  0.3911
 6647SOL     OW20229   5.272   2.899   5.594  0.6627  0.2713 -0.2104
 6647SOL    HW120230   5.293   2.945   5.680 -1.4941  2.7143 -0.8941
 6647SOL    HW220231   5.266   2.965   5.520 -0.6888 -1.3295 -1.6402
 6648SOL     OW20232   5.617   3.297   0.226  0.2332 -0.0688 -0.3035
 6648SOL    HW120233   5.696   3.269   0.281 -0.2723 -0.0770  0.4369
 6648SOL    HW220234   5.615   3.244   0.141 -1.4063 -3.3919  1.5925
 6649SOL     OW20235   5.474   2.577   1.091  0.5645 -0.0424  0.2989
 6649SOL    HW120236   5.437   2.606   1.003  0.2340  0.0309  0.4600
 6649SOL    HW220237   5.502   2.482   1.086 -2.0628 -0.9269  0.8953
 6650SOL     OW20238   4.790   2.747   0.561 -0.1977  0.2572  0.2381
 6650SOL    HW120239   4.718   2.704   0.615  0.6754 -0.3537  0.9622
 6650SOL    HW220240   4.808   2.693   0.479 -1.7253  1.3402 -0.8727
 6651SOL     OW20241   0.795   3.576   0.168  0.4371 -0.0832  0.4614
 6651SOL    HW120242   0.711   3.594   0.220 -0.0076  0.3212 -0.3857
 6651SOL    HW220243   0.788   3.486   0.125  0.4710 -0.0852  0.4605
 6652SOL     OW20244   4.358   4.051   1.360  0.3176 -0.1114 -0.3814
 6652SOL    HW120245   4.401   4.140   1.375 -0.2846 -0.0903  1.6446
 6652SOL    HW220246   4.286   4.038   1.428 -1.6520 -0.9266 -2.4997
 6653SOL     OW20247   0.287   2.938   5.665 -0.7137  0.1531  0.2015
 6653SOL    HW120248   0.330   3.009   5.720 -0.4747  0.0389  0.1611
 6653SOL    HW220249   0.344   2.918   5.585 -0.8099 -0.0425  0.1801
 6654SOL     OW20250   5.283   5.251   2.033 -0.0165  0.8980  0.2383
 6654SOL    HW120251   5.330   5.181   1.980 -1.6420 -0.4294  0.4736
 6654SOL    HW220252   5.207   5.210   2.084 -1.8065  2.9836 -0.5614
 6655SOL     OW20253   5.407   2.778   1.731  0.2065  0.0437  0.7822
 6655SOL    HW120254   5.331   2.766   1.795  0.8285  1.3968  1.8229
 6655SOL    HW220255   5.433   2.689   1.693 -1.8513 -0.4463  0.4335
 6656SOL     OW20256   5.996   4.233   5.926 -0.1338 -0.2922  0.4937
 6656SOL    HW120257   5.981   4.182   6.010 -0.6060  0.5136  0.9093
 6656SOL    HW220258   5.977   4.174   5.847 -0.5719 -0.7803  0.9558
 6657SOL     OW20259   0.235   2.526   0.182  0.4131 -0.4314 -0.1404
 6657SOL    HW120260   0.174   2.467   0.130 -0.8679  0.3789  0.4120
 6657SOL    HW220261   0.329   2.514   0.149 -0.1450 -1.1014 -1.5550
 6658SOL     OW20262   1.017   2.125   0.595  0.5856 -0.0284  0.4741
 6658SOL    HW120263   0.918   2.112   0.601  0.2256  2.5670  1.2698
 6658SOL    HW220264   1.055   2.060   0.529 -2.1000  1.0589 -2.3818
 6659SOL     OW20265   0.412   4.063   2.244 -0.4278  0.3472 -1.0359
 6659SOL    HW120266   0.468   3.981   2.245 -5.6592 -3.7993  0.5271
 6659SOL    HW220267   0.453   4.133   2.302  2.2629 -2.8234  1.2308
 6660SOL     OW20268   0.259   3.333   0.287 -0.2888  0.4094  0.2713
 6660SOL    HW120269   0.218   3.246   0.261  1.1944 -0.2965  0.1674
 6660SOL    HW220270   0.312   3.368   0.209 -1.7306  1.9712 -0.0647
 6661SOL     OW20271   5.812   2.637   2.153  0.0505  0.0364 -0.0716
 6661SOL    HW120272   5.813   2.733   2.125  0.8694  0.3305  0.8987
 6661SOL    HW220273   5.721   2.612   2.186  0.0111  0.6705  0.3015
 6662SOL     OW20274   0.260   3.389   1.639 -0.1874 -0.7680  0.2167
 6662SOL    HW120275   0.284   3.457   1.571  0.3453 -1.2956 -0.1398
 6662SOL    HW220276   0.340   3.370   1.697  0.1927 -2.2784 -0.7439
 6663SOL     OW20277   4.768   2.795   0.037 -0.2292  0.1794 -0.3789
 6663SOL    HW120278   4.781   2.885   0.079 -0.8990  0.3199 -0.4684
 6663SOL    HW220279   4.842   2.734   0.066  0.7226  0.9980 -1.0020
 6664SOL     OW20280   5.224   0.862   0.671  0.3255 -0.7501  0.4020
 6664SOL    HW120281   5.157   0.848   0.598  0.9540 -0.4934 -0.2284
 6664SOL    HW220282   5.202   0.945   0.721  0.7040 -0.1548 -0.4014
 6665SOL     OW20283   5.844   4.822   0.433  0.1484  0.4169 -0.1231
 6665SOL    HW120284   5.787   4.888   0.384 -1.6006 -2.1452 -1.7579
 6665SOL    HW220285   5.805   4.804   0.523 -2.0532 -1.6157 -1.3745
 6666SOL     OW20286   0.121   3.098   5.891  0.0587 -0.1446  0.5284
 6666SOL    HW120287   0.044   3.035   5.888 -0.0500  0.0196 -0.8076
 6666SOL    HW220288   0.205   3.050   5.866  0.1919 -0.0421  0.7721
 6667SOL     OW20289   0.339   3.239   0.853  0.0088 -0.0657  1.2375
 6667SOL    HW120290   0.318   3.268   0.946  1.4410 -1.8502  2.1845
 6667SOL    HW220291   0.347   3.320   0.794  0.6548  1.2250  3.0112
 6668SOL     OW20292   0.070   2.045   2.103  0.0859 -0.2491  0.6759
 6668SOL    HW120293   0.127   2.001   2.035 -0.9922 -1.4779  0.5249
 6668SOL    HW220294  -0.023   2.055   2.068  0.2188  1.9758  0.7999
 6669SOL     OW20295   5.711   3.049   2.152 -0.4590  0.0635 -1.0869
 6669SOL    HW120296   5.621   3.009   2.139 -0.6470  0.7097 -1.8400
 6669SOL    HW220297   5.759   3.052   2.065  0.6363 -1.0539 -0.5538
 6670SOL     OW20298   5.199   2.614   0.255  0.6271 -0.2314 -0.5819
 6670SOL    HW120299   5.287   2.570   0.232  2.0578  2.0925  0.1315
 6670SOL    HW220300   5.174   2.591   0.349  0.7052 -0.5288 -0.6324
 6671SOL     OW20301   5.658   2.898   1.472 -0.0423 -0.7462 -0.1605
 6671SOL    HW120302   5.596   2.866   1.401 -1.1156 -0.6765  0.7223
 6671SOL    HW220303   5.611   2.967   1.528  1.0085 -0.3143  0.2100
 6672SOL     OW20304   0.059   3.775   2.130  0.3270  0.3058 -0.3148
 6672SOL    HW120305   0.113   3.777   2.046  0.1660 -1.6720 -0.5156
 6672SOL    HW220306   0.029   3.682   2.148 -0.9265  0.9418  1.1445
 6673SOL     OW20307   5.718   4.636   2.630  0.3849  0.0348  0.8324
 6673SOL    HW120308   5.720   4.666   2.535 -1.5066 -0.6057  0.5520
 6673SOL    HW220309   5.724   4.537   2.634  1.7621  0.1186  1.4860
 6674SOL     OW20310   0.482   2.550   0.949  0.5335  0.6492  0.3768
 6674SOL    HW120311   0.456   2.509   1.036  0.3962  1.3256  0.6650
 6674SOL    HW220312   0.467   2.485   0.875 -1.3646  0.7712  0.5948
 6675SOL     OW20313   5.486   0.838   0.544  0.3639  0.4091 -0.1687
 6675SOL    HW120314   5.492   0.738   0.533  1.6104  0.3103  1.1085
 6675SOL    HW220315   5.403   0.860   0.595  0.4968 -0.0375  0.2485
 6676SOL     OW20316   5.869   3.003   1.106 -0.3960  0.2029 -0.5494
 6676SOL    HW120317   5.905   2.910   1.116 -1.3332  0.0127  1.4329
 6676SOL    HW220318   5.913   3.047   1.027  1.4899 -1.2350 -0.3809
 6677SOL     OW20319   0.429   2.146   1.042 -0.0208  0.1645  0.3367
 6677SOL    HW120320   0.506   2.190   1.089  0.3189  0.0949 -0.1470
 6677SOL    HW220321   0.348   2.149   1.101  0.4982 -0.2758  1.0998
 6678SOL     OW20322   5.737   3.859   1.099  0.3000  0.2887 -0.0445
 6678SOL    HW120323   5.651   3.810   1.115  0.6473 -0.1401  0.5563
 6678SOL    HW220324   5.814   3.797   1.115  0.7939  1.3706  2.0946
 6679SOL     OW20325   5.523   4.247   0.751  0.7138  0.1033  0.0345
 6679SOL    HW120326   5.443   4.280   0.701  1.3659  0.1338 -1.0101
 6679SOL    HW220327   5.510   4.151   0.777  0.6771 -0.1319 -0.8476
 6680SOL     OW20328   5.442   2.897   2.378  0.0566  0.6863 -0.1125
 6680SOL    HW120329   5.455   2.987   2.419  2.0184  1.2250 -1.7376
 6680SOL    HW220330   5.459   2.903   2.279 -0.5738 -1.3237 -0.3883
 6681SOL     OW20331   5.799   3.895   2.912  0.0573  0.3555 -0.0896
 6681SOL    HW120332   5.801   3.813   2.855 -1.6334  0.6390 -0.6092
 6681SOL    HW220333   5.736   3.961   2.873 -2.2039  0.0773  2.7442
 6682SOL     OW20334   5.717   2.105   1.565  0.3758 -0.1390  0.3747
 6682SOL    HW120335   5.664   2.106   1.480  0.1070 -2.3250  0.4550
 6682SOL    HW220336   5.664   2.149   1.637 -0.6956 -0.8616  0.0687
 6683SOL     OW20337   0.612   3.817   1.878  0.2953 -0.0958  0.1108
 6683SOL    HW120338   0.573   3.792   1.967  1.0444  3.2406  1.5229
 6683SOL    HW220339   0.710   3.797   1.878  0.7315  1.7981  0.9381
 6684SOL     OW20340   5.845   3.216   3.935 -0.3627  0.3282  0.1720
 6684SOL    HW120341   5.905   3.286   3.896 -1.0650  0.5764 -0.4899
 6684SOL    HW220342   5.871   3.199   4.030  0.7572  0.4171 -0.1081
 6685SOL     OW20343   0.469   3.730   2.092  0.2471 -0.1332 -0.2324
 6685SOL    HW120344   0.484   3.720   2.190 -0.4145 -0.5836 -0.1687
 6685SOL    HW220345   0.408   3.658   2.060  0.9141 -0.3466 -1.0885
 6686SOL     OW20346   5.118   4.052   2.136 -0.2932  0.8599 -0.0267
 6686SOL    HW120347   5.191   3.990   2.164 -0.4895  0.6202 -0.0454
 6686SOL    HW220348   5.148   4.147   2.148  0.0606  0.7632 -0.1389
 6687SOL     OW20349   1.381   3.996   2.499 -0.4921  0.0923 -0.2586
 6687SOL    HW120350   1.356   3.928   2.430  0.0492  0.9910 -1.3561
 6687SOL    HW220351   1.472   3.976   2.535 -0.4759  0.0484 -0.3253
 6688SOL     OW20352   5.428   2.613   2.014  0.0615  0.0024  0.1307
 6688SOL    HW120353   5.501   2.545   2.006 -0.0904 -0.1583  0.0916
 6688SOL    HW220354   5.400   2.643   1.923 -0.0697 -0.1000  0.1355
 6689SOL     OW20355   0.557   3.774   2.374  0.2534  0.5304  0.6218
 6689SOL    HW120356   0.602   3.847   2.426 -0.9807  1.4860  0.3763
 6689SOL    HW220357   0.487   3.731   2.431  2.8074 -2.4785  1.8247
 6690SOL     OW20358   0.594   3.040   5.203  0.6682  0.0239  0.0188
 6690SOL    HW120359   0.604   3.139   5.216 -0.3753  0.1380  0.0540
 6690SOL    HW220360   0.548   3.001   5.282  0.1707 -0.3262 -0.4394
 6691SOL     OW20361   5.471   2.197   3.441 -0.1011  0.0045 -0.4462
 6691SOL    HW120362   5.395   2.256   3.469  0.6909  0.5601  0.6307
 6691SOL    HW220363   5.457   2.105   3.477 -0.1304  0.1865  0.0241
 6692SOL     OW20364   5.918   3.435   3.795 -0.4157 -0.6965 -0.2439
 6692SOL    HW120365   5.983   3.491   3.846  1.0063 -1.2885 -1.3417
 6692SOL    HW220366   5.825   3.470   3.809  0.2803  1.0987  0.1657
 6693SOL     OW20367   5.686   4.212   3.117 -0.0991 -0.2286  0.0664
 6693SOL    HW120368   5.775   4.168   3.108  0.3512  0.1948  2.0525
 6693SOL    HW220369   5.640   4.176   3.199  0.4384  3.1614  2.0271
 6694SOL     OW20370   0.561   2.458   3.660 -0.2738 -0.4193 -0.1444
 6694SOL    HW120371   0.510   2.544   3.665 -0.1209 -0.2961 -0.7092
 6694SOL    HW220372   0.588   2.440   3.566  3.3379  1.0186  0.4567
 6695SOL     OW20373   1.183   3.824   2.212 -0.5385 -0.5942  0.7611
 6695SOL    HW120374   1.138   3.816   2.301  0.2086 -0.2065  1.1851
 6695SOL    HW220375   1.128   3.882   2.152 -1.8190 -2.0867  0.4356
 6696SOL     OW20376   0.065   3.692   3.037  0.5720 -0.1877 -0.2677
 6696SOL    HW120377   0.045   3.604   2.994  1.6862  0.7080 -2.7832
 6696SOL    HW220378   0.161   3.695   3.063  0.6496  0.4403 -0.6115
 6697SOL     OW20379   5.224   2.516   3.056  0.2980 -0.3755 -0.2668
 6697SOL    HW120380   5.198   2.594   3.114 -0.8890 -0.0028 -1.2733
 6697SOL    HW220381   5.324   2.509   3.053  0.4391  1.2760 -0.3738
 6698SOL     OW20382   5.027   2.581   3.334  0.1184  0.3038  0.6076
 6698SOL    HW120383   4.974   2.501   3.363 -0.9899  0.9294  0.3617
 6698SOL    HW220384   5.093   2.604   3.405  2.3985 -2.4566 -0.4358
 6699SOL     OW20385   0.446   3.359   3.106  0.4470 -0.4106  0.0884
 6699SOL    HW120386   0.477   3.265   3.114 -0.9336 -0.8169  1.0892
 6699SOL    HW220387   0.410   3.390   3.194 -2.7197 -0.3106 -1.0995
 6700SOL     OW20388   5.052   1.314   3.401  0.4707 -0.6172 -0.6843
 6700SOL    HW120389   5.065   1.377   3.478  2.3751 -3.5852  1.6262
 6700SOL    HW220390   4.992   1.239   3.429  1.6103 -2.0519 -1.9133
 6701SOL     OW20391   0.994   1.592   4.922  0.0235  0.5586 -0.3706
 6701SOL    HW120392   1.023   1.518   4.861 -0.3115  0.7473 -0.7619
 6701SOL    HW220393   0.896   1.583   4.941 -0.1294  1.1830 -0.8223
 6702SOL     OW20394   4.552   2.960   2.987 -0.5447  0.3672 -0.0817
 6702SOL    HW120395   4.525   2.864   2.980 -2.9161  0.8341  1.3891
 6702SOL    HW220396   4.548   2.989   3.083 -1.0169  2.2276 -0.6247
 6703SOL     OW20397   5.712   2.328   2.620 -0.4000 -0.0809  0.0845
 6703SOL    HW120398   5.786   2.353   2.682 -0.1051 -1.9692  0.5711
 6703SOL    HW220399   5.625   2.332   2.669 -0.3334 -0.2179  0.2144
 6704SOL     OW20400   0.409   5.559   2.749 -0.5673 -0.1370 -0.1292
 6704SOL    HW120401   0.437   5.637   2.805 -1.1005 -0.3968  0.5012
 6704SOL    HW220402   0.358   5.592   2.669 -1.7796  0.1051  0.7255
 6705SOL     OW20403   5.854   2.738   1.394 -0.0599  0.5604 -0.0722
 6705SOL    HW120404   5.857   2.732   1.294  0.3461 -1.4509  0.0133
 6705SOL    HW220405   5.797   2.815   1.421 -2.4811 -0.4819 -1.8724
 6706SOL     OW20406   0.173   3.579   0.765  0.2324 -0.3858  1.0985
 6706SOL    HW120407   0.120   3.552   0.684  0.7238  2.0599 -0.1408
 6706SOL    HW220408   0.265   3.541   0.758  1.3276  2.3398 -1.2704
 6707SOL     OW20409   0.657   4.711   2.352  0.8299 -0.2736  0.1186
 6707SOL    HW120410   0.696   4.678   2.438  0.7339  2.6424  1.3971
 6707SOL    HW220411   0.730   4.741   2.291  0.8227  1.1687  0.7721
 6708SOL     OW20412   5.614   3.353   3.875  0.5398  0.0198  0.1912
 6708SOL    HW120413   5.698   3.301   3.887  0.0413 -0.4198  1.9244
 6708SOL    HW220414   5.587   3.395   3.961 -0.4342  1.0801 -0.5927
 6709SOL     OW20415   5.772   3.033   2.973  0.0545 -0.2450 -0.1344
 6709SOL    HW120416   5.688   3.073   3.008 -0.6659 -1.9974  0.2399
 6709SOL    HW220417   5.820   3.100   2.917 -1.1384  1.0711  0.3619
 6710SOL     OW20418  -0.001   3.798   4.061 -0.9336 -0.4851  0.3024
 6710SOL    HW120419   0.032   3.737   3.989 -0.7961 -0.9011  0.7129
 6710SOL    HW220420   0.028   3.892   4.041  0.7042 -0.8657  0.7555
 6711SOL     OW20421   1.364   3.114   2.277  0.2464 -0.2186  0.1922
 6711SOL    HW120422   1.304   3.134   2.354 -0.2889  3.4547 -0.9536
 6711SOL    HW220423   1.316   3.057   2.211 -2.6283  3.2604 -1.0839
 6712SOL     OW20424   0.256   3.019   2.827  0.1699  0.4618  0.1492
 6712SOL    HW120425   0.347   3.059   2.839 -0.1728  1.2157  0.2805
 6712SOL    HW220426   0.246   2.987   2.733  0.6311  0.2164  0.1811
 6713SOL     OW20427   5.729   2.577   4.062 -0.1046  0.0330 -0.4082
 6713SOL    HW120428   5.781   2.494   4.084  0.0819  1.0526  3.7348
 6713SOL    HW220429   5.643   2.551   4.018  0.1789 -2.3358  0.2575
 6714SOL     OW20430   1.007   3.391   3.983 -0.1185  0.0323  0.2298
 6714SOL    HW120431   0.940   3.360   4.051 -0.5891  0.8844  0.1755
 6714SOL    HW220432   1.024   3.489   3.996  3.6250 -0.7230  2.3767
 6715SOL     OW20433   5.707   2.043   3.628 -0.1269 -0.0578 -0.2297
 6715SOL    HW120434   5.625   2.015   3.577 -0.9328  0.0942  0.9467
 6715SOL    HW220435   5.729   2.138   3.608  0.8698 -0.5977 -1.9503
 6716SOL     OW20436   5.013   1.892   1.666  0.3520 -0.2522 -0.0431
 6716SOL    HW120437   5.025   1.800   1.704 -1.8059 -0.6658 -0.2340
 6716SOL    HW220438   5.090   1.915   1.607  1.3586 -1.5685  0.7246
 6717SOL     OW20439   0.127   2.706   0.958 -0.0512  0.2963 -0.1707
 6717SOL    HW120440   0.198   2.744   1.018  2.6918 -2.3224 -1.4686
 6717SOL    HW220441   0.109   2.769   0.883 -0.9693  2.0701  1.4626
 6718SOL     OW20442   0.293   4.365   2.873  0.9662 -0.4337 -0.6304
 6718SOL    HW120443   0.207   4.364   2.822  1.3368 -0.5411 -1.2544
 6718SOL    HW220444   0.341   4.451   2.855 -0.5463  1.2028  2.3283
 6719SOL     OW20445   0.470   2.900   2.971 -0.2211 -0.0916 -0.5960
 6719SOL    HW120446   0.379   2.943   2.973  0.3786  1.2308  1.5882
 6719SOL    HW220447   0.460   2.804   2.944 -2.2762  0.0126 -0.4137
 6720SOL     OW20448   5.719   3.269   2.601 -0.3983  0.0294 -0.5851
 6720SOL    HW120449   5.746   3.271   2.505 -1.2484 -1.1829 -0.8672
 6720SOL    HW220450   5.633   3.319   2.612 -0.0116  0.6589 -0.3366
 6721SOL     OW20451   0.722   2.786   3.678  0.0040  0.2060  0.4639
 6721SOL    HW120452   0.760   2.701   3.714 -2.5020 -1.0862  0.2571
 6721SOL    HW220453   0.623   2.787   3.691 -0.2797  2.2554 -1.2537
 6722SOL     OW20454   5.651   1.127   4.436  0.1466 -0.3231 -0.2335
 6722SOL    HW120455   5.640   1.227   4.435 -0.8242 -0.4146 -0.2455
 6722SOL    HW220456   5.745   1.103   4.410 -0.0407  0.5368 -1.8934
 6723SOL     OW20457   5.766   1.789   3.032  0.4220 -0.6546  0.5215
 6723SOL    HW120458   5.770   1.859   3.103  0.2854  0.5472 -0.6277
 6723SOL    HW220459   5.694   1.812   2.966  1.2048 -1.2130 -0.5562
 6724SOL     OW20460   5.678   2.966   3.262 -0.4172 -0.1499 -0.4966
 6724SOL    HW120461   5.707   2.883   3.309  2.4106  1.2678  0.5023
 6724SOL    HW220462   5.715   3.046   3.310  0.4916  1.4914 -3.6639
 6725SOL     OW20463   5.262   2.805   0.049  0.2158  0.1079  0.0461
 6725SOL    HW120464   5.201   2.882   0.032 -0.3506 -0.3692 -0.1132
 6725SOL    HW220465   5.239   2.763   0.137  0.0763 -0.2845 -0.1723
 6726SOL     OW20466   5.091   3.760   3.947  0.4307 -0.1800  0.1156
 6726SOL    HW120467   5.020   3.829   3.932 -0.5656 -0.8515  1.5107
 6726SOL    HW220468   5.164   3.799   4.003 -1.6970 -1.0303  3.8100
 6727SOL     OW20469   4.931   3.198   4.709  0.0100 -0.2777  0.1070
 6727SOL    HW120470   5.022   3.231   4.685  0.1902 -0.8343 -0.0057
 6727SOL    HW220471   4.872   3.203   4.628  0.0734 -0.3553  0.0558
 6728SOL     OW20472   4.203   3.346   4.770 -0.5362 -0.2589 -0.2874
 6728SOL    HW120473   4.281   3.365   4.829  0.3060 -1.1434 -1.0725
 6728SOL    HW220474   4.196   3.247   4.755 -1.5447 -0.1528 -0.5740
 6729SOL     OW20475   5.497   2.635   4.235  0.1747 -0.4762  0.1637
 6729SOL    HW120476   5.592   2.620   4.206  0.3183  2.4976 -1.3315
 6729SOL    HW220477   5.444   2.672   4.158 -1.1001  1.7781  1.9777
 6730SOL     OW20478   4.437   3.516   4.631  0.2849  0.4356 -0.4631
 6730SOL    HW120479   4.393   3.602   4.604 -0.9780  0.8134  2.3978
 6730SOL    HW220480   4.462   3.520   4.728  1.0791 -2.0750 -0.4871
 6731SOL     OW20481   5.283   2.280   4.528  0.2147  0.3067 -0.0161
 6731SOL    HW120482   5.325   2.191   4.548  1.0663  1.1503  2.3638
 6731SOL    HW220483   5.308   2.310   4.437  2.6269 -0.4498  0.3340
 6732SOL     OW20484   4.997   2.975   4.252  0.1335 -0.2249 -0.9155
 6732SOL    HW120485   4.910   2.932   4.277 -0.0340  0.2615 -0.6504
 6732SOL    HW220486   5.060   2.972   4.330  0.4985 -0.9158 -1.2233
 6733SOL     OW20487   0.165   3.106   5.418  0.1293  0.3781 -0.3957
 6733SOL    HW120488   0.189   3.024   5.367 -0.5969 -0.5443  0.7001
 6733SOL    HW220489   0.246   3.141   5.465  0.4844  0.4159 -1.0205
 6734SOL     OW20490   4.932   3.897   4.876  0.0925 -0.1800  0.0463
 6734SOL    HW120491   4.874   3.908   4.957  0.9254  0.0639  0.6240
 6734SOL    HW220492   5.020   3.941   4.892  0.6419 -1.0020 -0.6000
 6735SOL     OW20493   5.426   1.810   0.269 -0.1071  0.3285 -0.2422
 6735SOL    HW120494   5.417   1.811   0.369  0.3521  1.0142 -0.1938
 6735SOL    HW220495   5.405   1.719   0.234  0.9458 -0.2674  0.6087
 6736SOL     OW20496   5.130   2.309   4.961 -0.4064 -0.9493 -0.4114
 6736SOL    HW120497   5.104   2.272   4.872 -0.9983 -1.2380 -0.1213
 6736SOL    HW220498   5.223   2.278   4.984  0.2013  0.0415 -1.4207
 6737SOL     OW20499   0.238   4.260   4.559  0.2642 -0.7535  0.1979
 6737SOL    HW120500   0.219   4.358   4.558  0.0208 -0.7864  1.1856
 6737SOL    HW220501   0.269   4.233   4.650  1.0745 -1.4579 -0.2756
 6738SOL     OW20502   0.906   1.014   3.677  0.9488  0.6501  0.0849
 6738SOL    HW120503   0.834   0.974   3.621  1.6791 -0.6037  0.0143
 6738SOL    HW220504   0.982   1.042   3.618  0.2176  2.7484  0.0578
 6739SOL     OW20505   5.045   1.454   5.251 -0.3254 -0.2791  0.0527
 6739SOL    HW120506   4.961   1.475   5.201 -0.8396 -2.0583  0.1031
 6739SOL    HW220507   5.089   1.374   5.209  0.6484 -0.1568  0.8236
 6740SOL     OW20508   5.791   4.446   4.034 -0.3337  0.4704 -0.2464
 6740SOL    HW120509   5.782   4.542   4.060  0.3375  0.5600 -0.3208
 6740SOL    HW220510   5.704   4.412   3.998 -1.3705  0.3105  2.2191
 6741SOL     OW20511   4.865   2.298   5.425 -0.2584  0.1700  0.2053
 6741SOL    HW120512   4.932   2.288   5.351  0.8414  0.1376  1.1748
 6741SOL    HW220513   4.888   2.235   5.499 -0.4551  1.2591  1.2191
 6742SOL     OW20514   5.185   2.573   4.115 -0.0636  0.5488 -0.0581
 6742SOL    HW120515   5.228   2.504   4.174  0.0329 -0.1151 -0.8931
 6742SOL    HW220516   5.147   2.646   4.172  1.1698  0.5830  0.7663
 6743SOL     OW20517   4.786   3.226   4.458 -0.1813 -0.3692  0.0181
 6743SOL    HW120518   4.850   3.279   4.403 -0.5889  0.4789  0.3399
 6743SOL    HW220519   4.740   3.158   4.401 -0.4496  0.3586 -0.6463
 6744SOL     OW20520   5.663   2.545   5.325 -0.2612  0.2969 -0.0168
 6744SOL    HW120521   5.584   2.571   5.380 -0.4231  1.9821 -0.9644
 6744SOL    HW220522   5.739   2.607   5.344  0.1746 -0.0474 -0.5833
 6745SOL     OW20523   0.119   3.982   3.681 -0.2537  0.2285  0.3731
 6745SOL    HW120524   0.032   3.940   3.709 -0.1462  0.6924  1.4550
 6745SOL    HW220525   0.108   4.081   3.675  0.4449  0.3843  1.4784
 6746SOL     OW20526   4.469   3.342   4.438 -0.4664 -0.1625 -0.3782
 6746SOL    HW120527   4.469   3.412   4.509  0.6136 -1.5085  1.0388
 6746SOL    HW220528   4.559   3.338   4.395 -0.5440 -0.6083 -0.5077
 6747SOL     OW20529   4.556   4.440   3.675 -0.3085  0.2815  0.0483
 6747SOL    HW120530   4.457   4.455   3.668 -0.6872 -1.9405 -0.0239
 6747SOL    HW220531   4.578   4.349   3.642  1.8722  0.9419 -0.4548
 6748SOL     OW20532   4.462   3.823   5.363  0.2111 -0.3861 -0.0836
 6748SOL    HW120533   4.520   3.834   5.443 -0.0319 -1.2988  0.2328
 6748SOL    HW220534   4.366   3.840   5.389 -0.1450 -2.7359  0.3635
 6749SOL     OW20535   4.438   2.465   4.357 -0.6192  0.8452 -0.3977
 6749SOL    HW120536   4.366   2.488   4.422 -0.6541  2.1729 -0.8895
 6749SOL    HW220537   4.520   2.519   4.377 -0.3653  0.6893 -0.9814
 6750SOL     OW20538   5.266   3.670   5.589 -0.1542 -0.2279  0.1761
 6750SOL    HW120539   5.355   3.676   5.635  0.2329 -0.8372 -0.4740
 6750SOL    HW220540   5.195   3.648   5.656  0.3747 -0.8995  0.5249
 6751SOL     OW20541   0.021   4.153   5.215 -0.6816 -0.1627  0.4689
 6751SOL    HW120542   0.114   4.120   5.199 -0.1551  1.8776 -1.0927
 6751SOL    HW220543  -0.021   4.178   5.127 -1.7532  1.3607  1.3659
 6752SOL     OW20544   0.934   3.213   5.281 -0.3431  0.0390 -0.4585
 6752SOL    HW120545   1.001   3.169   5.343  0.4471 -0.3641 -1.5648
 6752SOL    HW220546   0.981   3.281   5.226 -1.0815  0.5095 -0.5070
 6753SOL     OW20547   5.484   2.647   5.498 -0.1091  0.9559  0.2829
 6753SOL    HW120548   5.499   2.601   5.586 -1.2261  1.6986  0.8867
 6753SOL    HW220549   5.441   2.736   5.515 -1.9744  0.3601 -1.1271
 6754SOL     OW20550  -0.014   3.791   5.150  0.4597  0.3217 -0.1881
 6754SOL    HW120551   0.081   3.801   5.120 -0.3150  2.3793 -2.2629
 6754SOL    HW220552  -0.028   3.841   5.235  1.1657  0.1898  0.0121
 6755SOL     OW20553   5.181   3.958   4.908 -0.2540 -0.1649 -0.4570
 6755SOL    HW120554   5.212   3.881   4.964 -1.6580 -0.6936 -0.3679
 6755SOL    HW220555   5.260   4.000   4.863  0.5887 -1.4357 -0.2297
 6756SOL     OW20556   5.411   1.753   5.724  0.4087  0.7071 -0.6308
 6756SOL    HW120557   5.353   1.742   5.805  0.4369 -2.4451 -0.9019
 6756SOL    HW220558   5.507   1.755   5.752  0.4170 -0.3489 -0.5239
 6757SOL     OW20559   0.737   1.151   4.381 -0.4597 -0.4014 -0.1895
 6757SOL    HW120560   0.689   1.063   4.381  0.3311 -0.8442 -0.5987
 6757SOL    HW220561   0.672   1.225   4.401 -0.9334 -1.1825  1.3041
 6758SOL     OW20562   5.164   2.596   5.876 -0.2349  0.1512  0.0025
 6758SOL    HW120563   5.197   2.663   5.942 -1.1712 -1.0247  1.7331
 6758SOL    HW220564   5.226   2.518   5.873 -1.1322 -0.6162  0.8736
 6759SOL     OW20565   2.004   3.965   4.755  0.3581 -0.1697  0.4225
 6759SOL    HW120566   2.088   3.936   4.801  0.1896 -0.0604  0.8076
 6759SOL    HW220567   1.930   3.900   4.776  0.3351 -0.2475  0.1133
 6760SOL     OW20568   3.929   3.569   5.106  0.0067 -0.2483 -0.5106
 6760SOL    HW120569   3.959   3.475   5.087  0.8989  0.1383 -1.0990
 6760SOL    HW220570   3.975   3.632   5.043  0.3118  0.7128  0.6464
 6761SOL     OW20571   5.840   2.733   5.132  0.8304  0.0129 -0.0758
 6761SOL    HW120572   5.924   2.755   5.081  1.1104 -0.3916  0.1979
 6761SOL    HW220573   5.852   2.760   5.227  1.1596 -1.2396  0.2530
 6762SOL     OW20574   0.136   3.853   5.409 -0.1629  0.4007  0.2049
 6762SOL    HW120575   0.119   3.916   5.485  0.4017 -0.1042  0.7637
 6762SOL    HW220576   0.182   3.771   5.443 -2.1032 -0.9645 -0.2508
 6763SOL     OW20577   5.097   4.446   4.742  0.1197 -0.2987 -0.2580
 6763SOL    HW120578   5.028   4.482   4.804  0.0149 -0.3797 -0.3270
 6763SOL    HW220579   5.157   4.520   4.711  0.1525 -0.2541 -0.0856
 6764SOL     OW20580   4.989   3.816   4.595  0.2677  0.2866  0.1733
 6764SOL    HW120581   4.961   3.815   4.691  2.1603 -1.8171  0.8046
 6764SOL    HW220582   5.061   3.884   4.581  0.5894  0.0025  0.4492
 6765SOL     OW20583   5.284   4.244   5.130  0.0867 -0.6274 -0.1481
 6765SOL    HW120584   5.241   4.273   5.044  2.8327  1.3158 -0.9810
 6765SOL    HW220585   5.370   4.197   5.111 -0.2634 -2.0629  1.5412
 6766SOL     OW20586   4.823   2.356   0.016  0.6495  0.1122 -0.0498
 6766SOL    HW120587   4.853   2.438  -0.032  1.0118 -0.4190 -0.7460
 6766SOL    HW220588   4.760   2.381   0.089 -0.1177  0.9174 -0.9657
 6767SOL     OW20589   4.924   2.434   0.726  0.5028 -0.7489 -0.4587
 6767SOL    HW120590   4.995   2.391   0.782  0.8635 -0.8349 -0.9791
 6767SOL    HW220591   4.950   2.430   0.630 -0.7721 -1.9311 -0.8014
 6768SOL     OW20592   5.078   4.024   0.041 -0.1308 -0.3724  0.3560
 6768SOL    HW120593   5.157   4.079   0.069 -1.1615  1.2902  0.1243
 6768SOL    HW220594   5.079   4.012  -0.058  0.0045 -0.6212  0.3880
 6769SOL     OW20595   4.893   1.149   5.526  0.6765  0.1253 -0.4551
 6769SOL    HW120596   4.966   1.216   5.540  1.5403 -1.0853  1.0973
 6769SOL    HW220597   4.807   1.196   5.507  1.5419  1.6139 -0.7994
 6770SOL     OW20598   0.843   2.843   5.420  0.1454  0.4923 -0.4884
 6770SOL    HW120599   0.860   2.910   5.347  0.7736 -0.5819 -1.3665
 6770SOL    HW220600   0.924   2.787   5.433 -0.0323  0.5358  0.9278
 6771SOL     OW20601   5.542   2.444   0.502 -0.1076 -0.2850 -0.0083
 6771SOL    HW120602   5.596   2.433   0.419 -0.4180 -1.0659 -0.1141
 6771SOL    HW220603   5.589   2.402   0.579  0.0596  0.2134  0.1647
 6772SOL     OW20604   4.787   3.922   5.104 -0.0701 -0.0058 -0.1352
 6772SOL    HW120605   4.851   3.928   5.180 -0.5687  0.5620  0.2510
 6772SOL    HW220606   4.704   3.974   5.126 -1.3321 -1.9513  0.0195
 6773SOL     OW20607   4.465   3.439   1.894  0.1987 -0.0237 -0.0503
 6773SOL    HW120608   4.423   3.461   1.806  0.1358  2.3262  0.4961
 6773SOL    HW220609   4.397   3.451   1.967  1.0271  0.9968  0.5745
 6774SOL     OW20610   5.778   4.335   0.665 -0.4163 -0.7472  0.5851
 6774SOL    HW120611   5.836   4.254   0.671 -0.1274 -0.6708 -0.8082
 6774SOL    HW220612   5.686   4.314   0.697 -0.3938 -1.6805  0.0557
 6775SOL     OW20613   0.652   5.648   2.172  0.5004 -0.6213 -0.0142
 6775SOL    HW120614   0.565   5.672   2.215  1.6932  1.2032  1.5648
 6775SOL    HW220615   0.675   5.553   2.193 -0.9410 -1.0376 -0.2219
 6776SOL     OW20616   5.518   5.507   1.597 -0.7241 -0.1152  0.5804
 6776SOL    HW120617   5.552   5.486   1.688  0.3927 -1.0821 -0.0226
 6776SOL    HW220618   5.570   5.455   1.529 -1.5339  0.5663 -0.6130
 6777SOL     OW20619   5.787   5.217   0.713  0.2600 -0.5021 -0.1409
 6777SOL    HW120620   5.829   5.144   0.659  2.2375 -1.0772  2.0265
 6777SOL    HW220621   5.827   5.305   0.686  1.0813 -0.7609  0.1906
 6778SOL     OW20622   4.557   3.690   0.575 -0.0535  0.1754 -0.8098
 6778SOL    HW120623   4.544   3.770   0.518 -2.3009 -0.1462 -0.8345
 6778SOL    HW220624   4.575   3.610   0.517 -0.3132  0.2116 -0.9404
 6779SOL     OW20625   4.580   0.086   0.906  0.4094  0.7890  0.1328
 6779SOL    HW120626   4.627   0.167   0.871  1.2316  0.0052 -0.6311
 6779SOL    HW220627   4.600   0.008   0.847 -0.8242  0.1437  0.5368
 6780SOL     OW20628   0.768   4.849   0.900  0.1092 -0.0941  0.3961
 6780SOL    HW120629   0.809   4.865   0.989  0.6927 -0.5482  0.2154
 6780SOL    HW220630   0.818   4.901   0.830  0.3327 -0.5775  0.1881
 6781SOL     OW20631   5.144   5.282   1.166 -0.0341 -0.3335 -0.1936
 6781SOL    HW120632   5.101   5.356   1.218 -1.3311 -0.5132 -0.9740
 6781SOL    HW220633   5.236   5.265   1.202 -0.6518 -0.0285  1.6020
 6782SOL     OW20634   5.147   3.961   1.885  0.2420 -0.3417  0.8648
 6782SOL    HW120635   5.127   3.983   1.981 -1.3105  1.3072  0.2383
 6782SOL    HW220636   5.241   3.986   1.864  0.3108  0.1912  1.7272
 6783SOL     OW20637   4.543   4.251   1.360  0.2805  0.5434  0.3732
 6783SOL    HW120638   4.569   4.253   1.264  1.3932 -1.7338  0.5452
 6783SOL    HW220639   4.619   4.213   1.414 -1.0576 -0.1426  1.8566
 6784SOL     OW20640   5.764   5.553   1.061  0.2264  0.2808 -1.2287
 6784SOL    HW120641   5.742   5.605   1.143  0.0608 -0.1059 -1.0233
 6784SOL    HW220642   5.857   5.574   1.031  0.4934 -0.0163 -0.6076
 6785SOL     OW20643   5.196   0.401   0.906 -0.5109  0.3850  0.1496
 6785SOL    HW120644   5.281   0.348   0.911 -2.0167 -2.3485 -0.7772
 6785SOL    HW220645   5.201   0.464   0.829  0.3237 -0.5375 -0.5853
 6786SOL     OW20646   0.216   4.053   1.175 -0.1751 -0.5435  0.4943
 6786SOL    HW120647   0.154   4.125   1.207 -0.0380  0.9240 -2.3020
 6786SOL    HW220648   0.301   4.056   1.228 -0.9348  0.0015  1.7396
 6787SOL     OW20649   0.222   4.738   0.205 -0.0861  0.0362  0.5527
 6787SOL    HW120650   0.215   4.659   0.266 -2.1102 -1.0458 -0.9616
 6787SOL    HW220651   0.139   4.744   0.149  0.9288  2.0234 -0.8454
 6788SOL     OW20652   0.677   5.019   2.226  0.3591 -0.2297  0.5462
 6788SOL    HW120653   0.605   4.956   2.200 -0.6219  0.5963  1.1911
 6788SOL    HW220654   0.648   5.113   2.209  1.8375  0.0771 -0.5190
 6789SOL     OW20655   5.743   4.519   2.099  0.0199  0.0558  0.0628
 6789SOL    HW120656   5.817   4.488   2.159  1.3485 -0.9617 -2.0195
 6789SOL    HW220657   5.657   4.479   2.130  0.3694  0.7724  2.1654
 6790SOL     OW20658   0.742   5.809   1.249 -0.2004  0.1379  0.0966
 6790SOL    HW120659   0.660   5.852   1.286  0.8776  1.9236  0.5438
 6790SOL    HW220660   0.807   5.793   1.323  0.4447  0.1448 -0.4574
 6791SOL     OW20661   5.611   3.912   0.609 -0.2109 -0.0530  0.6955
 6791SOL    HW120662   5.667   3.953   0.681  1.6565  0.2941 -0.8714
 6791SOL    HW220663   5.651   3.825   0.581  1.0107  1.2693 -2.0536
 6792SOL     OW20664   4.822   4.485   2.007 -0.0353 -0.0843 -0.0610
 6792SOL    HW120665   4.919   4.474   1.987  0.3531  1.5507  0.7456
 6792SOL    HW220666   4.779   4.542   1.937 -0.5302 -1.1451 -0.6438
 6793SOL     OW20667   5.665   5.085   1.660 -0.4490  0.3481 -0.2728
 6793SOL    HW120668   5.613   5.046   1.584 -0.8173  0.0144  0.1391
 6793SOL    HW220669   5.661   5.022   1.738 -0.9995  1.1830  0.3919
 6794SOL     OW20670   4.465   4.398   0.672  0.3457  0.0311  0.1490
 6794SOL    HW120671   4.470   4.483   0.725 -0.9813  0.4843 -0.4100
 6794SOL    HW220672   4.386   4.345   0.701  0.6210 -0.5646 -0.1647
 6795SOL     OW20673   1.313   4.140   1.200 -0.0022  0.0613  0.5568
 6795SOL    HW120674   1.409   4.133   1.227 -0.1887  1.4308  1.6681
 6795SOL    HW220675   1.255   4.108   1.276 -0.4621  1.1007  0.6557
 6796SOL     OW20676   4.466   4.585   0.897 -0.6501  0.1202  0.2420
 6796SOL    HW120677   4.515   4.538   0.971 -1.6306 -1.8306 -0.3093
 6796SOL    HW220678   4.368   4.574   0.910 -0.8494 -1.7531 -2.2130
 6797SOL     OW20679   4.150   5.372   1.334 -0.4166 -0.1318 -0.4042
 6797SOL    HW120680   4.182   5.391   1.427  1.4280 -1.0712 -0.8153
 6797SOL    HW220681   4.228   5.356   1.274 -1.6212 -0.7779 -1.8559
 6798SOL     OW20682   0.208   3.392   2.947  0.2478 -0.0502 -0.4864
 6798SOL    HW120683   0.126   3.347   2.983  0.0753  0.8761  0.3098
 6798SOL    HW220684   0.284   3.327   2.944  0.3281 -0.1308  1.7665
 6799SOL     OW20685   0.072   4.268   2.140  0.6309  0.5629  0.0184
 6799SOL    HW120686   0.099   4.185   2.189  0.0729  0.4161  0.0820
 6799SOL    HW220687   0.133   4.282   2.062  1.8750  1.0946  1.0479
 6800SOL     OW20688   5.578   4.242   1.853  0.4349 -0.2863  0.3493
 6800SOL    HW120689   5.522   4.159   1.856  0.5269 -0.3434  0.4644
 6800SOL    HW220690   5.671   4.221   1.884  0.6451 -0.2868 -0.2787
 6801SOL     OW20691   0.814   4.717   1.722  0.3864 -0.3003 -0.3984
 6801SOL    HW120692   0.842   4.686   1.813  2.0687  2.5575  0.1664
 6801SOL    HW220693   0.715   4.733   1.722  0.3107 -0.6633  0.8203
 6802SOL     OW20694   5.300   5.808   1.135 -0.1859 -0.2147 -0.6779
 6802SOL    HW120695   5.342   5.780   1.222  0.5044  1.9843 -0.2421
 6802SOL    HW220696   5.370   5.813   1.064 -0.7923 -2.2604 -1.4876
 6803SOL     OW20697   4.250   5.412   1.976  0.1499  0.5354  0.2525
 6803SOL    HW120698   4.224   5.500   1.938  1.0541  0.2081 -1.1950
 6803SOL    HW220699   4.347   5.394   1.957 -0.3616 -1.4085 -0.8633
 6804SOL     OW20700   5.344   5.482   1.914  0.0553 -0.6624 -0.1341
 6804SOL    HW120701   5.285   5.481   1.834 -0.5871 -0.9505  0.3364
 6804SOL    HW220702   5.331   5.398   1.967  2.0248 -1.4804 -0.8317
 6805SOL     OW20703   0.734   4.204   2.218  0.5174 -0.6799 -0.4238
 6805SOL    HW120704   0.708   4.195   2.122  2.2146 -1.2525 -0.8665
 6805SOL    HW220705   0.819   4.154   2.234  0.6396 -0.0017  1.2287
 6806SOL     OW20706   5.589   4.093   5.717 -0.7191 -0.3640 -0.1074
 6806SOL    HW120707   5.504   4.130   5.680 -1.7985 -0.9188  1.6967
 6806SOL    HW220708   5.615   4.145   5.799  1.1419  0.3073 -1.0755
 6807SOL     OW20709   5.592   2.088   5.790 -0.1563  0.2818 -0.3384
 6807SOL    HW120710   5.575   2.094   5.691 -0.9529  1.4802 -0.1456
 6807SOL    HW220711   5.506   2.072   5.837 -0.0343  1.4051  0.2886
 6808SOL     OW20712   4.683   3.796   1.859  0.0768  0.2088  0.3455
 6808SOL    HW120713   4.649   3.811   1.952  0.4133 -0.8775  0.6629
 6808SOL    HW220714   4.614   3.746   1.806  0.2662  0.0052  0.2927
 6809SOL     OW20715   1.512   5.795   0.269 -0.2448 -0.3104 -0.3434
 6809SOL    HW120716   1.568   5.841   0.338 -0.1855 -0.7703 -0.0791
 6809SOL    HW220717   1.453   5.862   0.224 -1.1684 -0.1580  0.9967
 6810SOL     OW20718   5.054   5.559   0.848 -0.4352  0.3678 -0.5953
 6810SOL    HW120719   5.017   5.651   0.850  0.0413  0.7229 -3.5528
 6810SOL    HW220720   5.154   5.563   0.838 -0.3911 -0.4640 -0.5964
 6811SOL     OW20721   5.642   3.791   1.840  0.7234 -0.4009 -0.2220
 6811SOL    HW120722   5.680   3.736   1.914 -0.2259  0.0756  0.6335
 6811SOL    HW220723   5.713   3.851   1.803  0.7084  0.8573  1.7041
 6812SOL     OW20724   5.519   4.486   2.334 -0.0121  0.3784  0.3878
 6812SOL    HW120725   5.571   4.570   2.349  2.2929 -0.8025 -0.5446
 6812SOL    HW220726   5.501   4.474   2.236 -1.7963  0.5621  0.6494
 6813SOL     OW20727   0.874   4.202   2.872 -0.0361  0.2324  0.0771
 6813SOL    HW120728   0.872   4.288   2.822  0.7368  0.1693 -0.0900
 6813SOL    HW220729   0.956   4.199   2.930  0.1695 -0.5481 -0.2305
 6814SOL     OW20730   5.482   4.727   1.130 -0.0270 -0.5012  0.4460
 6814SOL    HW120731   5.554   4.723   1.199 -1.6127 -1.1708  2.1383
 6814SOL    HW220732   5.415   4.797   1.156  0.7137  1.2016 -1.8850
 6815SOL     OW20733   1.234   4.255   3.975  0.2981  0.1462 -0.4809
 6815SOL    HW120734   1.304   4.242   4.045 -0.0277 -0.1011 -0.1927
 6815SOL    HW220735   1.237   4.178   3.911 -0.4664 -0.4852  0.2062
 6816SOL     OW20736   0.347   0.192   2.040  0.4649  0.1823 -0.7056
 6816SOL    HW120737   0.273   0.232   1.984  2.4857  2.1114 -2.1844
 6816SOL    HW220738   0.395   0.123   1.986 -1.1805 -2.3150  0.8387
 6817SOL     OW20739   0.461   4.667   1.031  0.0926 -0.7697 -1.0031
 6817SOL    HW120740   0.426   4.636   0.942  0.0891  0.6760 -1.5294
 6817SOL    HW220741   0.487   4.763   1.024  3.0317 -1.4385 -0.3005
 6818SOL     OW20742   5.423   4.878   3.662 -0.0759 -0.3256 -0.1459
 6818SOL    HW120743   5.468   4.942   3.723  0.0322  1.1972 -1.7250
 6818SOL    HW220744   5.482   4.798   3.648  0.0342 -0.5422  1.4251
 6819SOL     OW20745   1.096   4.266   2.176 -0.2214 -0.4592  0.0122
 6819SOL    HW120746   1.047   4.353   2.166 -0.2484 -0.4479  0.2421
 6819SOL    HW220747   1.060   4.217   2.255  0.3624 -0.3011  0.3792
 6820SOL     OW20748   5.192   5.930   1.749 -0.2284 -0.3129  0.6632
 6820SOL    HW120749   5.133   5.853   1.726  0.6246 -0.6351 -0.5478
 6820SOL    HW220750   5.136   6.011   1.766 -1.0862 -0.9784  1.0929
 6821SOL     OW20751   5.716   4.855   3.431 -0.0585  0.3669 -0.0746
 6821SOL    HW120752   5.678   4.800   3.505 -0.4589 -0.0601 -0.5850
 6821SOL    HW220753   5.786   4.802   3.383 -0.2821  0.3848 -0.4248
 6822SOL     OW20754   4.929   3.673   2.184  0.0836 -0.4454 -0.3573
 6822SOL    HW120755   5.002   3.660   2.251 -0.5203 -2.5659 -0.0312
 6822SOL    HW220756   4.968   3.683   2.093  0.8307  0.4555  0.0405
 6823SOL     OW20757  -0.024   4.551   2.322 -0.7042 -0.2212 -0.3008
 6823SOL    HW120758   0.065   4.550   2.277  0.0477  3.6976  0.6873
 6823SOL    HW220759  -0.019   4.498   2.407  0.4768 -0.5725 -0.5749
 6824SOL     OW20760   0.075   5.184   2.759 -0.1119  0.1557 -0.4188
 6824SOL    HW120761   0.131   5.265   2.779 -0.0143  0.2470 -1.0518
 6824SOL    HW220762   0.093   5.114   2.828 -0.4351  0.7904  0.3274
 6825SOL     OW20763   5.757   4.759   3.884  0.2926  0.6060  0.1027
 6825SOL    HW120764   5.783   4.747   3.980  0.7241  2.6130  0.2647
 6825SOL    HW220765   5.691   4.834   3.876  3.6163  3.6418 -1.5714
 6826SOL     OW20766   1.518   5.525   1.916 -0.1939  0.1356  0.3514
 6826SOL    HW120767   1.483   5.610   1.956 -0.4949  0.7278 -1.0905
 6826SOL    HW220768   1.507   5.529   1.816  0.2971 -1.3759  0.2211
 6827SOL     OW20769   0.349   5.259   3.107  0.0144 -1.0114  0.1179
 6827SOL    HW120770   0.385   5.261   3.014 -0.7476  0.9369 -0.1894
 6827SOL    HW220771   0.262   5.212   3.109  1.0318 -2.9695  0.2843
 6828SOL     OW20772   0.067   3.200   1.540  0.1598 -0.0408  0.8349
 6828SOL    HW120773   0.139   3.257   1.580  0.4662  1.3970 -1.5384
 6828SOL    HW220774  -0.014   3.256   1.524 -0.6208 -1.0413  1.1674
 6829SOL     OW20775   5.276   4.450   3.922 -0.0094 -0.3717  0.1761
 6829SOL    HW120776   5.197   4.405   3.880 -0.5102  1.6778 -1.2007
 6829SOL    HW220777   5.246   4.530   3.973  1.1927  0.7946 -0.8722
 6830SOL     OW20778   4.787   5.463   3.038  0.2364  0.4859 -0.3720
 6830SOL    HW120779   4.687   5.463   3.050 -0.1751 -0.0571 -3.2181
 6830SOL    HW220780   4.823   5.554   3.061 -0.5310  0.1012  2.7927
 6831SOL     OW20781   0.873   4.017   2.669  0.1633 -0.2924 -0.2191
 6831SOL    HW120782   0.778   4.005   2.639  0.4625  0.7228 -1.6628
 6831SOL    HW220783   0.874   4.070   2.754 -0.5807 -0.8422  0.1461
 6832SOL     OW20784   0.770   4.681   2.594  0.3270  0.4519 -0.1016
 6832SOL    HW120785   0.865   4.708   2.577  0.2333  0.6904 -0.2399
 6832SOL    HW220786   0.740   4.720   2.681  0.1007  1.0259 -0.4359
 6833SOL     OW20787   0.233   5.394   2.836 -0.4225  0.4301  0.1067
 6833SOL    HW120788   0.310   5.436   2.789  0.4699 -0.4299  0.7717
 6833SOL    HW220789   0.190   5.460   2.897  0.1940  0.7252  0.2217
 6834SOL     OW20790   0.691   3.500   2.385  0.3931 -0.1653  0.1828
 6834SOL    HW120791   0.717   3.557   2.308 -3.2177 -1.9255 -2.6758
 6834SOL    HW220792   0.745   3.416   2.384 -0.4120 -0.6960 -1.2482
 6835SOL     OW20793   0.387   4.846   2.719  0.0181 -0.4112 -0.1604
 6835SOL    HW120794   0.404   4.926   2.662  0.4233  0.9458  1.7737
 6835SOL    HW220795   0.434   4.857   2.807 -1.9238 -1.6224  1.1039
 6836SOL     OW20796   5.533   4.963   1.457  0.5375 -0.0588 -0.2530
 6836SOL    HW120797   5.581   4.917   1.382 -0.1705 -0.9040 -0.2065
 6836SOL    HW220798   5.479   4.895   1.508 -0.7361  0.8811 -0.3300
 6837SOL     OW20799   5.942   5.246   2.526  0.4109  0.5569 -0.2608
 6837SOL    HW120800   5.876   5.185   2.482  1.1375 -0.4998  0.0786
 6837SOL    HW220801   5.990   5.197   2.598  0.7627  1.6483  0.2648
 6838SOL     OW20802   0.299   4.424   2.547  0.1307 -0.1761  0.2644
 6838SOL    HW120803   0.342   4.473   2.471 -0.6622  0.9892  0.5375
 6838SOL    HW220804   0.319   4.472   2.632  1.5782 -1.8428  0.9200
 6839SOL     OW20805   4.614   4.811   2.746 -0.5351 -0.0811  0.0118
 6839SOL    HW120806   4.533   4.773   2.702 -0.0685 -1.1466  0.0414
 6839SOL    HW220807   4.665   4.865   2.680 -2.2800  2.3068  0.4904
 6840SOL     OW20808   5.577   4.983   3.888 -0.0836  0.3511 -0.5202
 6840SOL    HW120809   5.576   5.079   3.862  1.6903  0.3369 -0.7473
 6840SOL    HW220810   5.506   4.966   3.957  0.2401  2.0204  0.2555
 6841SOL     OW20811   5.093   5.830   4.183  0.0638  0.0401 -0.0601
 6841SOL    HW120812   5.166   5.898   4.182  0.9366 -0.8390 -1.9607
 6841SOL    HW220813   5.042   5.834   4.096 -1.4748 -0.0957  0.7958
 6842SOL     OW20814   5.688   5.882   3.640  0.4712  0.1578 -0.1931
 6842SOL    HW120815   5.753   5.873   3.565  0.5069  0.2710 -0.1752
 6842SOL    HW220816   5.705   5.809   3.707  1.2309  0.7842  0.3075
 6843SOL     OW20817   4.779   4.889   3.051 -0.3772 -0.0373  0.3745
 6843SOL    HW120818   4.708   4.953   3.020  0.2004  0.5971  0.3456
 6843SOL    HW220819   4.782   4.810   2.990  1.8082  1.8836 -2.2507
 6844SOL     OW20820   4.885   5.969   1.915 -0.1068  0.4564  0.0385
 6844SOL    HW120821   4.849   6.024   1.839  1.7339  0.9941 -0.4786
 6844SOL    HW220822   4.927   5.886   1.879  1.1262  0.9022  0.4191
 6845SOL     OW20823   0.416   5.110   3.334  0.2496  0.1201  0.3977
 6845SOL    HW120824   0.333   5.121   3.388 -1.5303 -1.2008 -1.8762
 6845SOL    HW220825   0.410   5.165   3.251  0.3401 -1.9679 -1.1030
 6846SOL     OW20826   4.954   4.917   2.761  0.0872 -0.4127 -0.4360
 6846SOL    HW120827   5.006   4.948   2.840 -0.2320 -1.6099  0.2727
 6846SOL    HW220828   4.892   4.844   2.789 -0.1088 -0.7780 -1.7708
 6847SOL     OW20829   4.814   4.151   1.985 -0.4815 -0.0381 -0.4589
 6847SOL    HW120830   4.774   4.116   2.070  0.0321 -0.4338 -0.3694
 6847SOL    HW220831   4.840   4.075   1.927 -1.1410  0.2398 -1.1314
 6848SOL     OW20832   5.985   3.630   2.477  0.1976  0.5050 -0.1018
 6848SOL    HW120833   6.054   3.565   2.508 -1.9419 -1.6511  0.4945
 6848SOL    HW220834   5.926   3.586   2.409 -1.8061  1.5446  0.8705
 6849SOL     OW20835   0.362   4.105   2.804 -0.2430  0.4128  0.5788
 6849SOL    HW120836   0.284   4.042   2.796 -0.9325  1.4539 -2.0461
 6849SOL    HW220837   0.328   4.199   2.808  0.8376  0.9038 -0.9146
 6850SOL     OW20838   5.319   5.800   2.441 -0.0052  0.2331  0.4986
 6850SOL    HW120839   5.274   5.887   2.419  1.4222  0.7651 -0.4600
 6850SOL    HW220840   5.273   5.725   2.394  1.5485  1.0677 -2.5634
 6851SOL     OW20841   5.709   4.961   2.302  0.1451  0.0556  0.6214
 6851SOL    HW120842   5.692   5.033   2.234  0.7946  0.3067  0.7185
 6851SOL    HW220843   5.692   4.997   2.394  2.7529  0.8665  0.8743
 6852SOL     OW20844   0.783   5.294   2.625 -0.5757  0.4015 -0.0052
 6852SOL    HW120845   0.780   5.385   2.666  0.8411  0.0214  1.0407
 6852SOL    HW220846   0.747   5.227   2.689  0.3077 -0.0149  0.0792
 6853SOL     OW20847   5.569   3.981   5.369  0.2951 -0.4277 -0.4316
 6853SOL    HW120848   5.523   3.974   5.457 -0.7016 -1.0846 -0.9816
 6853SOL    HW220849   5.648   4.042   5.377 -0.1505  0.0226  0.7554
 6854SOL     OW20850   5.568   5.566   4.220  0.1454 -0.0107  0.4385
 6854SOL    HW120851   5.570   5.610   4.130  0.8674 -0.0930  0.4050
 6854SOL    HW220852   5.484   5.590   4.268 -1.2088 -1.5727 -1.0469
 6855SOL     OW20853   0.547   5.473   5.394 -0.0729  0.4530  0.2966
 6855SOL    HW120854   0.459   5.521   5.387  0.1554  0.6810 -1.8121
 6855SOL    HW220855   0.531   5.375   5.409 -0.7447  0.3465 -0.9921
 6856SOL     OW20856   1.204   5.653  -0.007  0.5371  0.0061  0.3378
 6856SOL    HW120857   1.190   5.683   0.088 -1.4076  1.5424 -0.3730
 6856SOL    HW220858   1.294   5.684  -0.038 -0.0418  2.3104  0.7410
 6857SOL     OW20859   0.611   5.888   4.622 -0.1127 -0.5018  0.5797
 6857SOL    HW120860   0.616   5.789   4.625 -0.5058 -0.4988  1.4057
 6857SOL    HW220861   0.682   5.927   4.681 -0.0170 -0.2945  0.3290
 6858SOL     OW20862   5.682   0.899   4.857 -0.9659  0.1691 -0.2515
 6858SOL    HW120863   5.697   0.811   4.900  0.3922  0.6737  0.3606
 6858SOL    HW220864   5.718   0.897   4.763  1.4550  0.7875  0.5835
 6859SOL     OW20865   0.250   5.604   4.595 -0.3770  0.3498  0.6162
 6859SOL    HW120866   0.181   5.611   4.666  0.4380  0.0508  1.4487
 6859SOL    HW220867   0.301   5.690   4.590 -0.7325  0.5398  0.0586
 6860SOL     OW20868   5.850   4.846   2.757 -1.1331  0.4268  1.1011
 6860SOL    HW120869   5.779   4.790   2.716 -2.1702  1.1738  1.8238
 6860SOL    HW220870   5.937   4.829   2.711 -1.7997 -0.4040  0.1139
 6861SOL     OW20871   4.471   5.470   4.883  0.4013  0.3204  0.4078
 6861SOL    HW120872   4.391   5.411   4.877 -0.2369  1.0724  1.1686
 6861SOL    HW220873   4.534   5.450   4.808 -1.0204  0.4975 -0.8713
 6862SOL     OW20874   5.676   3.582   4.372 -0.3184 -0.7208 -0.7434
 6862SOL    HW120875   5.771   3.600   4.401  0.1166 -2.2438 -1.1447
 6862SOL    HW220876   5.639   3.664   4.328  0.3064  0.3703  0.6786
 6863SOL     OW20877   5.594   5.301   4.098 -0.2919 -0.1522  0.2846
 6863SOL    HW120878   5.563   5.385   4.143  0.5874  0.0279  0.5877
 6863SOL    HW220879   5.663   5.257   4.156  0.3661 -0.2781 -0.5798
 6864SOL     OW20880   5.933   4.726   3.344  0.2026  0.1878  0.3252
 6864SOL    HW120881   6.018   4.779   3.350  0.0476  0.3516  1.1988
 6864SOL    HW220882   5.946   4.638   3.390  0.5213 -0.6370 -1.2914
 6865SOL     OW20883   5.483   0.193   5.014 -0.0878 -0.0693 -0.4384
 6865SOL    HW120884   5.473   0.280   4.966 -1.7483  0.5461  0.9561
 6865SOL    HW220885   5.423   0.125   4.973 -3.0550  0.9857  1.8275
 6866SOL     OW20886   5.092   2.986   4.533  0.2564  1.0455 -0.4991
 6866SOL    HW120887   5.053   3.034   4.611 -1.2310 -0.6191 -0.1386
 6866SOL    HW220888   5.112   2.891   4.559  2.1783  1.1456 -1.4396
 6867SOL     OW20889   5.210   4.087   3.896  0.5971  0.1026 -0.2738
 6867SOL    HW120890   5.154   4.140   3.831 -1.2777 -2.0571 -0.5831
 6867SOL    HW220891   5.200   4.125   3.988 -0.7588  0.2742 -0.4707
 6868SOL     OW20892   4.920   4.576   4.939  0.4037 -0.4741  0.0300
 6868SOL    HW120893   4.918   4.505   5.009 -1.1422  1.4516  2.0835
 6868SOL    HW220894   4.832   4.579   4.893  0.9233 -0.7496 -1.0120
 6869SOL     OW20895   5.177   4.669   4.066 -0.4746  0.3615  0.5649
 6869SOL    HW120896   5.213   4.618   4.144 -0.4841 -2.5310 -1.1973
 6869SOL    HW220897   5.081   4.693   4.084 -1.4291 -2.8844  0.3623
 6870SOL     OW20898   0.716   5.009   5.265  0.2178  0.5490 -0.2174
 6870SOL    HW120899   0.723   5.109   5.262 -0.7671  0.7382  1.6191
 6870SOL    HW220900   0.685   4.975   5.177  0.3845  1.8883 -0.8172
 6871SOL     OW20901   0.535   0.782   5.709  0.0036 -0.2100  0.0096
 6871SOL    HW120902   0.610   0.844   5.684 -0.5744  0.5582  0.1427
 6871SOL    HW220903   0.492   0.814   5.793 -2.3702  1.1188 -1.5781
 6872SOL     OW20904   0.070   4.241   3.660  0.8615 -0.6044 -0.5281
 6872SOL    HW120905   0.159   4.284   3.644  1.3485 -1.2789  0.3309
 6872SOL    HW220906   0.031   4.276   3.745 -0.4009  0.8090 -1.6331
 6873SOL     OW20907   0.530   3.897   3.449 -0.4359  0.4628 -0.3393
 6873SOL    HW120908   0.623   3.915   3.481 -0.9047  2.1949  0.1540
 6873SOL    HW220909   0.503   3.969   3.385 -1.2526 -0.3437 -0.9302
 6874SOL     OW20910   5.669   4.356   4.715  0.0015  0.2206  0.1804
 6874SOL    HW120911   5.571   4.352   4.737 -0.1020 -0.4107 -0.3825
 6874SOL    HW220912   5.681   4.390   4.622  0.3413  0.6673  0.3829
 6875SOL     OW20913   5.284   3.440   4.148  0.3729  0.2938 -0.9377
 6875SOL    HW120914   5.232   3.495   4.082 -0.8575 -0.1420 -0.3666
 6875SOL    HW220915   5.233   3.434   4.234 -0.0419 -2.4905 -1.2686
 6876SOL     OW20916   4.957   4.332   4.053 -0.2846 -0.2414 -0.1834
 6876SOL    HW120917   4.906   4.339   3.967  0.4323 -0.1610 -0.6072
 6876SOL    HW220918   4.903   4.374   4.127 -0.5664  0.3830 -0.7341
 6877SOL     OW20919   4.734   5.175   5.177 -0.2391  0.1917 -0.3035
 6877SOL    HW120920   4.810   5.163   5.114  0.6414  0.4107  0.6706
 6877SOL    HW220921   4.678   5.253   5.148  0.6508  0.8266 -0.3487
 6878SOL     OW20922   0.235   5.719   3.123 -0.0699  0.1761  0.3476
 6878SOL    HW120923   0.176   5.674   3.056  0.3603 -0.0024  0.0818
 6878SOL    HW220924   0.227   5.673   3.211  0.1540 -0.2521  0.1475
 6879SOL     OW20925   5.432   4.752   3.302 -0.0855  0.0826  0.3317
 6879SOL    HW120926   5.452   4.749   3.204 -1.3850  1.6556 -0.0259
 6879SOL    HW220927   5.447   4.845   3.336 -2.7077  0.3589  0.9079
 6880SOL     OW20928   5.831   4.792   3.020  0.0624 -0.1407 -0.0122
 6880SOL    HW120929   5.871   4.705   3.048  0.7569  0.4284  0.8194
 6880SOL    HW220930   5.853   4.809   2.924 -0.9780 -1.3607 -0.5047
 6881SOL     OW20931   5.818   4.018   4.333  0.2100  0.5767 -0.1904
 6881SOL    HW120932   5.854   4.109   4.315 -0.3067  0.9788  0.7359
 6881SOL    HW220933   5.724   4.012   4.300 -0.0694  0.6922  0.5459
 6882SOL     OW20934   5.755   5.422   0.400 -0.1294 -0.0897  0.3009
 6882SOL    HW120935   5.827   5.365   0.362  0.8080 -0.1546  2.0306
 6882SOL    HW220936   5.697   5.367   0.460 -0.2893  0.4061  0.6065
 6883SOL     OW20937   5.464   5.693   4.714  0.6329 -0.7013  0.1101
 6883SOL    HW120938   5.539   5.718   4.652 -1.1032 -0.2333 -1.9212
 6883SOL    HW220939   5.378   5.728   4.678 -0.6784 -1.6951  2.0828
 6884SOL     OW20940   0.158   5.954   3.906 -0.9160  0.0268 -0.5293
 6884SOL    HW120941   0.147   6.035   3.964 -1.4290 -0.6448  0.3328
 6884SOL    HW220942   0.242   5.963   3.853 -1.3662  1.4779 -1.0359
 6885SOL     OW20943   4.795   0.508   5.780 -0.5642 -0.6524  0.5211
 6885SOL    HW120944   4.791   0.561   5.695 -0.6341 -0.0212  0.9052
 6885SOL    HW220945   4.886   0.469   5.790 -0.7479 -1.2685 -0.1575
 6886SOL     OW20946   0.060   5.506   5.929 -0.4693 -0.0661 -0.1693
 6886SOL    HW120947   0.100   5.505   5.837  0.3197 -0.4000  0.1711
 6886SOL    HW220948   0.017   5.418   5.948  0.0133 -0.2550  0.0568
 6887SOL     OW20949   5.789   4.943   5.425  0.2885 -0.1363 -0.3857
 6887SOL    HW120950   5.694   4.914   5.417  0.2306  0.0382 -0.3257
 6887SOL    HW220951   5.845   4.864   5.451  0.1505 -0.2227 -0.3470
 6888SOL     OW20952   5.037   4.774   3.795 -0.0700  0.2289 -0.1888
 6888SOL    HW120953   5.041   4.749   3.698 -1.5148 -0.9639  0.0309
 6888SOL    HW220954   5.120   4.742   3.840 -0.1739 -0.8136 -0.6923
 6889SOL     OW20955   5.311   3.676   4.602 -0.1137  0.5373 -0.3439
 6889SOL    HW120956   5.233   3.616   4.620  1.3975 -1.5556 -0.4076
 6889SOL    HW220957   5.396   3.625   4.614  1.2881  2.7540 -0.2342
 6890SOL     OW20958   5.841   4.543   5.238  0.4701 -0.0899 -0.2465
 6890SOL    HW120959   5.852   4.642   5.239 -0.2986 -0.0016  0.4571
 6890SOL    HW220960   5.874   4.506   5.151 -0.2809  0.9112 -0.9697
 6891SOL     OW20961   5.354   5.556   3.183  0.5197 -0.9633 -0.5765
 6891SOL    HW120962   5.404   5.506   3.253  2.5067  1.3302 -0.2577
 6891SOL    HW220963   5.416   5.616   3.133 -0.9181 -2.0258 -3.9639
 6892SOL     OW20964   5.666   0.489   3.937  0.7380  0.0951  0.7603
 6892SOL    HW120965   5.603   0.451   3.870 -1.0609  0.5544  2.1004
 6892SOL    HW220966   5.667   0.430   4.018  1.3774  0.5470  1.0898
 6893SOL     OW20967   0.269   5.295  -0.026  0.0727 -0.1239 -0.2409
 6893SOL    HW120968   0.330   5.254   0.041 -1.5032  1.2139  2.1438
 6893SOL    HW220969   0.176   5.261  -0.011 -0.5381  1.1887 -0.9135
 6894SOL     OW20970   5.586   0.034   1.551 -0.0279 -0.1483 -0.3999
 6894SOL    HW120971   5.498   0.002   1.516  0.6308 -3.1772  0.3944
 6894SOL    HW220972   5.570   0.102   1.623 -1.6608  0.0209 -0.8711
 6895SOL     OW20973   0.960   5.586   5.882  0.0266 -0.0376 -0.7616
 6895SOL    HW120974   1.054   5.620   5.887  0.5084 -1.2836 -1.0059
 6895SOL    HW220975   0.937   5.564   5.787 -0.1643 -0.6585 -0.5793
 6896SOL     OW20976   5.991   5.137   5.397 -0.5028 -0.3169 -0.8166
 6896SOL    HW120977   6.008   5.150   5.299 -1.9058 -0.2864 -1.0721
 6896SOL    HW220978   5.929   5.060   5.411 -0.6644 -0.0464  0.0258
 6897SOL     OW20979   0.371   4.158   5.692  0.3515  0.0579  0.1355
 6897SOL    HW120980   0.298   4.091   5.678 -0.1839  1.2590 -4.9554
 6897SOL    HW220981   0.334   4.241   5.734 -0.5773 -0.3394  0.1038
 6898SOL     OW20982   0.440   4.918   0.261 -0.0751 -0.4915  0.2673
 6898SOL    HW120983   0.346   4.884   0.249 -0.1378 -0.1778 -0.1543
 6898SOL    HW220984   0.447   5.011   0.225  0.0157  0.0978  1.7442
 6899SOL     OW20985   4.539   4.247   0.045 -0.1937  0.0218  0.1495
 6899SOL    HW120986   4.602   4.171   0.029 -0.2274  0.1397 -0.5820
 6899SOL    HW220987   4.454   4.212   0.086 -0.5378 -0.4696 -0.9379
 6900SOL     OW20988   4.615   5.110   0.046 -0.3640 -0.6634 -0.1329
 6900SOL    HW120989   4.660   5.161  -0.028  0.0151  0.8189  1.0587
 6900SOL    HW220990   4.519   5.136   0.052 -0.7786 -1.9216 -1.0501
 6901SOL     OW20991   5.911   5.243   0.278 -0.4913  0.8944  0.2177
 6901SOL    HW120992   5.989   5.223   0.337 -0.5382  0.3805  0.1130
 6901SOL    HW220993   5.852   5.162   0.273  1.4371 -0.5295 -3.5008
 6902SOL     OW20994   5.363   5.103   4.398 -0.0191 -0.5785 -0.0602
 6902SOL    HW120995   5.424   5.147   4.463  0.0627 -1.0158  0.1559
 6902SOL    HW220996   5.290   5.055   4.447 -1.3760  1.1015 -0.3188
 6903SOL     OW20997   5.957   0.824   0.647  0.2724 -0.2711 -0.0614
 6903SOL    HW120998   6.051   0.823   0.680  0.8247  0.5070 -1.5413
 6903SOL    HW220999   5.899   0.869   0.715  1.5843  2.3786 -0.5367
 6904SOL     OW21000   5.811   5.920   1.623  0.5991  0.0837  0.1276
 6904SOL    HW121001   5.781   5.839   1.673  0.1895  0.1702  0.0273
 6904SOL    HW221002   5.731   5.970   1.589  0.8612  0.2913 -0.1915
 6905SOL     OW21003   5.943   5.945   5.164  0.2505 -0.3750 -0.3359
 6905SOL    HW121004   5.886   5.919   5.086 -1.1981 -1.8853  1.1626
 6905SOL    HW221005   5.887   5.946   5.247  2.1914 -0.8380  1.0302
 6906SOL     OW21006   0.064   5.094   1.772 -0.3807  0.4093 -0.3798
 6906SOL    HW121007   0.142   5.049   1.817 -0.2260 -0.9814 -1.9258
 6906SOL    HW221008   0.058   5.188   1.803  1.0344  0.1424  0.8697
 6907SOL     OW21009   1.386   5.029   0.660 -0.3410 -0.3874  0.0878
 6907SOL    HW121010   1.350   5.058   0.571 -0.3627 -1.0771 -0.1288
 6907SOL    HW221011   1.486   5.029   0.657 -0.2490 -4.0645 -1.1951
 6908SOL     OW21012   0.937   5.170   1.184  0.2722 -0.3589 -0.0908
 6908SOL    HW121013   0.842   5.173   1.153  0.6249  3.2199 -1.2279
 6908SOL    HW221014   0.990   5.110   1.123 -1.0308 -1.7691  0.0931
 6909SOL     OW21015   5.062   0.415   5.758 -0.0182 -0.0403 -0.1563
 6909SOL    HW121016   5.085   0.501   5.804 -0.7064 -0.5724  1.2165
 6909SOL    HW221017   5.097   0.418   5.664  0.6144  1.4351  0.0929
 6910SOL     OW21018   5.660   0.452   1.553  0.6055 -0.3375  0.0222
 6910SOL    HW121019   5.567   0.476   1.579  0.4234 -1.0897  0.0966
 6910SOL    HW221020   5.673   0.353   1.561  1.1439 -0.3529 -0.8199
 6911SOL     OW21021   4.644   1.054   2.035  0.3266  0.7076 -0.6767
 6911SOL    HW121022   4.597   1.048   2.123  1.7471  2.0053  0.2194
 6911SOL    HW221023   4.583   1.095   1.967 -1.4186 -1.9255 -0.8620
 6912SOL     OW21024   0.081   0.196   4.028  0.3469  0.3987 -0.1261
 6912SOL    HW121025  -0.018   0.200   4.038  0.4034  1.1156  0.2518
 6912SOL    HW221026   0.106   0.220   3.934  0.1366 -0.3862 -0.3889
 6913SOL     OW21027   5.152   5.302   2.771  0.0072  0.2610  0.0293
 6913SOL    HW121028   5.113   5.344   2.853 -1.2173  2.3763 -1.5251
 6913SOL    HW221029   5.186   5.374   2.710  1.1531 -1.2627 -1.1983
 6914SOL     OW21030   5.950   5.792   4.291 -0.0281  0.0783  0.1750
 6914SOL    HW121031   5.949   5.842   4.378  1.5611  0.9321 -0.2763
 6914SOL    HW221032   5.912   5.700   4.306  2.2931 -0.6387  2.3180
 6915SOL     OW21033   4.744   4.946   2.101  0.0652  0.6122  0.9237
 6915SOL    HW121034   4.680   4.953   2.025  0.4750  2.2162  0.6871
 6915SOL    HW221035   4.830   4.908   2.069 -0.0764  0.3889  0.8037
 6916SOL     OW21036   0.978   0.244   2.137  0.6720 -0.4721  0.1580
 6916SOL    HW121037   0.897   0.238   2.079  0.7056 -0.6485  0.1281
 6916SOL    HW221038   0.950   0.252   2.232  0.6062 -2.0107  0.3025
 6917SOL     OW21039   4.413   6.021   2.159  0.1530 -0.0998 -0.7422
 6917SOL    HW121040   4.382   6.004   2.065  0.6659 -0.4034 -0.8585
 6917SOL    HW221041   4.415   5.935   2.210  0.4927 -0.0328 -0.6419
 6918SOL     OW21042   5.780   5.060   1.170  0.0947 -0.5538  0.1344
 6918SOL    HW121043   5.846   5.074   1.096  0.7133  0.4190  0.8509
 6918SOL    HW221044   5.821   5.003   1.241 -0.3802 -1.1994 -0.0931
 6919SOL     OW21045   0.120   0.245   1.083  0.0281 -0.0506 -0.1112
 6919SOL    HW121046   0.211   0.202   1.085 -0.1252 -0.4788 -1.6664
 6919SOL    HW221047   0.050   0.174   1.092 -0.1822  0.1463 -0.2011
 6920SOL     OW21048   0.745   0.266   4.135  0.3556 -0.0422  0.3330
 6920SOL    HW121049   0.727   0.215   4.219 -1.8811  2.6608  1.6543
 6920SOL    HW221050   0.824   0.326   4.149 -0.3396  0.7971  0.7379
 6921SOL     OW21051   5.301   1.445   4.956 -0.0853 -0.3515  0.4645
 6921SOL    HW121052   5.396   1.477   4.960 -0.7690  2.1381 -0.6797
 6921SOL    HW221053   5.244   1.504   5.013 -0.9889 -1.6843  0.9662
 6922SOL     OW21054   5.621   0.781   3.890  0.4506  0.2246  1.0262
 6922SOL    HW121055   5.542   0.748   3.839 -0.6816  2.0179  1.5303
 6922SOL    HW221056   5.652   0.710   3.953 -0.1309 -0.8502  0.1465
 6923SOL     OW21057   5.578   0.385   5.546 -0.1638 -0.4022 -0.7543
 6923SOL    HW121058   5.634   0.304   5.564  0.8133  0.6454  1.1761
 6923SOL    HW221059   5.631   0.450   5.491  0.1963  0.1948  0.2826
 6924SOL     OW21060   5.419   5.745   3.947 -0.2222 -0.5370  0.2900
 6924SOL    HW121061   5.472   5.685   3.888  2.2787  1.1278  0.6657
 6924SOL    HW221062   5.363   5.806   3.891 -1.6691 -2.1770 -0.1232
 6925SOL     OW21063   0.695   0.701   5.397  0.0579 -0.3482  0.0687
 6925SOL    HW121064   0.737   0.766   5.461 -0.0624 -0.2907  0.0887
 6925SOL    HW221065   0.611   0.665   5.437  0.5282 -1.1063  0.3967
 6926SOL     OW21066   0.261   0.314   4.426 -0.0721 -0.0257 -0.0961
 6926SOL    HW121067   0.225   0.236   4.374 -1.1554  1.2386 -1.3560
 6926SOL    HW221068   0.191   0.347   4.490 -0.0257  0.5544 -0.3364
 6927SOL     OW21069   5.569   0.324   4.180  0.0218 -0.3884  0.2843
 6927SOL    HW121070   5.496   0.329   4.113 -1.2731  1.6832  1.7276
 6927SOL    HW221071   5.534   0.287   4.266  1.1914 -1.2470  0.4219
 6928SOL     OW21072   0.221   0.122   3.560  0.4664  0.8578 -0.2316
 6928SOL    HW121073   0.225   0.221   3.574 -1.3125  0.7241  1.5736
 6928SOL    HW221074   0.129   0.096   3.530  0.1042 -0.4685  1.8008
 6929SOL     OW21075   0.249   1.245   5.414  0.1568 -0.2088  0.0543
 6929SOL    HW121076   0.157   1.218   5.443 -0.5832  0.9606 -1.1314
 6929SOL    HW221077   0.317   1.197   5.471 -1.1575 -1.3073  0.7547
 6930SOL     OW21078   0.077   5.219   5.636  0.7159 -0.1300 -0.3311
 6930SOL    HW121079   0.067   5.318   5.651 -3.3260 -0.5627  0.9968
 6930SOL    HW221080   0.053   5.197   5.542 -1.7012 -0.0302  0.1815
 6931SOL     OW21081   0.630   5.335   5.812 -1.1669  0.0927  0.0948
 6931SOL    HW121082   0.620   5.430   5.781  0.4731  1.1195  2.4014
 6931SOL    HW221083   0.696   5.288   5.754 -1.8167  0.4010 -0.9260
 6932SOL     OW21084   0.102   4.864   0.464 -0.2784  0.1328  0.0451
 6932SOL    HW121085   0.004   4.870   0.446  0.1418  1.9513 -2.1817
 6932SOL    HW221086   0.146   4.811   0.392  0.3991 -0.7372  1.0658
 6933SOL     OW21087   5.345   5.702   0.503 -0.3317 -0.5393 -0.4303
 6933SOL    HW121088   5.275   5.630   0.505 -0.1473 -0.8464 -2.5344
 6933SOL    HW221089   5.353   5.738   0.410  1.0557  0.7651  0.1468
 6934CL      CL21090   0.634   3.264   5.965  0.1013 -0.1104  0.0980
 6935CL      CL21091   4.480   5.659   0.021 -0.1407  0.3760  0.2451
   5.99195   5.99195   5.99195
