GRoups of Organic Molecules in ACtion for Science
  384
    1LEU      N    1   3.277   3.416   1.446
    1LEU     H1    2   3.233   3.326   1.454
    1LEU     H2    3   3.213   3.480   1.404
    1LEU     H3    4   3.359   3.408   1.389
    1LEU     CA    5   3.315   3.464   1.579
    1LEU     HA    6   3.379   3.395   1.612
    1LEU     CB    7   3.383   3.602   1.571
    1LEU    HB1    8   3.362   3.652   1.656
    1LEU    HB2    9   3.345   3.651   1.493
    1LEU     CG   10   3.534   3.596   1.555
    1LEU     HG   11   3.556   3.540   1.475
    1LEU    CD1   12   3.589   3.734   1.530
    1LEU   HD11   13   3.688   3.728   1.520
    1LEU   HD12   14   3.549   3.771   1.447
    1LEU   HD13   15   3.567   3.793   1.607
    1LEU    CD2   16   3.600   3.532   1.674
    1LEU   HD21   17   3.699   3.530   1.660
    1LEU   HD22   18   3.579   3.584   1.756
    1LEU   HD23   19   3.566   3.438   1.684
    1LEU      C   20   3.196   3.471   1.675
    1LEU      O   21   3.204   3.421   1.785
    2ILE      N   22   3.085   3.528   1.633
    2ILE      H   23   3.081   3.565   1.541
    2ILE     CA   24   2.965   3.537   1.718
    2ILE     HA   25   2.995   3.584   1.801
    2ILE     CB   26   2.855   3.618   1.647
    2ILE     HB   27   2.841   3.584   1.554
    2ILE    CG2   28   2.724   3.604   1.723
    2ILE   HG21   29   2.653   3.657   1.676
    2ILE   HG22   30   2.697   3.508   1.726
    2ILE   HG23   31   2.735   3.639   1.816
    2ILE    CG1   32   2.896   3.765   1.642
    2ILE   HG11   33   2.978   3.773   1.584
    2ILE   HG12   34   2.918   3.795   1.734
    2ILE     CD   35   2.791   3.857   1.586
    2ILE    HD1   36   2.826   3.951   1.586
    2ILE    HD2   37   2.768   3.829   1.493
    2ILE    HD3   38   2.709   3.852   1.643
    2ILE      C   39   2.914   3.399   1.756
    2ILE      O   40   2.884   3.373   1.872
    3LEU      N   41   2.906   3.310   1.661
    3LEU      H   42   2.932   3.336   1.568
    3LEU     CA   43   2.860   3.174   1.686
    3LEU     HA   44   2.769   3.185   1.726
    3LEU     CB   45   2.855   3.094   1.555
    3LEU    HB1   46   2.900   3.006   1.570
    3LEU    HB2   47   2.904   3.146   1.485
    3LEU     CG   48   2.715   3.067   1.501
    3LEU     HG   49   2.668   3.154   1.490
    3LEU    CD1   50   2.724   3.000   1.366
    3LEU   HD11   51   2.631   2.982   1.332
    3LEU   HD12   52   2.772   3.060   1.302
    3LEU   HD13   53   2.773   2.913   1.375
    3LEU    CD2   54   2.636   2.980   1.598
    3LEU   HD21   55   2.545   2.963   1.560
    3LEU   HD22   56   2.683   2.893   1.611
    3LEU   HD23   57   2.627   3.027   1.686
    3LEU      C   58   2.949   3.102   1.786
    3LEU      O   59   2.901   3.032   1.875
    4LEU      N   60   3.079   3.120   1.772
    4LEU      H   61   3.112   3.179   1.698
    4LEU     CA   62   3.178   3.056   1.860
    4LEU     HA   63   3.159   2.958   1.856
    4LEU     CB   64   3.319   3.088   1.811
    4LEU    HB1   65   3.362   3.149   1.877
    4LEU    HB2   66   3.312   3.134   1.723
    4LEU     CG   67   3.411   2.967   1.793
    4LEU     HG   68   3.365   2.900   1.735
    4LEU    CD1   69   3.538   3.008   1.724
    4LEU   HD11   70   3.597   2.928   1.713
    4LEU   HD12   71   3.516   3.046   1.634
    4LEU   HD13   72   3.585   3.077   1.779
    4LEU    CD2   73   3.442   2.903   1.927
    4LEU   HD21   74   3.503   2.825   1.913
    4LEU   HD22   75   3.488   2.970   1.986
    4LEU   HD23   76   3.357   2.873   1.970
    4LEU      C   77   3.161   3.104   2.003
    4LEU      O   78   3.162   3.026   2.097
    5VAL      N   79   3.145   3.233   2.020
    5VAL      H   80   3.145   3.293   1.940
    5VAL     CA   81   3.129   3.294   2.152
    5VAL     HA   82   3.206   3.262   2.206
    5VAL     CB   83   3.128   3.448   2.142
    5VAL     HB   84   3.056   3.478   2.079
    5VAL    CG1   85   3.100   3.511   2.278
    5VAL   HG11   86   3.100   3.610   2.269
    5VAL   HG12   87   3.011   3.480   2.311
    5VAL   HG13   88   3.171   3.482   2.342
    5VAL    CG2   89   3.261   3.498   2.088
    5VAL   HG21   90   3.260   3.597   2.082
    5VAL   HG22   91   3.334   3.469   2.149
    5VAL   HG23   92   3.277   3.459   1.997
    5VAL      C   93   2.998   3.248   2.215
    5VAL      O   94   2.993   3.219   2.334
    6LEU      N   95   2.895   3.239   2.134
    6LEU      H   96   2.907   3.262   2.038
    6LEU     CA   97   2.763   3.196   2.182
    6LEU     HA   98   2.739   3.257   2.257
    6LEU     CB   99   2.661   3.207   2.067
    6LEU    HB1  100   2.647   3.116   2.029
    6LEU    HB2  101   2.699   3.267   1.997
    6LEU     CG  102   2.526   3.262   2.107
    6LEU     HG  103   2.541   3.340   2.169
    6LEU    CD1  104   2.450   3.312   1.987
    6LEU   HD11  105   2.362   3.348   2.015
    6LEU   HD12  106   2.503   3.384   1.941
    6LEU   HD13  107   2.436   3.236   1.923
    6LEU    CD2  108   2.445   3.156   2.179
    6LEU   HD21  109   2.356   3.194   2.205
    6LEU   HD22  110   2.432   3.078   2.118
    6LEU   HD23  111   2.494   3.126   2.261
    6LEU      C  112   2.768   3.052   2.233
    6LEU      O  113   2.716   3.022   2.339
    7VAL      N  114   2.833   2.966   2.158
    7VAL      H  115   2.874   2.996   2.072
    7VAL     CA  116   2.847   2.826   2.197
    7VAL     HA  117   2.754   2.793   2.211
    7VAL     CB  118   2.919   2.744   2.087
    7VAL     HB  119   3.006   2.789   2.062
    7VAL    CG1  120   2.952   2.605   2.136
    7VAL   HG11  121   2.998   2.554   2.064
    7VAL   HG12  122   3.012   2.611   2.216
    7VAL   HG13  123   2.868   2.558   2.161
    7VAL    CG2  124   2.833   2.737   1.962
    7VAL   HG21  125   2.881   2.684   1.892
    7VAL   HG22  126   2.747   2.693   1.984
    7VAL   HG23  127   2.816   2.830   1.929
    7VAL      C  128   2.926   2.815   2.327
    7VAL      O  129   2.891   2.739   2.416
    8LEU      N  130   3.032   2.894   2.338
    8LEU      H  131   3.055   2.955   2.263
    8LEU     CA  132   3.115   2.893   2.458
    8LEU     HA  133   3.145   2.798   2.471
    8LEU     CB  134   3.236   2.985   2.436
    8LEU    HB1  135   3.206   3.080   2.449
    8LEU    HB2  136   3.269   2.973   2.343
    8LEU     CG  137   3.353   2.959   2.530
    8LEU     HG  138   3.346   2.865   2.564
    8LEU    CD1  139   3.485   2.975   2.458
    8LEU   HD11  140   3.560   2.958   2.522
    8LEU   HD12  141   3.489   2.910   2.383
    8LEU   HD13  142   3.492   3.068   2.422
    8LEU    CD2  143   3.347   3.053   2.649
    8LEU   HD21  144   3.424   3.034   2.710
    8LEU   HD22  145   3.351   3.147   2.617
    8LEU   HD23  146   3.261   3.038   2.699
    8LEU      C  147   3.035   2.937   2.580
    8LEU      O  148   3.048   2.878   2.687
    9ILE      N  149   2.952   3.037   2.564
    9ILE      H  150   2.946   3.081   2.474
    9ILE     CA  151   2.868   3.087   2.673
    9ILE     HA  152   2.932   3.106   2.748
    9ILE     CB  153   2.792   3.214   2.629
    9ILE     HB  154   2.750   3.201   2.540
    9ILE    CG2  155   2.683   3.247   2.731
    9ILE   HG21  156   2.634   3.329   2.702
    9ILE   HG22  157   2.619   3.170   2.736
    9ILE   HG23  158   2.724   3.262   2.820
    9ILE    CG1  159   2.890   3.331   2.622
    9ILE   HG11  160   2.959   3.311   2.552
    9ILE   HG12  161   2.935   3.341   2.711
    9ILE     CD  162   2.825   3.463   2.587
    9ILE    HD1  163   2.895   3.535   2.584
    9ILE    HD2  164   2.781   3.456   2.498
    9ILE    HD3  165   2.757   3.486   2.657
    9ILE      C  166   2.769   2.981   2.716
    9ILE      O  167   2.747   2.959   2.835
   10VAL      N  168   2.708   2.912   2.620
   10VAL      H  169   2.730   2.933   2.525
   10VAL     CA  170   2.611   2.808   2.650
   10VAL     HA  171   2.542   2.853   2.707
   10VAL     CB  172   2.547   2.753   2.520
   10VAL     HB  173   2.619   2.724   2.457
   10VAL    CG1  174   2.461   2.632   2.550
   10VAL   HG11  175   2.421   2.598   2.465
   10VAL   HG12  176   2.517   2.560   2.591
   10VAL   HG13  177   2.388   2.658   2.613
   10VAL    CG2  178   2.465   2.860   2.452
   10VAL   HG21  179   2.425   2.823   2.369
   10VAL   HG22  180   2.392   2.890   2.514
   10VAL   HG23  181   2.524   2.938   2.430
   10VAL      C  182   2.676   2.694   2.725
   10VAL      O  183   2.621   2.642   2.822
   11VAL      N  184   2.796   2.654   2.683
   11VAL      H  185   2.837   2.700   2.604
   11VAL     CA  186   2.870   2.546   2.747
   11VAL     HA  187   2.807   2.468   2.745
   11VAL     CB  188   3.001   2.515   2.672
   11VAL     HB  189   3.053   2.599   2.661
   11VAL    CG1  190   3.085   2.416   2.750
   11VAL   HG11  191   3.170   2.397   2.700
   11VAL   HG12  192   3.108   2.455   2.839
   11VAL   HG13  193   3.034   2.331   2.763
   11VAL    CG2  194   2.969   2.459   2.533
   11VAL   HG21  195   3.055   2.439   2.485
   11VAL   HG22  196   2.916   2.375   2.543
   11VAL   HG23  197   2.917   2.526   2.481
   11VAL      C  198   2.903   2.582   2.891
   11VAL      O  199   2.887   2.500   2.982
   12VAL      N  200   2.947   2.704   2.913
   12VAL      H  201   2.959   2.766   2.836
   12VAL     CA  202   2.981   2.751   3.047
   12VAL     HA  203   3.048   2.684   3.082
   12VAL     CB  204   3.042   2.892   3.043
   12VAL     HB  205   2.980   2.952   2.993
   12VAL    CG1  206   3.060   2.948   3.184
   12VAL   HG11  207   3.099   3.039   3.178
   12VAL   HG12  208   2.971   2.952   3.229
   12VAL   HG13  209   3.121   2.888   3.236
   12VAL    CG2  210   3.176   2.890   2.972
   12VAL   HG21  211   3.214   2.983   2.970
   12VAL   HG22  212   3.238   2.830   3.020
   12VAL   HG23  213   3.163   2.857   2.878
   12VAL      C  214   2.857   2.752   3.135
   12VAL      O  215   2.862   2.712   3.251
   13LEU      N  216   2.747   2.796   3.079
   13LEU      H  217   2.750   2.826   2.983
   13LEU     CA  218   2.620   2.802   3.151
   13LEU     HA  219   2.638   2.856   3.234
   13LEU     CB  220   2.514   2.870   3.064
   13LEU    HB1  221   2.432   2.813   3.063
   13LEU    HB2  222   2.550   2.879   2.972
   13LEU     CG  223   2.476   3.008   3.115
   13LEU     HG  224   2.554   3.049   3.161
   13LEU    CD1  225   2.439   3.099   3.001
   13LEU   HD11  226   2.414   3.189   3.037
   13LEU   HD12  227   2.517   3.108   2.939
   13LEU   HD13  228   2.361   3.060   2.952
   13LEU    CD2  229   2.359   2.997   3.212
   13LEU   HD21  230   2.334   3.088   3.245
   13LEU   HD22  231   2.280   2.956   3.165
   13LEU   HD23  232   2.385   2.940   3.289
   13LEU      C  233   2.572   2.663   3.191
   13LEU      O  234   2.526   2.642   3.302
   14VAL      N  235   2.584   2.569   3.101
   14VAL      H  236   2.622   2.591   3.011
   14VAL     CA  237   2.543   2.431   3.128
   14VAL     HA  238   2.448   2.438   3.160
   14VAL     CB  239   2.552   2.344   3.000
   14VAL     HB  240   2.643   2.353   2.958
   14VAL    CG1  241   2.531   2.197   3.033
   14VAL   HG11  242   2.538   2.143   2.949
   14VAL   HG12  243   2.601   2.167   3.097
   14VAL   HG13  244   2.441   2.185   3.074
   14VAL    CG2  245   2.451   2.390   2.898
   14VAL   HG21  246   2.457   2.333   2.816
   14VAL   HG22  247   2.359   2.382   2.937
   14VAL   HG23  248   2.468   2.486   2.874
   14VAL      C  249   2.630   2.370   3.236
   14VAL      O  250   2.581   2.302   3.326
   15LEU      N  251   2.760   2.395   3.230
   15LEU      H  252   2.795   2.451   3.154
   15LEU     CA  253   2.854   2.345   3.329
   15LEU     HA  254   2.840   2.246   3.331
   15LEU     CB  255   2.998   2.379   3.289
   15LEU    HB1  256   3.054   2.380   3.372
   15LEU    HB2  257   2.998   2.470   3.248
   15LEU     CG  258   3.062   2.283   3.189
   15LEU     HG  259   3.001   2.274   3.110
   15LEU    CD1  260   3.194   2.339   3.143
   15LEU   HD11  261   3.236   2.275   3.078
   15LEU   HD12  262   3.180   2.427   3.099
   15LEU   HD13  263   3.255   2.350   3.222
   15LEU    CD2  264   3.081   2.145   3.250
   15LEU   HD21  265   3.123   2.084   3.182
   15LEU   HD22  266   3.140   2.152   3.330
   15LEU   HD23  267   2.992   2.108   3.277
   15LEU      C  268   2.824   2.403   3.466
   15LEU      O  269   2.830   2.334   3.567
   16LEU      N  270   2.791   2.531   3.468
   16LEU      H  271   2.789   2.582   3.382
   16LEU     CA  272   2.759   2.600   3.593
   16LEU     HA  273   2.834   2.584   3.657
   16LEU     CB  274   2.743   2.751   3.564
   16LEU    HB1  275   2.648   2.768   3.537
   16LEU    HB2  276   2.804   2.774   3.487
   16LEU     CG  277   2.777   2.843   3.680
   16LEU     HG  278   2.849   2.801   3.735
   16LEU    CD1  279   2.828   2.975   3.629
   16LEU   HD11  280   2.850   3.035   3.707
   16LEU   HD12  281   2.911   2.960   3.575
   16LEU   HD13  282   2.758   3.019   3.572
   16LEU    CD2  283   2.653   2.865   3.766
   16LEU   HD21  284   2.677   2.926   3.842
   16LEU   HD22  285   2.581   2.907   3.711
   16LEU   HD23  286   2.622   2.778   3.802
   16LEU      C  287   2.631   2.544   3.653
   16LEU      O  288   2.621   2.524   3.773
   17LEU      N  289   2.535   2.517   3.569
   17LEU      H  290   2.550   2.535   3.471
   17LEU     CA  291   2.407   2.460   3.612
   17LEU     HA  292   2.370   2.521   3.682
   17LEU     CB  293   2.311   2.453   3.491
   17LEU    HB1  294   2.332   2.370   3.440
   17LEU    HB2  295   2.328   2.534   3.434
   17LEU     CG  296   2.164   2.450   3.524
   17LEU     HG  297   2.149   2.507   3.605
   17LEU    CD1  298   2.082   2.507   3.411
   17LEU   HD11  299   1.985   2.504   3.435
   17LEU   HD12  300   2.110   2.602   3.395
   17LEU   HD13  301   2.098   2.453   3.329
   17LEU    CD2  302   2.119   2.308   3.554
   17LEU   HD21  303   2.021   2.308   3.576
   17LEU   HD22  304   2.136   2.251   3.474
   17LEU   HD23  305   2.171   2.272   3.632
   17LEU      C  306   2.427   2.321   3.670
   17LEU      O  307   2.370   2.287   3.772
   18LEU      N  308   2.511   2.243   3.607
   18LEU      H  309   2.555   2.276   3.524
   18LEU     CA  310   2.543   2.108   3.654
   18LEU     HA  311   2.455   2.062   3.663
   18LEU     CB  312   2.633   2.036   3.553
   18LEU    HB1  313   2.687   1.968   3.602
   18LEU    HB2  314   2.694   2.104   3.512
   18LEU     CG  315   2.560   1.964   3.441
   18LEU     HG  316   2.500   2.031   3.396
   18LEU    CD1  317   2.660   1.912   3.340
   18LEU   HD11  318   2.611   1.865   3.266
   18LEU   HD12  319   2.712   1.988   3.301
   18LEU   HD13  320   2.722   1.848   3.384
   18LEU    CD2  321   2.475   1.850   3.494
   18LEU   HD21  322   2.429   1.805   3.418
   18LEU   HD22  323   2.534   1.784   3.541
   18LEU   HD23  324   2.407   1.886   3.558
   18LEU      C  325   2.613   2.113   3.789
   18LEU      O  326   2.592   2.028   3.875
   19LEU      N  327   2.697   2.213   3.808
   19LEU      H  328   2.711   2.280   3.734
   19LEU     CA  329   2.771   2.230   3.933
   19LEU     HA  330   2.815   2.142   3.951
   19LEU     CB  331   2.874   2.343   3.918
   19LEU    HB1  332   2.830   2.429   3.944
   19LEU    HB2  333   2.901   2.347   3.822
   19LEU     CG  334   3.000   2.328   4.001
   19LEU     HG  335   3.029   2.233   4.001
   19LEU    CD1  336   3.112   2.410   3.942
   19LEU   HD11  337   3.194   2.400   3.998
   19LEU   HD12  338   3.130   2.378   3.849
   19LEU   HD13  339   3.085   2.506   3.940
   19LEU    CD2  340   2.975   2.370   4.145
   19LEU   HD21  341   3.059   2.360   4.198
   19LEU   HD22  342   2.945   2.465   4.147
   19LEU   HD23  343   2.903   2.312   4.184
   19LEU      C  344   2.675   2.263   4.048
   19LEU      O  345   2.691   2.213   4.159
   20ILE      N  346   2.574   2.344   4.019
   20ILE      H  347   2.565   2.379   3.926
   20ILE     CA  348   2.475   2.383   4.120
   20ILE     HA  349   2.528   2.408   4.201
   20ILE     CB  350   2.389   2.501   4.068
   20ILE     HB  351   2.357   2.483   3.974
   20ILE    CG2  352   2.267   2.520   4.156
   20ILE   HG21  353   2.212   2.596   4.122
   20ILE   HG22  354   2.212   2.436   4.156
   20ILE   HG23  355   2.296   2.540   4.250
   20ILE    CG1  356   2.473   2.627   4.068
   20ILE   HG11  357   2.548   2.616   4.002
   20ILE   HG12  358   2.510   2.641   4.159
   20ILE     CD  359   2.396   2.752   4.029
   20ILE    HD1  360   2.457   2.831   4.031
   20ILE    HD2  361   2.358   2.741   3.937
   20ILE    HD3  362   2.321   2.766   4.094
   20ILE      C  363   2.383   2.267   4.153
   20ILE      O  364   2.347   2.247   4.269
   21LEU      N  365   2.346   2.191   4.053
   21LEU      H  366   2.378   2.213   3.961
   21LEU     CA  367   2.260   2.075   4.072
   21LEU     HA  368   2.180   2.110   4.121
   21LEU     CB  369   2.219   2.015   3.936
   21LEU    HB1  370   2.204   1.917   3.949
   21LEU    HB2  371   2.294   2.029   3.872
   21LEU     CG  372   2.093   2.071   3.870
   21LEU     HG  373   2.106   2.168   3.852
   21LEU    CD1  374   2.069   2.003   3.739
   21LEU   HD11  375   1.987   2.041   3.697
   21LEU   HD12  376   2.147   2.019   3.679
   21LEU   HD13  377   2.057   1.905   3.754
   21LEU    CD2  378   1.974   2.053   3.962
   21LEU   HD21  379   1.892   2.090   3.917
   21LEU   HD22  380   1.960   1.956   3.980
   21LEU   HD23  381   1.990   2.102   4.047
   21LEU      C  382   2.330   1.967   4.153
   21LEU    OC1  383   2.426   1.945   4.135
   21LEU    OC2  384   2.268   1.908   4.241
   5.59418   5.59418   5.59418
