Protein in water
17150
    1LEU      N    1   3.277   3.416   1.446
    1LEU     H1    2   3.233   3.326   1.454
    1LEU     H2    3   3.213   3.480   1.404
    1LEU     H3    4   3.359   3.408   1.389
    1LEU     CA    5   3.315   3.464   1.579
    1LEU     HA    6   3.379   3.395   1.612
    1LEU     CB    7   3.383   3.602   1.571
    1LEU    HB1    8   3.362   3.652   1.656
    1LEU    HB2    9   3.345   3.651   1.493
    1LEU     CG   10   3.534   3.596   1.555
    1LEU     HG   11   3.556   3.540   1.475
    1LEU    CD1   12   3.589   3.734   1.530
    1LEU   HD11   13   3.688   3.728   1.520
    1LEU   HD12   14   3.549   3.771   1.447
    1LEU   HD13   15   3.567   3.793   1.607
    1LEU    CD2   16   3.600   3.532   1.674
    1LEU   HD21   17   3.699   3.530   1.660
    1LEU   HD22   18   3.579   3.584   1.756
    1LEU   HD23   19   3.566   3.438   1.684
    1LEU      C   20   3.196   3.471   1.675
    1LEU      O   21   3.204   3.421   1.785
    2ILE      N   22   3.085   3.528   1.633
    2ILE      H   23   3.081   3.565   1.541
    2ILE     CA   24   2.965   3.537   1.718
    2ILE     HA   25   2.995   3.584   1.801
    2ILE     CB   26   2.855   3.618   1.647
    2ILE     HB   27   2.841   3.584   1.554
    2ILE    CG2   28   2.724   3.604   1.723
    2ILE   HG21   29   2.653   3.657   1.676
    2ILE   HG22   30   2.697   3.508   1.726
    2ILE   HG23   31   2.735   3.639   1.816
    2ILE    CG1   32   2.896   3.765   1.642
    2ILE   HG11   33   2.978   3.773   1.584
    2ILE   HG12   34   2.918   3.795   1.734
    2ILE     CD   35   2.791   3.857   1.586
    2ILE    HD1   36   2.826   3.951   1.586
    2ILE    HD2   37   2.768   3.829   1.493
    2ILE    HD3   38   2.709   3.852   1.643
    2ILE      C   39   2.914   3.399   1.756
    2ILE      O   40   2.884   3.373   1.872
    3LEU      N   41   2.906   3.310   1.661
    3LEU      H   42   2.932   3.336   1.568
    3LEU     CA   43   2.860   3.174   1.686
    3LEU     HA   44   2.769   3.185   1.726
    3LEU     CB   45   2.855   3.094   1.555
    3LEU    HB1   46   2.900   3.006   1.570
    3LEU    HB2   47   2.904   3.146   1.485
    3LEU     CG   48   2.715   3.067   1.501
    3LEU     HG   49   2.668   3.154   1.490
    3LEU    CD1   50   2.724   3.000   1.366
    3LEU   HD11   51   2.631   2.982   1.332
    3LEU   HD12   52   2.772   3.060   1.302
    3LEU   HD13   53   2.773   2.913   1.375
    3LEU    CD2   54   2.636   2.980   1.598
    3LEU   HD21   55   2.545   2.963   1.560
    3LEU   HD22   56   2.683   2.893   1.611
    3LEU   HD23   57   2.627   3.027   1.686
    3LEU      C   58   2.949   3.102   1.786
    3LEU      O   59   2.901   3.032   1.875
    4LEU      N   60   3.079   3.120   1.772
    4LEU      H   61   3.112   3.179   1.698
    4LEU     CA   62   3.178   3.056   1.860
    4LEU     HA   63   3.159   2.958   1.856
    4LEU     CB   64   3.319   3.088   1.811
    4LEU    HB1   65   3.362   3.149   1.877
    4LEU    HB2   66   3.312   3.134   1.723
    4LEU     CG   67   3.411   2.967   1.793
    4LEU     HG   68   3.365   2.900   1.735
    4LEU    CD1   69   3.538   3.008   1.724
    4LEU   HD11   70   3.597   2.928   1.713
    4LEU   HD12   71   3.516   3.046   1.634
    4LEU   HD13   72   3.585   3.077   1.779
    4LEU    CD2   73   3.442   2.903   1.927
    4LEU   HD21   74   3.503   2.825   1.913
    4LEU   HD22   75   3.488   2.970   1.986
    4LEU   HD23   76   3.357   2.873   1.970
    4LEU      C   77   3.161   3.104   2.003
    4LEU      O   78   3.162   3.026   2.097
    5VAL      N   79   3.145   3.233   2.020
    5VAL      H   80   3.145   3.293   1.940
    5VAL     CA   81   3.129   3.294   2.152
    5VAL     HA   82   3.206   3.262   2.206
    5VAL     CB   83   3.128   3.448   2.142
    5VAL     HB   84   3.056   3.478   2.079
    5VAL    CG1   85   3.100   3.511   2.278
    5VAL   HG11   86   3.100   3.610   2.269
    5VAL   HG12   87   3.011   3.480   2.311
    5VAL   HG13   88   3.171   3.482   2.342
    5VAL    CG2   89   3.261   3.498   2.088
    5VAL   HG21   90   3.260   3.597   2.082
    5VAL   HG22   91   3.334   3.469   2.149
    5VAL   HG23   92   3.277   3.459   1.997
    5VAL      C   93   2.998   3.248   2.215
    5VAL      O   94   2.993   3.219   2.334
    6LEU      N   95   2.895   3.239   2.134
    6LEU      H   96   2.907   3.262   2.038
    6LEU     CA   97   2.763   3.196   2.182
    6LEU     HA   98   2.739   3.257   2.257
    6LEU     CB   99   2.661   3.207   2.067
    6LEU    HB1  100   2.647   3.116   2.029
    6LEU    HB2  101   2.699   3.267   1.997
    6LEU     CG  102   2.526   3.262   2.107
    6LEU     HG  103   2.541   3.340   2.169
    6LEU    CD1  104   2.450   3.312   1.987
    6LEU   HD11  105   2.362   3.348   2.015
    6LEU   HD12  106   2.503   3.384   1.941
    6LEU   HD13  107   2.436   3.236   1.923
    6LEU    CD2  108   2.445   3.156   2.179
    6LEU   HD21  109   2.356   3.194   2.205
    6LEU   HD22  110   2.432   3.078   2.118
    6LEU   HD23  111   2.494   3.126   2.261
    6LEU      C  112   2.768   3.052   2.233
    6LEU      O  113   2.716   3.022   2.339
    7VAL      N  114   2.833   2.966   2.158
    7VAL      H  115   2.874   2.996   2.072
    7VAL     CA  116   2.847   2.826   2.197
    7VAL     HA  117   2.754   2.793   2.211
    7VAL     CB  118   2.919   2.744   2.087
    7VAL     HB  119   3.006   2.789   2.062
    7VAL    CG1  120   2.952   2.605   2.136
    7VAL   HG11  121   2.998   2.554   2.064
    7VAL   HG12  122   3.012   2.611   2.216
    7VAL   HG13  123   2.868   2.558   2.161
    7VAL    CG2  124   2.833   2.737   1.962
    7VAL   HG21  125   2.881   2.684   1.892
    7VAL   HG22  126   2.747   2.693   1.984
    7VAL   HG23  127   2.816   2.830   1.929
    7VAL      C  128   2.926   2.815   2.327
    7VAL      O  129   2.891   2.739   2.416
    8LEU      N  130   3.032   2.894   2.338
    8LEU      H  131   3.055   2.955   2.263
    8LEU     CA  132   3.115   2.893   2.458
    8LEU     HA  133   3.145   2.798   2.471
    8LEU     CB  134   3.236   2.985   2.436
    8LEU    HB1  135   3.206   3.080   2.449
    8LEU    HB2  136   3.269   2.973   2.343
    8LEU     CG  137   3.353   2.959   2.530
    8LEU     HG  138   3.346   2.865   2.564
    8LEU    CD1  139   3.485   2.975   2.458
    8LEU   HD11  140   3.560   2.958   2.522
    8LEU   HD12  141   3.489   2.910   2.383
    8LEU   HD13  142   3.492   3.068   2.422
    8LEU    CD2  143   3.347   3.053   2.649
    8LEU   HD21  144   3.424   3.034   2.710
    8LEU   HD22  145   3.351   3.147   2.617
    8LEU   HD23  146   3.261   3.038   2.699
    8LEU      C  147   3.035   2.937   2.580
    8LEU      O  148   3.048   2.878   2.687
    9ILE      N  149   2.952   3.037   2.564
    9ILE      H  150   2.946   3.081   2.474
    9ILE     CA  151   2.868   3.087   2.673
    9ILE     HA  152   2.932   3.106   2.748
    9ILE     CB  153   2.792   3.214   2.629
    9ILE     HB  154   2.750   3.201   2.540
    9ILE    CG2  155   2.683   3.247   2.731
    9ILE   HG21  156   2.634   3.329   2.702
    9ILE   HG22  157   2.619   3.170   2.736
    9ILE   HG23  158   2.724   3.262   2.820
    9ILE    CG1  159   2.890   3.331   2.622
    9ILE   HG11  160   2.959   3.311   2.552
    9ILE   HG12  161   2.935   3.341   2.711
    9ILE     CD  162   2.825   3.463   2.587
    9ILE    HD1  163   2.895   3.535   2.584
    9ILE    HD2  164   2.781   3.456   2.498
    9ILE    HD3  165   2.757   3.486   2.657
    9ILE      C  166   2.769   2.981   2.716
    9ILE      O  167   2.747   2.959   2.835
   10VAL      N  168   2.708   2.912   2.620
   10VAL      H  169   2.730   2.933   2.525
   10VAL     CA  170   2.611   2.808   2.650
   10VAL     HA  171   2.542   2.853   2.707
   10VAL     CB  172   2.547   2.753   2.520
   10VAL     HB  173   2.619   2.724   2.457
   10VAL    CG1  174   2.461   2.632   2.550
   10VAL   HG11  175   2.421   2.598   2.465
   10VAL   HG12  176   2.517   2.560   2.591
   10VAL   HG13  177   2.388   2.658   2.613
   10VAL    CG2  178   2.465   2.860   2.452
   10VAL   HG21  179   2.425   2.823   2.369
   10VAL   HG22  180   2.392   2.890   2.514
   10VAL   HG23  181   2.524   2.938   2.430
   10VAL      C  182   2.676   2.694   2.725
   10VAL      O  183   2.621   2.642   2.822
   11VAL      N  184   2.796   2.654   2.683
   11VAL      H  185   2.837   2.700   2.604
   11VAL     CA  186   2.870   2.546   2.747
   11VAL     HA  187   2.807   2.468   2.745
   11VAL     CB  188   3.001   2.515   2.672
   11VAL     HB  189   3.053   2.599   2.661
   11VAL    CG1  190   3.085   2.416   2.750
   11VAL   HG11  191   3.170   2.397   2.700
   11VAL   HG12  192   3.108   2.455   2.839
   11VAL   HG13  193   3.034   2.331   2.763
   11VAL    CG2  194   2.969   2.459   2.533
   11VAL   HG21  195   3.055   2.439   2.485
   11VAL   HG22  196   2.916   2.375   2.543
   11VAL   HG23  197   2.917   2.526   2.481
   11VAL      C  198   2.903   2.582   2.891
   11VAL      O  199   2.887   2.500   2.982
   12VAL      N  200   2.947   2.704   2.913
   12VAL      H  201   2.959   2.766   2.836
   12VAL     CA  202   2.981   2.751   3.047
   12VAL     HA  203   3.048   2.684   3.082
   12VAL     CB  204   3.042   2.892   3.043
   12VAL     HB  205   2.980   2.952   2.993
   12VAL    CG1  206   3.060   2.948   3.184
   12VAL   HG11  207   3.099   3.039   3.178
   12VAL   HG12  208   2.971   2.952   3.229
   12VAL   HG13  209   3.121   2.888   3.236
   12VAL    CG2  210   3.176   2.890   2.972
   12VAL   HG21  211   3.214   2.983   2.970
   12VAL   HG22  212   3.238   2.830   3.020
   12VAL   HG23  213   3.163   2.857   2.878
   12VAL      C  214   2.857   2.752   3.135
   12VAL      O  215   2.862   2.712   3.251
   13LEU      N  216   2.747   2.796   3.079
   13LEU      H  217   2.750   2.826   2.983
   13LEU     CA  218   2.620   2.802   3.151
   13LEU     HA  219   2.638   2.856   3.234
   13LEU     CB  220   2.514   2.870   3.064
   13LEU    HB1  221   2.432   2.813   3.063
   13LEU    HB2  222   2.550   2.879   2.972
   13LEU     CG  223   2.476   3.008   3.115
   13LEU     HG  224   2.554   3.049   3.161
   13LEU    CD1  225   2.439   3.099   3.001
   13LEU   HD11  226   2.414   3.189   3.037
   13LEU   HD12  227   2.517   3.108   2.939
   13LEU   HD13  228   2.361   3.060   2.952
   13LEU    CD2  229   2.359   2.997   3.212
   13LEU   HD21  230   2.334   3.088   3.245
   13LEU   HD22  231   2.280   2.956   3.165
   13LEU   HD23  232   2.385   2.940   3.289
   13LEU      C  233   2.572   2.663   3.191
   13LEU      O  234   2.526   2.642   3.302
   14VAL      N  235   2.584   2.569   3.101
   14VAL      H  236   2.622   2.591   3.011
   14VAL     CA  237   2.543   2.431   3.128
   14VAL     HA  238   2.448   2.438   3.160
   14VAL     CB  239   2.552   2.344   3.000
   14VAL     HB  240   2.643   2.353   2.958
   14VAL    CG1  241   2.531   2.197   3.033
   14VAL   HG11  242   2.538   2.143   2.949
   14VAL   HG12  243   2.601   2.167   3.097
   14VAL   HG13  244   2.441   2.185   3.074
   14VAL    CG2  245   2.451   2.390   2.898
   14VAL   HG21  246   2.457   2.333   2.816
   14VAL   HG22  247   2.359   2.382   2.937
   14VAL   HG23  248   2.468   2.486   2.874
   14VAL      C  249   2.630   2.370   3.236
   14VAL      O  250   2.581   2.302   3.326
   15LEU      N  251   2.760   2.395   3.230
   15LEU      H  252   2.795   2.451   3.154
   15LEU     CA  253   2.854   2.345   3.329
   15LEU     HA  254   2.840   2.246   3.331
   15LEU     CB  255   2.998   2.379   3.289
   15LEU    HB1  256   3.054   2.380   3.372
   15LEU    HB2  257   2.998   2.470   3.248
   15LEU     CG  258   3.062   2.283   3.189
   15LEU     HG  259   3.001   2.274   3.110
   15LEU    CD1  260   3.194   2.339   3.143
   15LEU   HD11  261   3.236   2.275   3.078
   15LEU   HD12  262   3.180   2.427   3.099
   15LEU   HD13  263   3.255   2.350   3.222
   15LEU    CD2  264   3.081   2.145   3.250
   15LEU   HD21  265   3.123   2.084   3.182
   15LEU   HD22  266   3.140   2.152   3.330
   15LEU   HD23  267   2.992   2.108   3.277
   15LEU      C  268   2.824   2.403   3.466
   15LEU      O  269   2.830   2.334   3.567
   16LEU      N  270   2.791   2.531   3.468
   16LEU      H  271   2.789   2.582   3.382
   16LEU     CA  272   2.759   2.600   3.593
   16LEU     HA  273   2.834   2.584   3.657
   16LEU     CB  274   2.743   2.751   3.564
   16LEU    HB1  275   2.648   2.768   3.537
   16LEU    HB2  276   2.804   2.774   3.487
   16LEU     CG  277   2.777   2.843   3.680
   16LEU     HG  278   2.849   2.801   3.735
   16LEU    CD1  279   2.828   2.975   3.629
   16LEU   HD11  280   2.850   3.035   3.707
   16LEU   HD12  281   2.911   2.960   3.575
   16LEU   HD13  282   2.758   3.019   3.572
   16LEU    CD2  283   2.653   2.865   3.766
   16LEU   HD21  284   2.677   2.926   3.842
   16LEU   HD22  285   2.581   2.907   3.711
   16LEU   HD23  286   2.622   2.778   3.802
   16LEU      C  287   2.631   2.544   3.653
   16LEU      O  288   2.621   2.524   3.773
   17LEU      N  289   2.535   2.517   3.569
   17LEU      H  290   2.550   2.535   3.471
   17LEU     CA  291   2.407   2.460   3.612
   17LEU     HA  292   2.370   2.521   3.682
   17LEU     CB  293   2.311   2.453   3.491
   17LEU    HB1  294   2.332   2.370   3.440
   17LEU    HB2  295   2.328   2.534   3.434
   17LEU     CG  296   2.164   2.450   3.524
   17LEU     HG  297   2.149   2.507   3.605
   17LEU    CD1  298   2.082   2.507   3.411
   17LEU   HD11  299   1.985   2.504   3.435
   17LEU   HD12  300   2.110   2.602   3.395
   17LEU   HD13  301   2.098   2.453   3.329
   17LEU    CD2  302   2.119   2.308   3.554
   17LEU   HD21  303   2.021   2.308   3.576
   17LEU   HD22  304   2.136   2.251   3.474
   17LEU   HD23  305   2.171   2.272   3.632
   17LEU      C  306   2.427   2.321   3.670
   17LEU      O  307   2.370   2.287   3.772
   18LEU      N  308   2.511   2.243   3.607
   18LEU      H  309   2.555   2.276   3.524
   18LEU     CA  310   2.543   2.108   3.654
   18LEU     HA  311   2.455   2.062   3.663
   18LEU     CB  312   2.633   2.036   3.553
   18LEU    HB1  313   2.687   1.968   3.602
   18LEU    HB2  314   2.694   2.104   3.512
   18LEU     CG  315   2.560   1.964   3.441
   18LEU     HG  316   2.500   2.031   3.396
   18LEU    CD1  317   2.660   1.912   3.340
   18LEU   HD11  318   2.611   1.865   3.266
   18LEU   HD12  319   2.712   1.988   3.301
   18LEU   HD13  320   2.722   1.848   3.384
   18LEU    CD2  321   2.475   1.850   3.494
   18LEU   HD21  322   2.429   1.805   3.418
   18LEU   HD22  323   2.534   1.784   3.541
   18LEU   HD23  324   2.407   1.886   3.558
   18LEU      C  325   2.613   2.113   3.789
   18LEU      O  326   2.592   2.028   3.875
   19LEU      N  327   2.697   2.213   3.808
   19LEU      H  328   2.711   2.280   3.734
   19LEU     CA  329   2.771   2.230   3.933
   19LEU     HA  330   2.815   2.142   3.951
   19LEU     CB  331   2.874   2.343   3.918
   19LEU    HB1  332   2.830   2.429   3.944
   19LEU    HB2  333   2.901   2.347   3.822
   19LEU     CG  334   3.000   2.328   4.001
   19LEU     HG  335   3.029   2.233   4.001
   19LEU    CD1  336   3.112   2.410   3.942
   19LEU   HD11  337   3.194   2.400   3.998
   19LEU   HD12  338   3.130   2.378   3.849
   19LEU   HD13  339   3.085   2.506   3.940
   19LEU    CD2  340   2.975   2.370   4.145
   19LEU   HD21  341   3.059   2.360   4.198
   19LEU   HD22  342   2.945   2.465   4.147
   19LEU   HD23  343   2.903   2.312   4.184
   19LEU      C  344   2.675   2.263   4.048
   19LEU      O  345   2.691   2.213   4.159
   20ILE      N  346   2.574   2.344   4.019
   20ILE      H  347   2.565   2.379   3.926
   20ILE     CA  348   2.475   2.383   4.120
   20ILE     HA  349   2.528   2.408   4.201
   20ILE     CB  350   2.389   2.501   4.068
   20ILE     HB  351   2.357   2.483   3.974
   20ILE    CG2  352   2.267   2.520   4.156
   20ILE   HG21  353   2.212   2.596   4.122
   20ILE   HG22  354   2.212   2.436   4.156
   20ILE   HG23  355   2.296   2.540   4.250
   20ILE    CG1  356   2.473   2.627   4.068
   20ILE   HG11  357   2.548   2.616   4.002
   20ILE   HG12  358   2.510   2.641   4.159
   20ILE     CD  359   2.396   2.752   4.029
   20ILE    HD1  360   2.457   2.831   4.031
   20ILE    HD2  361   2.358   2.741   3.937
   20ILE    HD3  362   2.321   2.766   4.094
   20ILE      C  363   2.383   2.267   4.153
   20ILE      O  364   2.347   2.247   4.269
   21LEU      N  365   2.346   2.191   4.053
   21LEU      H  366   2.378   2.213   3.961
   21LEU     CA  367   2.260   2.075   4.072
   21LEU     HA  368   2.180   2.110   4.121
   21LEU     CB  369   2.219   2.015   3.936
   21LEU    HB1  370   2.204   1.917   3.949
   21LEU    HB2  371   2.294   2.029   3.872
   21LEU     CG  372   2.093   2.071   3.870
   21LEU     HG  373   2.106   2.168   3.852
   21LEU    CD1  374   2.069   2.003   3.739
   21LEU   HD11  375   1.987   2.041   3.697
   21LEU   HD12  376   2.147   2.019   3.679
   21LEU   HD13  377   2.057   1.905   3.754
   21LEU    CD2  378   1.974   2.053   3.962
   21LEU   HD21  379   1.892   2.090   3.917
   21LEU   HD22  380   1.960   1.956   3.980
   21LEU   HD23  381   1.990   2.102   4.047
   21LEU      C  382   2.330   1.967   4.153
   21LEU    OC1  383   2.426   1.945   4.135
   21LEU    OC2  384   2.268   1.908   4.241
   22SOL     OW  385   0.230   0.628   0.113
   22SOL    HW1  386   0.137   0.626   0.150
   22SOL    HW2  387   0.231   0.589   0.021
   23SOL     OW  388   0.225   0.275   0.996
   23SOL    HW1  389   0.260   0.258   1.088
   23SOL    HW2  390   0.137   0.230   0.984
   24SOL     OW  391   0.019   0.368   0.647
   24SOL    HW1  392  -0.063   0.411   0.686
   24SOL    HW2  393  -0.009   0.295   0.584
   25SOL     OW  394   0.569   1.275   1.165
   25SOL    HW1  395   0.476   1.268   1.128
   25SOL    HW2  396   0.580   1.364   1.209
   26SOL     OW  397   1.555   1.511   0.703
   26SOL    HW1  398   1.498   1.495   0.784
   26SOL    HW2  399   1.496   1.521   0.623
   27SOL     OW  400   1.135   0.703   0.717
   27SOL    HW1  401   1.192   0.781   0.692
   27SOL    HW2  402   1.075   0.729   0.793
   28SOL     OW  403   1.755   0.607   0.231
   28SOL    HW1  404   1.743   0.594   0.132
   28SOL    HW2  405   1.725   0.526   0.280
   29SOL     OW  406   0.768   1.144   1.023
   29SOL    HW1  407   0.690   1.161   1.083
   29SOL    HW2  408   0.802   1.231   0.987
   30SOL     OW  409   0.850   0.798   1.823
   30SOL    HW1  410   0.846   0.874   1.888
   30SOL    HW2  411   0.872   0.834   1.732
   31SOL     OW  412   0.685   1.012   0.665
   31SOL    HW1  413   0.754   0.996   0.735
   31SOL    HW2  414   0.612   1.069   0.703
   32SOL     OW  415   0.686   1.161   1.803
   32SOL    HW1  416   0.746   1.240   1.817
   32SOL    HW2  417   0.600   1.192   1.762
   33SOL     OW  418   0.335   1.435   1.061
   33SOL    HW1  419   0.257   1.404   1.008
   33SOL    HW2  420   0.393   1.493   1.004
   34SOL     OW  421   1.460   1.505   1.339
   34SOL    HW1  422   1.484   1.599   1.365
   34SOL    HW2  423   1.444   1.451   1.421
   35SOL     OW  424   0.438   0.392   1.499
   35SOL    HW1  425   0.520   0.336   1.508
   35SOL    HW2  426   0.357   0.334   1.503
   36SOL     OW  427   1.603   0.447   0.737
   36SOL    HW1  428   1.529   0.493   0.687
   36SOL    HW2  429   1.654   0.515   0.790
   37SOL     OW  430   0.231   1.713   0.483
   37SOL    HW1  431   0.265   1.790   0.537
   37SOL    HW2  432   0.275   1.713   0.393
   38SOL     OW  433   1.127   1.341   1.690
   38SOL    HW1  434   1.174   1.341   1.778
   38SOL    HW2  435   1.079   1.254   1.679
   39SOL     OW  436   0.230   1.434   0.538
   39SOL    HW1  437   0.204   1.530   0.538
   39SOL    HW2  438   0.159   1.380   0.583
   40SOL     OW  439   0.240   1.091   0.886
   40SOL    HW1  440   0.254   1.007   0.938
   40SOL    HW2  441   0.185   1.155   0.941
   41SOL     OW  442   0.620   1.786   1.439
   41SOL    HW1  443   0.528   1.769   1.474
   41SOL    HW2  444   0.648   1.878   1.465
   42SOL     OW  445   0.606   0.964   0.123
   42SOL    HW1  446   0.613   1.048   0.069
   42SOL    HW2  447   0.652   0.977   0.211
   43SOL     OW  448   1.594   0.114   1.480
   43SOL    HW1  449   1.576   0.181   1.408
   43SOL    HW2  450   1.591   0.160   1.569
   44SOL     OW  451   0.122   0.643   0.563
   44SOL    HW1  452   0.077   0.555   0.580
   44SOL    HW2  453   0.121   0.697   0.647
   45SOL     OW  454   1.842   1.767   0.359
   45SOL    HW1  455   1.896   1.738   0.439
   45SOL    HW2  456   1.872   1.857   0.330
   46SOL     OW  457   0.027   1.596   0.117
   46SOL    HW1  458   0.008   1.500   0.138
   46SOL    HW2  459  -0.006   1.654   0.192
   47SOL     OW  460   1.689   0.922   0.612
   47SOL    HW1  461   1.784   0.893   0.620
   47SOL    HW2  462   1.681   0.987   0.537
   48SOL     OW  463   1.641   1.108   0.432
   48SOL    HW1  464   1.727   1.110   0.380
   48SOL    HW2  465   1.655   1.155   0.520
   49SOL     OW  466   0.113   0.737   1.597
   49SOL    HW1  467   0.201   0.724   1.642
   49SOL    HW2  468   0.100   0.834   1.575
   50SOL     OW  469   0.613   1.365   0.726
   50SOL    HW1  470   0.564   1.278   0.735
   50SOL    HW2  471   0.590   1.408   0.639
   51SOL     OW  472   1.293   1.228   1.423
   51SOL    HW1  473   1.330   1.155   1.365
   51SOL    HW2  474   1.345   1.233   1.508
   52SOL     OW  475   0.809   0.004   0.502
   52SOL    HW1  476   0.849   0.095   0.493
   52SOL    HW2  477   0.709   0.012   0.508
   53SOL     OW  478   0.197   0.976   1.264
   53SOL    HW1  479   0.286   0.931   1.250
   53SOL    HW2  480   0.124   0.911   1.245
   54SOL     OW  481   1.525   0.999   0.190
   54SOL    HW1  482   1.462   0.923   0.203
   54SOL    HW2  483   1.573   1.017   0.276
   55SOL     OW  484   1.187   1.792   1.616
   55SOL    HW1  485   1.211   1.852   1.540
   55SOL    HW2  486   1.194   1.697   1.586
   56SOL     OW  487   0.317   0.251   1.801
   56SOL    HW1  488   0.388   0.322   1.807
   56SOL    HW2  489   0.229   0.290   1.829
   57SOL     OW  490   1.466   1.417   0.953
   57SOL    HW1  491   1.407   1.423   1.033
   57SOL    HW2  492   1.451   1.329   0.907
   58SOL     OW  493   1.667   1.714   0.572
   58SOL    HW1  494   1.626   1.691   0.484
   58SOL    HW2  495   1.649   1.640   0.637
   59SOL     OW  496   0.598   0.729   0.270
   59SOL    HW1  497   0.622   0.798   0.202
   59SOL    HW2  498   0.520   0.762   0.324
   60SOL     OW  499   1.281   0.345   0.944
   60SOL    HW1  500   1.195   0.295   0.931
   60SOL    HW2  501   1.343   0.291   1.000
   61SOL     OW  502   1.576   1.662   0.307
   61SOL    HW1  503   1.665   1.708   0.310
   61SOL    HW2  504   1.555   1.638   0.212
   62SOL     OW  505   0.807   0.605   1.465
   62SOL    HW1  506   0.760   0.602   1.554
   62SOL    HW2  507   0.756   0.550   1.399
   63SOL     OW  508   1.394   0.469   1.674
   63SOL    HW1  509   1.374   0.512   1.762
   63SOL    HW2  510   1.472   0.407   1.683
   64SOL     OW  511   0.973   0.890   1.572
   64SOL    HW1  512   1.019   0.806   1.543
   64SOL    HW2  513   0.917   0.924   1.497
   65SOL     OW  514   0.991   0.410   1.242
   65SOL    HW1  515   0.914   0.444   1.296
   65SOL    HW2  516   0.957   0.359   1.163
   66SOL     OW  517   1.041   0.701   0.429
   66SOL    HW1  518   1.067   0.697   0.525
   66SOL    HW2  519   0.956   0.650   0.415
   67SOL     OW  520   0.076   0.811   0.789
   67SOL    HW1  521   0.175   0.799   0.798
   67SOL    HW2  522   0.052   0.906   0.810
   68SOL     OW  523   0.130   1.821   1.571
   68SOL    HW1  524   0.120   1.806   1.670
   68SOL    HW2  525   0.044   1.857   1.535
   69SOL     OW  526   0.865   0.348   0.195
   69SOL    HW1  527   0.924   0.411   0.146
   69SOL    HW2  528   0.884   0.254   0.166
   70SOL     OW  529   1.719   0.585   1.831
   70SOL    HW1  530   1.693   0.674   1.795
   70SOL    HW2  531   1.717   0.517   1.758
   71SOL     OW  532   1.362   1.144   0.545
   71SOL    HW1  533   1.445   1.115   0.497
   71SOL    HW2  534   1.313   1.211   0.489
   72SOL     OW  535   0.550   0.196   0.885
   72SOL    HW1  536   0.545   0.191   0.985
   72SOL    HW2  537   0.552   0.292   0.856
   73SOL     OW  538   1.008   1.456   0.477
   73SOL    HW1  539   0.962   1.528   0.425
   73SOL    HW2  540   1.004   1.476   0.575
   74SOL     OW  541   0.351   1.801   0.853
   74SOL    HW1  542   0.401   1.715   0.859
   74SOL    HW2  543   0.416   1.878   0.850
   75SOL     OW  544   1.795   1.066   0.873
   75SOL    HW1  545   1.733   1.051   0.797
   75SOL    HW2  546   1.743   1.077   0.958
   76SOL     OW  547   1.227   1.550   1.506
   76SOL    HW1  548   1.233   1.473   1.570
   76SOL    HW2  549   1.175   1.524   1.426
   77SOL     OW  550   0.321   0.943   0.242
   77SOL    HW1  551   0.403   0.982   0.200
   77SOL    HW2  552   0.294   0.861   0.193
   78SOL     OW  553   1.458   0.735   0.728
   78SOL    HW1  554   1.453   0.670   0.803
   78SOL    HW2  555   1.538   0.794   0.741
   79SOL     OW  556   0.461   1.266   1.727
   79SOL    HW1  557   0.411   1.267   1.641
   79SOL    HW2  558   0.398   1.248   1.803
   80SOL     OW  559   1.111   1.776   0.237
   80SOL    HW1  560   1.051   1.714   0.287
   80SOL    HW2  561   1.142   1.732   0.152
   81SOL     OW  562   0.202   0.285   1.498
   81SOL    HW1  563   0.122   0.345   1.485
   81SOL    HW2  564   0.192   0.236   1.584
   82SOL     OW  565   1.632   1.377   0.081
   82SOL    HW1  566   1.600   1.471   0.071
   82SOL    HW2  567   1.556   1.314   0.069
   83SOL     OW  568   0.464   1.743   0.323
   83SOL    HW1  569   0.497   1.782   0.409
   83SOL    HW2  570   0.540   1.736   0.258
   84SOL     OW  571   1.400   0.107   0.426
   84SOL    HW1  572   1.376   0.070   0.336
   84SOL    HW2  573   1.499   0.123   0.430
   85SOL     OW  574   0.249   1.785   1.241
   85SOL    HW1  575   0.306   1.720   1.291
   85SOL    HW2  576   0.233   1.752   1.148
   86SOL     OW  577   0.940   1.698   0.904
   86SOL    HW1  578   1.020   1.641   0.925
   86SOL    HW2  579   0.891   1.658   0.827
   87SOL     OW  580   0.382   0.700   0.480
   87SOL    HW1  581   0.427   0.610   0.477
   87SOL    HW2  582   0.288   0.689   0.513
   88SOL     OW  583   1.547   0.222   1.729
   88SOL    HW1  584   1.542   0.259   1.821
   88SOL    HW2  585   1.475   0.153   1.717
   89SOL     OW  586   0.614   0.122   0.117
   89SOL    HW1  587   0.712   0.100   0.124
   89SOL    HW2  588   0.583   0.105   0.024
   90SOL     OW  589   0.781   0.264   1.749
   90SOL    HW1  590   0.848   0.203   1.792
   90SOL    HW2  591   0.708   0.283   1.814
   91SOL     OW  592   0.888   1.514   1.195
   91SOL    HW1  593   0.865   1.489   1.101
   91SOL    HW2  594   0.949   1.445   1.234
   92SOL     OW  595   1.351   0.590   1.433
   92SOL    HW1  596   1.379   0.547   1.518
   92SOL    HW2  597   1.376   0.686   1.434
   93SOL     OW  598   0.803   1.402   0.924
   93SOL    HW1  599   0.893   1.416   0.882
   93SOL    HW2  600   0.732   1.404   0.853
   94SOL     OW  601   0.922   0.503   0.899
   94SOL    HW1  602   0.897   0.494   0.803
   94SOL    HW2  603   0.970   0.421   0.930
   95SOL     OW  604   0.539   0.064   0.512
   95SOL    HW1  605   0.458   0.065   0.570
   95SOL    HW2  606   0.542   0.147   0.457
   96SOL     OW  607   1.434   1.188   0.041
   96SOL    HW1  608   1.466   1.112   0.098
   96SOL    HW2  609   1.342   1.215   0.071
   97SOL     OW  610   0.297   0.035   0.171
   97SOL    HW1  611   0.346   0.119   0.150
   97SOL    HW2  612   0.359  -0.030   0.216
   98SOL     OW  613   0.935   0.236   0.480
   98SOL    HW1  614   0.887   0.277   0.402
   98SOL    HW2  615   1.034   0.234   0.461
   99SOL     OW  616   1.076   0.683   1.464
   99SOL    HW1  617   0.996   0.622   1.467
   99SOL    HW2  618   1.157   0.630   1.440
  100SOL     OW  619   1.227   1.570   0.793
  100SOL    HW1  620   1.248   1.644   0.728
  100SOL    HW2  621   1.295   1.570   0.866
  101SOL     OW  622   0.459   1.152   0.741
  101SOL    HW1  623   0.388   1.125   0.806
  101SOL    HW2  624   0.433   1.124   0.648
  102SOL     OW  625   1.271   1.797   0.591
  102SOL    HW1  626   1.315   1.861   0.527
  102SOL    HW2  627   1.221   1.849   0.661
  103SOL     OW  628   1.032   0.549   0.016
  103SOL    HW1  629   0.991   0.631  -0.023
  103SOL    HW2  630   1.096   0.575   0.089
  104SOL     OW  631   0.078   0.556   1.386
  104SOL    HW1  632   0.170   0.555   1.345
  104SOL    HW2  633   0.072   0.630   1.453
  105SOL     OW  634   0.561   0.222   1.147
  105SOL    HW1  635   0.599   0.138   1.184
  105SOL    HW2  636   0.473   0.241   1.191
  106SOL     OW  637   0.866   0.454   0.642
  106SOL    HW1  638   0.834   0.526   0.580
  106SOL    HW2  639   0.890   0.373   0.589
  107SOL     OW  640   1.017   0.039   0.753
  107SOL    HW1  641   0.945   0.044   0.684
  107SOL    HW2  642   0.993  -0.030   0.822
  108SOL     OW  643   1.429   1.173   0.867
  108SOL    HW1  644   1.374   1.089   0.860
  108SOL    HW2  645   1.455   1.202   0.775
  109SOL     OW  646   1.466   0.590   0.992
  109SOL    HW1  647   1.436   0.495   0.999
  109SOL    HW2  648   1.539   0.606   1.058
  110SOL     OW  649   1.857   0.833   0.377
  110SOL    HW1  650   1.899   0.769   0.441
  110SOL    HW2  651   1.819   0.782   0.299
  111SOL     OW  652   0.488   1.385   0.174
  111SOL    HW1  653   0.401   1.370   0.221
  111SOL    HW2  654   0.471   1.411   0.079
  112SOL     OW  655   1.664   1.280   0.657
  112SOL    HW1  656   1.763   1.288   0.671
  112SOL    HW2  657   1.619   1.364   0.688
  113SOL     OW  658   1.390   0.575   0.078
  113SOL    HW1  659   1.336   0.554   0.159
  113SOL    HW2  660   1.481   0.534   0.087
  114SOL     OW  661   0.527   0.256   0.328
  114SOL    HW1  662   0.554   0.197   0.253
  114SOL    HW2  663   0.527   0.351   0.297
  115SOL     OW  664   1.754   1.223   1.588
  115SOL    HW1  665   1.845   1.184   1.575
  115SOL    HW2  666   1.762   1.319   1.612
  116SOL     OW  667   1.064   1.347   1.340
  116SOL    HW1  668   0.984   1.324   1.395
  116SOL    HW2  669   1.147   1.321   1.389
  117SOL     OW  670   1.592   1.629   1.625
  117SOL    HW1  671   1.619   1.663   1.535
  117SOL    HW2  672   1.671   1.591   1.671
  118SOL     OW  673   1.111   1.195   1.100
  118SOL    HW1  674   1.071   1.239   1.181
  118SOL    HW2  675   1.070   1.232   1.017
  119SOL     OW  676   1.638   1.099   1.079
  119SOL    HW1  677   1.643   1.180   1.138
  119SOL    HW2  678   1.552   1.101   1.028
  120SOL     OW  679   0.915   0.089   1.402
  120SOL    HW1  680   0.940   0.069   1.307
  120SOL    HW2  681   0.987   0.145   1.444
  121SOL     OW  682   0.980   1.116   1.719
  121SOL    HW1  683   0.881   1.122   1.729
  121SOL    HW2  684   1.003   1.036   1.663
  122SOL     OW  685   0.705   1.050   0.368
  122SOL    HW1  686   0.691   1.057   0.467
  122SOL    HW2  687   0.789   0.999   0.350
  123SOL     OW  688   0.410   0.813   1.251
  123SOL    HW1  689   0.496   0.825   1.301
  123SOL    HW2  690   0.368   0.726   1.278
  124SOL     OW  691   1.274   0.386   1.262
  124SOL    HW1  692   1.295   0.460   1.326
  124SOL    HW2  693   1.185   0.403   1.219
  125SOL     OW  694   0.064   1.564   1.331
  125SOL    HW1  695   0.018   1.646   1.297
  125SOL    HW2  696   0.162   1.583   1.340
  126SOL     OW  697   0.367   1.100   0.501
  126SOL    HW1  698   0.360   1.183   0.445
  126SOL    HW2  699   0.371   1.020   0.441
  127SOL     OW  700   0.566   0.537   0.865
  127SOL    HW1  701   0.578   0.603   0.791
  127SOL    HW2  702   0.612   0.571   0.948
  128SOL     OW  703   1.252   1.348   0.388
  128SOL    HW1  704   1.302   1.425   0.428
  128SOL    HW2  705   1.157   1.350   0.420
  129SOL     OW  706   1.272   1.445   1.142
  129SOL    HW1  707   1.319   1.458   1.229
  129SOL    HW2  708   1.206   1.371   1.151
  130SOL     OW  709   1.582   0.639   0.472
  130SOL    HW1  710   1.551   0.700   0.545
  130SOL    HW2  711   1.632   0.691   0.403
  131SOL     OW  712   0.354   1.510   1.329
  131SOL    HW1  713   0.333   1.466   1.242
  131SOL    HW2  714   0.451   1.536   1.332
  132SOL     OW  715   0.402   0.751   1.598
  132SOL    HW1  716   0.470   0.806   1.551
  132SOL    HW2  717   0.442   0.663   1.625
  133SOL     OW  718   1.587   0.779   1.670
  133SOL    HW1  719   1.495   0.817   1.665
  133SOL    HW2  720   1.647   0.826   1.605
  134SOL     OW  721   1.013   0.105   1.770
  134SOL    HW1  722   1.019   0.190   1.718
  134SOL    HW2  723   1.045   0.029   1.713
  135SOL     OW  724   0.504   0.050   1.740
  135SOL    HW1  725   0.462  -0.007   1.670
  135SOL    HW2  726   0.438   0.119   1.772
  136SOL     OW  727   0.573   0.870   1.029
  136SOL    HW1  728   0.617   0.959   1.020
  136SOL    HW2  729   0.510   0.870   1.106
  137SOL     OW  730   1.360   0.862   1.045
  137SOL    HW1  731   1.285   0.862   0.979
  137SOL    HW2  732   1.397   0.770   1.054
  138SOL     OW  733   1.209   0.525   0.275
  138SOL    HW1  734   1.222   0.441   0.329
  138SOL    HW2  735   1.180   0.599   0.335
  139SOL     OW  736   0.307   0.213   1.231
  139SOL    HW1  737   0.284   0.250   1.321
  139SOL    HW2  738   0.277   0.118   1.225
  140SOL     OW  739   0.037   1.310   1.282
  140SOL    HW1  740   0.090   1.261   1.350
  140SOL    HW2  741   0.059   1.408   1.287
  141SOL     OW  742   0.732   0.634   1.064
  141SOL    HW1  743   0.791   0.608   0.988
  141SOL    HW2  744   0.704   0.730   1.053
  142SOL     OW  745   1.728   0.935   1.854
  142SOL    HW1  746   1.682   0.928   1.765
  142SOL    HW2  747   1.666   0.979   1.920
  143SOL     OW  748   0.307   0.063   0.618
  143SOL    HW1  749   0.296   0.157   0.651
  143SOL    HW2  750   0.302   0.000   0.695
  144SOL     OW  751   1.622   0.367   0.374
  144SOL    HW1  752   1.624   0.291   0.438
  144SOL    HW2  753   1.574   0.444   0.414
  145SOL     OW  754   1.023   0.766   0.966
  145SOL    HW1  755   1.038   0.787   1.062
  145SOL    HW2  756   0.993   0.671   0.957
  146SOL     OW  757   0.980   1.573   1.700
  146SOL    HW1  758   0.960   1.617   1.612
  146SOL    HW2  759   1.019   1.482   1.684
  147SOL     OW  760   1.859   1.518   1.605
  147SOL    HW1  761   1.873   1.545   1.510
  147SOL    HW2  762   1.942   1.540   1.658
  148SOL     OW  763   0.350   0.898   1.804
  148SOL    HW1  764   0.426   0.942   1.852
  148SOL    HW2  765   0.385   0.851   1.722
  149SOL     OW  766   1.540   0.274   0.125
  149SOL    HW1  767   1.479   0.199   0.148
  149SOL    HW2  768   1.562   0.326   0.208
  150SOL     OW  769   1.303   0.838   0.042
  150SOL    HW1  770   1.337   0.745   0.057
  150SOL    HW2  771   1.321   0.865  -0.053
  151SOL     OW  772   1.068   1.333   0.849
  151SOL    HW1  773   1.075   1.249   0.794
  151SOL    HW2  774   1.130   1.402   0.813
  152SOL     OW  775   0.319   0.810   0.949
  152SOL    HW1  776   0.412   0.846   0.954
  152SOL    HW2  777   0.313   0.725   1.001
  153SOL     OW  778   0.339   0.509   1.006
  153SOL    HW1  779   0.287   0.426   0.989
  153SOL    HW2  780   0.416   0.514   0.942
  154SOL     OW  781   1.138   0.380   1.678
  154SOL    HW1  782   1.093   0.443   1.742
  154SOL    HW2  783   1.231   0.411   1.661
  155SOL     OW  784   1.160   0.207   1.477
  155SOL    HW1  785   1.160   0.271   1.554
  155SOL    HW2  786   1.188   0.255   1.394
  156SOL     OW  787   0.008   1.326   0.200
  156SOL    HW1  788  -0.085   1.347   0.169
  156SOL    HW2  789   0.018   1.227   0.213
  157SOL     OW  790   0.088   1.801   0.927
  157SOL    HW1  791   0.046   1.715   0.900
  157SOL    HW2  792   0.182   1.804   0.893
  158SOL     OW  793   0.504   1.568   0.910
  158SOL    HW1  794   0.570   1.642   0.919
  158SOL    HW2  795   0.548   1.489   0.868
  159SOL     OW  796   1.002   0.796   1.238
  159SOL    HW1  797   1.043   0.764   1.324
  159SOL    HW2  798   0.906   0.769   1.235
  160SOL     OW  799   0.040   0.544   1.114
  160SOL    HW1  800   0.125   0.511   1.073
  160SOL    HW2  801   0.053   0.559   1.212
  161SOL     OW  802   0.189   0.520   1.722
  161SOL    HW1  803   0.248   0.480   1.652
  161SOL    HW2  804   0.131   0.591   1.681
  162SOL     OW  805   1.369   0.950   1.660
  162SOL    HW1  806   1.408   1.039   1.680
  162SOL    HW2  807   1.379   0.930   1.563
  163SOL     OW  808   0.815   0.572   0.325
  163SOL    HW1  809   0.822   0.483   0.279
  163SOL    HW2  810   0.721   0.606   0.317
  164SOL     OW  811   1.657   0.604   1.206
  164SOL    HW1  812   1.619   0.535   1.268
  164SOL    HW2  813   1.739   0.568   1.162
  165SOL     OW  814   0.252   1.564   1.744
  165SOL    HW1  815   0.222   1.621   1.820
  165SOL    HW2  816   0.245   1.467   1.770
  166SOL     OW  817   0.671   0.464   1.269
  166SOL    HW1  818   0.637   0.375   1.239
  166SOL    HW2  819   0.697   0.518   1.189
  167SOL     OW  820   0.930   1.678   1.465
  167SOL    HW1  821   0.906   1.660   1.370
  167SOL    HW2  822   0.960   1.772   1.475
  168SOL     OW  823   0.473   0.500   0.191
  168SOL    HW1  824   0.534   0.580   0.195
  168SOL    HW2  825   0.378   0.531   0.198
  169SOL     OW  826   0.159   1.137   1.466
  169SOL    HW1  827   0.181   1.076   1.542
  169SOL    HW2  828   0.169   1.088   1.380
  170SOL     OW  829   1.347   1.059   1.234
  170SOL    HW1  830   1.371   0.996   1.160
  170SOL    HW2  831   1.257   1.099   1.216
  171SOL     OW  832   1.302   0.855   0.309
  171SOL    HW1  833   1.216   0.824   0.351
  171SOL    HW2  834   1.298   0.841   0.210
  172SOL     OW  835   1.759   1.747   1.154
  172SOL    HW1  836   1.820   1.777   1.081
  172SOL    HW2  837   1.721   1.658   1.132
  173SOL     OW  838   1.252   1.731   1.128
  173SOL    HW1  839   1.336   1.736   1.074
  173SOL    HW2  840   1.229   1.635   1.146
  174SOL     OW  841   0.083   1.258   1.022
  174SOL    HW1  842   0.078   1.257   1.122
  174SOL    HW2  843   0.000   1.217   0.984
  175SOL     OW  844   0.688   1.662   1.716
  175SOL    HW1  845   0.632   1.743   1.725
  175SOL    HW2  846   0.740   1.666   1.630
  176SOL     OW  847   0.903   0.086   0.133
  176SOL    HW1  848   0.954   0.087   0.047
  176SOL    HW2  849   0.959   0.044   0.204
  177SOL     OW  850   1.726   0.135   0.523
  177SOL    HW1  851   1.799   0.118   0.456
  177SOL    HW2  852   1.695   0.048   0.561
  178SOL     OW  853   1.388   1.573   0.477
  178SOL    HW1  854   1.455   1.585   0.403
  178SOL    HW2  855   1.348   1.662   0.500
  179SOL     OW  856   0.130   1.794   1.851
  179SOL    HW1  857   0.089   1.720   1.904
  179SOL    HW2  858   0.194   1.845   1.909
  180SOL     OW  859   1.280   0.927   0.672
  180SOL    HW1  860   1.340   0.846   0.674
  180SOL    HW2  861   1.320   0.996   0.612
  181SOL     OW  862   0.830   1.273   1.422
  181SOL    HW1  863   0.825   1.306   1.517
  181SOL    HW2  864   0.744   1.292   1.376
  182SOL     OW  865   0.672   1.616   0.154
  182SOL    HW1  866   0.681   1.626   0.055
  182SOL    HW2  867   0.632   1.527   0.175
  183SOL     OW  868   1.650   1.720   1.394
  183SOL    HW1  869   1.703   1.730   1.310
  183SOL    HW2  870   1.623   1.810   1.428
  184SOL     OW  871   1.841   0.175   0.963
  184SOL    HW1  872   1.880   0.090   0.927
  184SOL    HW2  873   1.743   0.177   0.944
  185SOL     OW  874   0.263   0.326   0.720
  185SOL    HW1  875   0.184   0.377   0.686
  185SOL    HW2  876   0.254   0.311   0.818
  186SOL     OW  877   1.194   1.612   0.031
  186SOL    HW1  878   1.200   1.519   0.068
  186SOL    HW2  879   1.135   1.612  -0.049
  187SOL     OW  880   0.822   1.002   1.372
  187SOL    HW1  881   0.862   1.001   1.280
  187SOL    HW2  882   0.832   1.094   1.412
  188SOL     OW  883   0.916   0.910   0.291
  188SOL    HW1  884   0.979   0.948   0.223
  188SOL    HW2  885   0.956   0.827   0.330
  189SOL     OW  886   1.504   1.607   0.044
  189SOL    HW1  887   1.412   1.644   0.051
  189SOL    HW2  888   1.542   1.627  -0.046
  190SOL     OW  889   0.372   1.288   1.490
  190SOL    HW1  890   0.359   1.381   1.456
  190SOL    HW2  891   0.288   1.236   1.477
  191SOL     OW  892   1.614   1.292   1.289
  191SOL    HW1  893   1.674   1.295   1.369
  191SOL    HW2  894   1.539   1.356   1.302
  192SOL     OW  895   1.039   1.098   0.696
  192SOL    HW1  896   0.969   1.051   0.750
  192SOL    HW2  897   1.098   1.030   0.653
  193SOL     OW  898   1.014   0.236   0.971
  193SOL    HW1  899   1.006   0.200   0.878
  193SOL    HW2  900   1.012   0.160   1.036
  194SOL     OW  901   0.590   1.487   0.491
  194SOL    HW1  902   0.632   1.429   0.421
  194SOL    HW2  903   0.546   1.566   0.447
  195SOL     OW  904   1.709   0.385   1.381
  195SOL    HW1  905   1.782   0.454   1.385
  195SOL    HW2  906   1.737   0.310   1.322
  196SOL     OW  907   0.255   1.348   0.290
  196SOL    HW1  908   0.159   1.349   0.263
  196SOL    HW2  909   0.267   1.401   0.374
  197SOL     OW  910   0.105   1.013   1.726
  197SOL    HW1  911   0.028   0.980   1.780
  197SOL    HW2  912   0.190   0.983   1.768
  198SOL     OW  913   0.672   0.203   1.489
  198SOL    HW1  914   0.762   0.187   1.449
  198SOL    HW2  915   0.680   0.208   1.588
  199SOL     OW  916   0.075   0.345   0.033
  199SOL    HW1  917  -0.017   0.317   0.004
  199SOL    HW2  918   0.106   0.422  -0.023
  200SOL     OW  919   1.440   0.856   1.398
  200SOL    HW1  920   1.383   0.908   1.335
  200SOL    HW2  921   1.536   0.868   1.374
  201SOL     OW  922   0.072   0.166   0.318
  201SOL    HW1  923   0.055   0.249   0.264
  201SOL    HW2  924   0.162   0.129   0.296
  202SOL     OW  925   1.183   1.335   0.119
  202SOL    HW1  926   1.084   1.324   0.121
  202SOL    HW2  927   1.217   1.350   0.212
  203SOL     OW  928   0.613   0.842   1.431
  203SOL    HW1  929   0.669   0.923   1.414
  203SOL    HW2  930   0.672   0.762   1.434
  204SOL     OW  931   1.493   1.767   0.959
  204SOL    HW1  932   1.526   1.831   0.890
  204SOL    HW2  933   1.559   1.761   1.034
  205SOL     OW  934   0.716   0.565   1.708
  205SOL    HW1  935   0.735   0.630   1.782
  205SOL    HW2  936   0.776   0.485   1.717
  206SOL     OW  937   1.450   1.220   1.633
  206SOL    HW1  938   1.441   1.210   1.732
  206SOL    HW2  939   1.546   1.213   1.607
  207SOL     OW  940   0.390   1.741   1.560
  207SOL    HW1  941   0.299   1.782   1.558
  207SOL    HW2  942   0.383   1.647   1.592
  208SOL     OW  943   1.674   0.883   1.254
  208SOL    HW1  944   1.647   0.794   1.217
  208SOL    HW2  945   1.675   0.951   1.181
  209SOL     OW  946   1.225   0.325   0.449
  209SOL    HW1  947   1.290   0.251   0.438
  209SOL    HW2  948   1.245   0.375   0.533
  210SOL     OW  949   0.594   0.745   0.652
  210SOL    HW1  950   0.644   0.830   0.633
  210SOL    HW2  951   0.506   0.747   0.604
  211SOL     OW  952   1.777   0.342   1.642
  211SOL    HW1  953   1.760   0.373   1.548
  211SOL    HW2  954   1.693   0.305   1.680
  212SOL     OW  955   1.730   0.934   1.517
  212SOL    HW1  956   1.768   1.025   1.532
  212SOL    HW2  957   1.722   0.917   1.418
  213SOL     OW  958   0.859   1.374   0.016
  213SOL    HW1  959   0.813   1.389   0.104
  213SOL    HW2  960   0.903   1.459  -0.014
  214SOL     OW  961   0.661   1.790   0.953
  214SOL    HW1  962   0.615   1.878   0.940
  214SOL    HW2  963   0.760   1.802   0.946
  215SOL     OW  964   0.859   0.956   0.861
  215SOL    HW1  965   0.913   0.887   0.909
  215SOL    HW2  966   0.827   1.025   0.927
  216SOL     OW  967   1.083   0.984   0.087
  216SOL    HW1  968   1.060   1.037   0.005
  216SOL    HW2  969   1.164   0.928   0.068
  217SOL     OW  970   1.861   1.569   0.851
  217SOL    HW1  971   1.790   1.557   0.781
  217SOL    HW2  972   1.862   1.490   0.911
  218SOL     OW  973   0.221   1.314   1.844
  218SOL    HW1  974   0.156   1.241   1.823
  218SOL    HW2  975   0.225   1.328   1.942
  219SOL     OW  976   0.079   1.240   0.653
  219SOL    HW1  977   0.078   1.193   0.741
  219SOL    HW2  978   0.161   1.212   0.602
  220SOL     OW  979   0.672   1.391   1.624
  220SOL    HW1  980   0.594   1.341   1.662
  220SOL    HW2  981   0.669   1.486   1.655
  221SOL     OW  982   1.824   0.192   1.227
  221SOL    HW1  983   1.820   0.102   1.271
  221SOL    HW2  984   1.827   0.181   1.128
  222SOL     OW  985   0.428   0.424   0.520
  222SOL    HW1  986   0.458   0.352   0.458
  222SOL    HW2  987   0.389   0.384   0.603
  223SOL     OW  988   1.705   1.487   1.104
  223SOL    HW1  989   1.612   1.462   1.077
  223SOL    HW2  990   1.731   1.437   1.186
  224SOL     OW  991   0.317   0.547   1.280
  224SOL    HW1  992   0.355   0.488   1.352
  224SOL    HW2  993   0.357   0.521   1.192
  225SOL     OW  994   0.812   1.586   0.687
  225SOL    HW1  995   0.844   1.596   0.593
  225SOL    HW2  996   0.733   1.524   0.689
  226SOL     OW  997   1.424   0.214   1.112
  226SOL    HW1  998   1.476   0.149   1.167
  226SOL    HW2  999   1.375   0.277   1.173
  227SOL     OW 1000   1.001   0.034   1.154
  227SOL    HW1 1001   0.938  -0.038   1.123
  227SOL    HW2 1002   1.094  -0.002   1.154
  228SOL     OW 1003   0.770   1.330   0.301
  228SOL    HW1 1004   0.724   1.243   0.318
  228SOL    HW2 1005   0.861   1.327   0.342
  229SOL     OW 1006   0.618   1.567   1.284
  229SOL    HW1 1007   0.613   1.649   1.341
  229SOL    HW2 1008   0.707   1.564   1.239
  230SOL     OW 1009   1.352   0.052   0.168
  230SOL    HW1 1010   1.387   0.011   0.084
  230SOL    HW2 1011   1.262   0.014   0.188
  231SOL     OW 1012   1.300   0.453   0.691
  231SOL    HW1 1013   1.241   0.533   0.695
  231SOL    HW2 1014   1.315   0.418   0.784
  232SOL     OW 1015   1.593   0.221   0.882
  232SOL    HW1 1016   1.509   0.220   0.936
  232SOL    HW2 1017   1.595   0.304   0.826
  233SOL     OW 1018   0.039   1.077   0.300
  233SOL    HW1 1019   0.138   1.066   0.291
  233SOL    HW2 1020  -0.001   0.991   0.332
  234SOL     OW 1021   0.875   1.646   0.337
  234SOL    HW1 1022   0.798   1.611   0.283
  234SOL    HW2 1023   0.843   1.717   0.399
  235SOL     OW 1024   0.230   0.628   1.975
  235SOL    HW1 1025   0.137   0.626   2.012
  235SOL    HW2 1026   0.231   0.589   1.883
  236SOL     OW 1027   0.225   0.275   2.858
  236SOL    HW1 1028   0.260   0.258   2.950
  236SOL    HW2 1029   0.137   0.230   2.846
  237SOL     OW 1030   0.019   0.368   2.509
  237SOL    HW1 1031  -0.063   0.411   2.548
  237SOL    HW2 1032  -0.009   0.295   2.446
  238SOL     OW 1033   0.569   1.275   3.027
  238SOL    HW1 1034   0.476   1.268   2.990
  238SOL    HW2 1035   0.580   1.364   3.071
  239SOL     OW 1036   1.555   1.511   2.565
  239SOL    HW1 1037   1.498   1.495   2.646
  239SOL    HW2 1038   1.496   1.521   2.485
  240SOL     OW 1039   1.135   0.703   2.579
  240SOL    HW1 1040   1.192   0.781   2.554
  240SOL    HW2 1041   1.075   0.729   2.655
  241SOL     OW 1042   1.755   0.607   2.093
  241SOL    HW1 1043   1.743   0.594   1.994
  241SOL    HW2 1044   1.725   0.526   2.142
  242SOL     OW 1045   0.768   1.144   2.885
  242SOL    HW1 1046   0.690   1.161   2.945
  242SOL    HW2 1047   0.802   1.231   2.849
  243SOL     OW 1048   0.850   0.798   3.685
  243SOL    HW1 1049   0.846   0.874   3.750
  243SOL    HW2 1050   0.872   0.834   3.594
  244SOL     OW 1051   0.685   1.012   2.527
  244SOL    HW1 1052   0.754   0.996   2.597
  244SOL    HW2 1053   0.612   1.069   2.565
  245SOL     OW 1054   0.686   1.161   3.665
  245SOL    HW1 1055   0.746   1.240   3.679
  245SOL    HW2 1056   0.600   1.192   3.624
  246SOL     OW 1057   0.335   1.435   2.923
  246SOL    HW1 1058   0.257   1.404   2.870
  246SOL    HW2 1059   0.393   1.493   2.866
  247SOL     OW 1060   1.460   1.505   3.201
  247SOL    HW1 1061   1.484   1.599   3.227
  247SOL    HW2 1062   1.444   1.451   3.283
  248SOL     OW 1063   0.438   0.392   3.361
  248SOL    HW1 1064   0.520   0.336   3.370
  248SOL    HW2 1065   0.357   0.334   3.365
  249SOL     OW 1066   1.603   0.447   2.599
  249SOL    HW1 1067   1.529   0.493   2.549
  249SOL    HW2 1068   1.654   0.515   2.652
  250SOL     OW 1069   0.231   1.713   2.345
  250SOL    HW1 1070   0.265   1.790   2.399
  250SOL    HW2 1071   0.275   1.713   2.255
  251SOL     OW 1072   1.127   1.341   3.552
  251SOL    HW1 1073   1.174   1.341   3.640
  251SOL    HW2 1074   1.079   1.254   3.541
  252SOL     OW 1075   0.230   1.434   2.400
  252SOL    HW1 1076   0.204   1.530   2.400
  252SOL    HW2 1077   0.159   1.380   2.445
  253SOL     OW 1078   0.240   1.091   2.748
  253SOL    HW1 1079   0.254   1.007   2.800
  253SOL    HW2 1080   0.185   1.155   2.803
  254SOL     OW 1081   0.620   1.786   3.301
  254SOL    HW1 1082   0.528   1.769   3.336
  254SOL    HW2 1083   0.648   1.878   3.327
  255SOL     OW 1084   0.606   0.964   1.985
  255SOL    HW1 1085   0.613   1.048   1.931
  255SOL    HW2 1086   0.652   0.977   2.073
  256SOL     OW 1087   1.594   0.114   3.342
  256SOL    HW1 1088   1.576   0.181   3.270
  256SOL    HW2 1089   1.591   0.160   3.431
  257SOL     OW 1090   0.122   0.643   2.425
  257SOL    HW1 1091   0.077   0.555   2.442
  257SOL    HW2 1092   0.121   0.697   2.509
  258SOL     OW 1093   1.842   1.767   2.221
  258SOL    HW1 1094   1.896   1.738   2.301
  258SOL    HW2 1095   1.872   1.857   2.192
  259SOL     OW 1096   0.027   1.596   1.979
  259SOL    HW1 1097   0.008   1.500   2.000
  259SOL    HW2 1098  -0.006   1.654   2.054
  260SOL     OW 1099   1.689   0.922   2.474
  260SOL    HW1 1100   1.784   0.893   2.482
  260SOL    HW2 1101   1.681   0.987   2.399
  261SOL     OW 1102   1.641   1.108   2.294
  261SOL    HW1 1103   1.727   1.110   2.242
  261SOL    HW2 1104   1.655   1.155   2.382
  262SOL     OW 1105   0.113   0.737   3.459
  262SOL    HW1 1106   0.201   0.724   3.504
  262SOL    HW2 1107   0.100   0.834   3.437
  263SOL     OW 1108   0.613   1.365   2.588
  263SOL    HW1 1109   0.564   1.278   2.597
  263SOL    HW2 1110   0.590   1.408   2.501
  264SOL     OW 1111   1.293   1.228   3.285
  264SOL    HW1 1112   1.330   1.155   3.227
  264SOL    HW2 1113   1.345   1.233   3.370
  265SOL     OW 1114   0.809   0.004   2.364
  265SOL    HW1 1115   0.849   0.095   2.355
  265SOL    HW2 1116   0.709   0.012   2.370
  266SOL     OW 1117   0.197   0.976   3.126
  266SOL    HW1 1118   0.286   0.931   3.112
  266SOL    HW2 1119   0.124   0.911   3.107
  267SOL     OW 1120   1.525   0.999   2.052
  267SOL    HW1 1121   1.462   0.923   2.065
  267SOL    HW2 1122   1.573   1.017   2.138
  268SOL     OW 1123   1.187   1.792   3.478
  268SOL    HW1 1124   1.211   1.852   3.402
  268SOL    HW2 1125   1.194   1.697   3.448
  269SOL     OW 1126   0.317   0.251   3.663
  269SOL    HW1 1127   0.388   0.322   3.669
  269SOL    HW2 1128   0.229   0.290   3.691
  270SOL     OW 1129   1.466   1.417   2.815
  270SOL    HW1 1130   1.407   1.423   2.895
  270SOL    HW2 1131   1.451   1.329   2.769
  271SOL     OW 1132   1.667   1.714   2.434
  271SOL    HW1 1133   1.626   1.691   2.346
  271SOL    HW2 1134   1.649   1.640   2.499
  272SOL     OW 1135   0.598   0.729   2.132
  272SOL    HW1 1136   0.622   0.798   2.064
  272SOL    HW2 1137   0.520   0.762   2.186
  273SOL     OW 1138   1.281   0.345   2.806
  273SOL    HW1 1139   1.195   0.295   2.793
  273SOL    HW2 1140   1.343   0.291   2.862
  274SOL     OW 1141   1.576   1.662   2.169
  274SOL    HW1 1142   1.665   1.708   2.172
  274SOL    HW2 1143   1.555   1.638   2.074
  275SOL     OW 1144   0.807   0.605   3.327
  275SOL    HW1 1145   0.760   0.602   3.416
  275SOL    HW2 1146   0.756   0.550   3.261
  276SOL     OW 1147   1.394   0.469   3.536
  276SOL    HW1 1148   1.374   0.512   3.624
  276SOL    HW2 1149   1.472   0.407   3.545
  277SOL     OW 1150   0.973   0.890   3.434
  277SOL    HW1 1151   1.019   0.806   3.405
  277SOL    HW2 1152   0.917   0.924   3.359
  278SOL     OW 1153   0.991   0.410   3.104
  278SOL    HW1 1154   0.914   0.444   3.158
  278SOL    HW2 1155   0.957   0.359   3.025
  279SOL     OW 1156   1.041   0.701   2.291
  279SOL    HW1 1157   1.067   0.697   2.387
  279SOL    HW2 1158   0.956   0.650   2.277
  280SOL     OW 1159   0.076   0.811   2.651
  280SOL    HW1 1160   0.175   0.799   2.660
  280SOL    HW2 1161   0.052   0.906   2.672
  281SOL     OW 1162   0.130   1.821   3.433
  281SOL    HW1 1163   0.120   1.806   3.532
  281SOL    HW2 1164   0.044   1.857   3.397
  282SOL     OW 1165   0.865   0.348   2.057
  282SOL    HW1 1166   0.924   0.411   2.008
  282SOL    HW2 1167   0.884   0.254   2.028
  283SOL     OW 1168   1.719   0.585   3.693
  283SOL    HW1 1169   1.693   0.674   3.657
  283SOL    HW2 1170   1.717   0.517   3.620
  284SOL     OW 1171   1.362   1.144   2.407
  284SOL    HW1 1172   1.445   1.115   2.359
  284SOL    HW2 1173   1.313   1.211   2.351
  285SOL     OW 1174   0.550   0.196   2.747
  285SOL    HW1 1175   0.545   0.191   2.847
  285SOL    HW2 1176   0.552   0.292   2.718
  286SOL     OW 1177   1.008   1.456   2.339
  286SOL    HW1 1178   0.962   1.528   2.287
  286SOL    HW2 1179   1.004   1.476   2.437
  287SOL     OW 1180   0.351   1.801   2.715
  287SOL    HW1 1181   0.401   1.715   2.721
  287SOL    HW2 1182   0.416   1.878   2.712
  288SOL     OW 1183   1.795   1.066   2.735
  288SOL    HW1 1184   1.733   1.051   2.659
  288SOL    HW2 1185   1.743   1.077   2.820
  289SOL     OW 1186   1.227   1.550   3.368
  289SOL    HW1 1187   1.233   1.473   3.432
  289SOL    HW2 1188   1.175   1.524   3.288
  290SOL     OW 1189   0.321   0.943   2.104
  290SOL    HW1 1190   0.403   0.982   2.062
  290SOL    HW2 1191   0.294   0.861   2.055
  291SOL     OW 1192   1.458   0.735   2.590
  291SOL    HW1 1193   1.453   0.670   2.665
  291SOL    HW2 1194   1.538   0.794   2.603
  292SOL     OW 1195   0.461   1.266   3.589
  292SOL    HW1 1196   0.411   1.267   3.503
  292SOL    HW2 1197   0.398   1.248   3.665
  293SOL     OW 1198   1.111   1.776   2.099
  293SOL    HW1 1199   1.051   1.714   2.149
  293SOL    HW2 1200   1.142   1.732   2.014
  294SOL     OW 1201   0.202   0.285   3.360
  294SOL    HW1 1202   0.122   0.345   3.347
  294SOL    HW2 1203   0.192   0.236   3.446
  295SOL     OW 1204   1.632   1.377   1.943
  295SOL    HW1 1205   1.600   1.471   1.933
  295SOL    HW2 1206   1.556   1.314   1.931
  296SOL     OW 1207   0.464   1.743   2.185
  296SOL    HW1 1208   0.497   1.782   2.271
  296SOL    HW2 1209   0.540   1.736   2.120
  297SOL     OW 1210   1.400   0.107   2.288
  297SOL    HW1 1211   1.376   0.070   2.198
  297SOL    HW2 1212   1.499   0.123   2.292
  298SOL     OW 1213   0.249   1.785   3.103
  298SOL    HW1 1214   0.306   1.720   3.153
  298SOL    HW2 1215   0.233   1.752   3.010
  299SOL     OW 1216   0.940   1.698   2.766
  299SOL    HW1 1217   1.020   1.641   2.787
  299SOL    HW2 1218   0.891   1.658   2.689
  300SOL     OW 1219   0.382   0.700   2.342
  300SOL    HW1 1220   0.427   0.610   2.339
  300SOL    HW2 1221   0.288   0.689   2.375
  301SOL     OW 1222   1.547   0.222   3.591
  301SOL    HW1 1223   1.542   0.259   3.683
  301SOL    HW2 1224   1.475   0.153   3.579
  302SOL     OW 1225   0.614   0.122   1.979
  302SOL    HW1 1226   0.712   0.100   1.986
  302SOL    HW2 1227   0.583   0.105   1.886
  303SOL     OW 1228   0.781   0.264   3.611
  303SOL    HW1 1229   0.848   0.203   3.654
  303SOL    HW2 1230   0.708   0.283   3.676
  304SOL     OW 1231   0.888   1.514   3.057
  304SOL    HW1 1232   0.865   1.489   2.963
  304SOL    HW2 1233   0.949   1.445   3.096
  305SOL     OW 1234   1.351   0.590   3.295
  305SOL    HW1 1235   1.379   0.547   3.380
  305SOL    HW2 1236   1.376   0.686   3.296
  306SOL     OW 1237   0.803   1.402   2.786
  306SOL    HW1 1238   0.893   1.416   2.744
  306SOL    HW2 1239   0.732   1.404   2.715
  307SOL     OW 1240   0.922   0.503   2.761
  307SOL    HW1 1241   0.897   0.494   2.665
  307SOL    HW2 1242   0.970   0.421   2.792
  308SOL     OW 1243   0.539   0.064   2.374
  308SOL    HW1 1244   0.458   0.065   2.432
  308SOL    HW2 1245   0.542   0.147   2.319
  309SOL     OW 1246   1.434   1.188   1.903
  309SOL    HW1 1247   1.466   1.112   1.960
  309SOL    HW2 1248   1.342   1.215   1.933
  310SOL     OW 1249   0.297   0.035   2.033
  310SOL    HW1 1250   0.346   0.119   2.012
  310SOL    HW2 1251   0.359  -0.030   2.078
  311SOL     OW 1252   0.935   0.236   2.342
  311SOL    HW1 1253   0.887   0.277   2.264
  311SOL    HW2 1254   1.034   0.234   2.323
  312SOL     OW 1255   1.076   0.683   3.326
  312SOL    HW1 1256   0.996   0.622   3.329
  312SOL    HW2 1257   1.157   0.630   3.302
  313SOL     OW 1258   1.227   1.570   2.655
  313SOL    HW1 1259   1.248   1.644   2.590
  313SOL    HW2 1260   1.295   1.570   2.728
  314SOL     OW 1261   0.459   1.152   2.603
  314SOL    HW1 1262   0.388   1.125   2.668
  314SOL    HW2 1263   0.433   1.124   2.510
  315SOL     OW 1264   1.271   1.797   2.453
  315SOL    HW1 1265   1.315   1.861   2.389
  315SOL    HW2 1266   1.221   1.849   2.523
  316SOL     OW 1267   1.032   0.549   1.878
  316SOL    HW1 1268   0.991   0.631   1.839
  316SOL    HW2 1269   1.096   0.575   1.951
  317SOL     OW 1270   0.078   0.556   3.248
  317SOL    HW1 1271   0.170   0.555   3.207
  317SOL    HW2 1272   0.072   0.630   3.315
  318SOL     OW 1273   0.561   0.222   3.009
  318SOL    HW1 1274   0.599   0.138   3.046
  318SOL    HW2 1275   0.473   0.241   3.053
  319SOL     OW 1276   0.866   0.454   2.504
  319SOL    HW1 1277   0.834   0.526   2.442
  319SOL    HW2 1278   0.890   0.373   2.451
  320SOL     OW 1279   1.017   0.039   2.615
  320SOL    HW1 1280   0.945   0.044   2.546
  320SOL    HW2 1281   0.993  -0.030   2.684
  321SOL     OW 1282   1.429   1.173   2.729
  321SOL    HW1 1283   1.374   1.089   2.722
  321SOL    HW2 1284   1.455   1.202   2.637
  322SOL     OW 1285   1.466   0.590   2.854
  322SOL    HW1 1286   1.436   0.495   2.861
  322SOL    HW2 1287   1.539   0.606   2.920
  323SOL     OW 1288   1.857   0.833   2.239
  323SOL    HW1 1289   1.899   0.769   2.303
  323SOL    HW2 1290   1.819   0.782   2.161
  324SOL     OW 1291   0.488   1.385   2.036
  324SOL    HW1 1292   0.401   1.370   2.083
  324SOL    HW2 1293   0.471   1.411   1.941
  325SOL     OW 1294   1.664   1.280   2.519
  325SOL    HW1 1295   1.763   1.288   2.533
  325SOL    HW2 1296   1.619   1.364   2.550
  326SOL     OW 1297   1.390   0.575   1.940
  326SOL    HW1 1298   1.336   0.554   2.021
  326SOL    HW2 1299   1.481   0.534   1.949
  327SOL     OW 1300   0.527   0.256   2.190
  327SOL    HW1 1301   0.554   0.197   2.115
  327SOL    HW2 1302   0.527   0.351   2.159
  328SOL     OW 1303   1.754   1.223   3.450
  328SOL    HW1 1304   1.845   1.184   3.437
  328SOL    HW2 1305   1.762   1.319   3.474
  329SOL     OW 1306   1.064   1.347   3.202
  329SOL    HW1 1307   0.984   1.324   3.257
  329SOL    HW2 1308   1.147   1.321   3.251
  330SOL     OW 1309   1.592   1.629   3.487
  330SOL    HW1 1310   1.619   1.663   3.397
  330SOL    HW2 1311   1.671   1.591   3.533
  331SOL     OW 1312   1.111   1.195   2.962
  331SOL    HW1 1313   1.071   1.239   3.043
  331SOL    HW2 1314   1.070   1.232   2.879
  332SOL     OW 1315   1.638   1.099   2.941
  332SOL    HW1 1316   1.643   1.180   3.000
  332SOL    HW2 1317   1.552   1.101   2.890
  333SOL     OW 1318   0.915   0.089   3.264
  333SOL    HW1 1319   0.940   0.069   3.169
  333SOL    HW2 1320   0.987   0.145   3.306
  334SOL     OW 1321   0.980   1.116   3.581
  334SOL    HW1 1322   0.881   1.122   3.591
  334SOL    HW2 1323   1.003   1.036   3.525
  335SOL     OW 1324   0.705   1.050   2.230
  335SOL    HW1 1325   0.691   1.057   2.329
  335SOL    HW2 1326   0.789   0.999   2.212
  336SOL     OW 1327   0.410   0.813   3.113
  336SOL    HW1 1328   0.496   0.825   3.163
  336SOL    HW2 1329   0.368   0.726   3.140
  337SOL     OW 1330   1.274   0.386   3.124
  337SOL    HW1 1331   1.295   0.460   3.188
  337SOL    HW2 1332   1.185   0.403   3.081
  338SOL     OW 1333   0.064   1.564   3.193
  338SOL    HW1 1334   0.018   1.646   3.159
  338SOL    HW2 1335   0.162   1.583   3.202
  339SOL     OW 1336   0.367   1.100   2.363
  339SOL    HW1 1337   0.360   1.183   2.307
  339SOL    HW2 1338   0.371   1.020   2.303
  340SOL     OW 1339   0.566   0.537   2.727
  340SOL    HW1 1340   0.578   0.603   2.653
  340SOL    HW2 1341   0.612   0.571   2.810
  341SOL     OW 1342   1.252   1.348   2.250
  341SOL    HW1 1343   1.302   1.425   2.290
  341SOL    HW2 1344   1.157   1.350   2.282
  342SOL     OW 1345   1.272   1.445   3.004
  342SOL    HW1 1346   1.319   1.458   3.091
  342SOL    HW2 1347   1.206   1.371   3.013
  343SOL     OW 1348   1.582   0.639   2.334
  343SOL    HW1 1349   1.551   0.700   2.407
  343SOL    HW2 1350   1.632   0.691   2.265
  344SOL     OW 1351   0.354   1.510   3.191
  344SOL    HW1 1352   0.333   1.466   3.104
  344SOL    HW2 1353   0.451   1.536   3.194
  345SOL     OW 1354   0.402   0.751   3.460
  345SOL    HW1 1355   0.470   0.806   3.413
  345SOL    HW2 1356   0.442   0.663   3.487
  346SOL     OW 1357   1.587   0.779   3.532
  346SOL    HW1 1358   1.495   0.817   3.527
  346SOL    HW2 1359   1.647   0.826   3.467
  347SOL     OW 1360   1.013   0.105   3.632
  347SOL    HW1 1361   1.019   0.190   3.580
  347SOL    HW2 1362   1.045   0.029   3.575
  348SOL     OW 1363   0.504   0.050   3.602
  348SOL    HW1 1364   0.462  -0.007   3.532
  348SOL    HW2 1365   0.438   0.119   3.634
  349SOL     OW 1366   0.573   0.870   2.891
  349SOL    HW1 1367   0.617   0.959   2.882
  349SOL    HW2 1368   0.510   0.870   2.968
  350SOL     OW 1369   1.360   0.862   2.907
  350SOL    HW1 1370   1.285   0.862   2.841
  350SOL    HW2 1371   1.397   0.770   2.916
  351SOL     OW 1372   1.209   0.525   2.137
  351SOL    HW1 1373   1.222   0.441   2.191
  351SOL    HW2 1374   1.180   0.599   2.197
  352SOL     OW 1375   0.307   0.213   3.093
  352SOL    HW1 1376   0.284   0.250   3.183
  352SOL    HW2 1377   0.277   0.118   3.087
  353SOL     OW 1378   0.037   1.310   3.144
  353SOL    HW1 1379   0.090   1.261   3.212
  353SOL    HW2 1380   0.059   1.408   3.149
  354SOL     OW 1381   0.732   0.634   2.926
  354SOL    HW1 1382   0.791   0.608   2.850
  354SOL    HW2 1383   0.704   0.730   2.915
  355SOL     OW 1384   1.728   0.935   3.716
  355SOL    HW1 1385   1.682   0.928   3.627
  355SOL    HW2 1386   1.666   0.979   3.782
  356SOL     OW 1387   0.307   0.063   2.480
  356SOL    HW1 1388   0.296   0.157   2.513
  356SOL    HW2 1389   0.302   0.000   2.557
  357SOL     OW 1390   1.622   0.367   2.236
  357SOL    HW1 1391   1.624   0.291   2.300
  357SOL    HW2 1392   1.574   0.444   2.276
  358SOL     OW 1393   1.023   0.766   2.828
  358SOL    HW1 1394   1.038   0.787   2.924
  358SOL    HW2 1395   0.993   0.671   2.819
  359SOL     OW 1396   0.980   1.573   3.562
  359SOL    HW1 1397   0.960   1.617   3.474
  359SOL    HW2 1398   1.019   1.482   3.546
  360SOL     OW 1399   1.859   1.518   3.467
  360SOL    HW1 1400   1.873   1.545   3.372
  360SOL    HW2 1401   1.942   1.540   3.520
  361SOL     OW 1402   0.350   0.898   3.666
  361SOL    HW1 1403   0.426   0.942   3.714
  361SOL    HW2 1404   0.385   0.851   3.584
  362SOL     OW 1405   1.540   0.274   1.987
  362SOL    HW1 1406   1.479   0.199   2.010
  362SOL    HW2 1407   1.562   0.326   2.070
  363SOL     OW 1408   1.303   0.838   1.904
  363SOL    HW1 1409   1.337   0.745   1.919
  363SOL    HW2 1410   1.321   0.865   1.809
  364SOL     OW 1411   1.068   1.333   2.711
  364SOL    HW1 1412   1.075   1.249   2.656
  364SOL    HW2 1413   1.130   1.402   2.675
  365SOL     OW 1414   0.319   0.810   2.811
  365SOL    HW1 1415   0.412   0.846   2.816
  365SOL    HW2 1416   0.313   0.725   2.863
  366SOL     OW 1417   0.339   0.509   2.868
  366SOL    HW1 1418   0.287   0.426   2.851
  366SOL    HW2 1419   0.416   0.514   2.804
  367SOL     OW 1420   1.138   0.380   3.540
  367SOL    HW1 1421   1.093   0.443   3.604
  367SOL    HW2 1422   1.231   0.411   3.523
  368SOL     OW 1423   1.160   0.207   3.339
  368SOL    HW1 1424   1.160   0.271   3.416
  368SOL    HW2 1425   1.188   0.255   3.256
  369SOL     OW 1426   0.008   1.326   2.062
  369SOL    HW1 1427  -0.085   1.347   2.031
  369SOL    HW2 1428   0.018   1.227   2.075
  370SOL     OW 1429   0.088   1.801   2.789
  370SOL    HW1 1430   0.046   1.715   2.762
  370SOL    HW2 1431   0.182   1.804   2.755
  371SOL     OW 1432   0.504   1.568   2.772
  371SOL    HW1 1433   0.570   1.642   2.781
  371SOL    HW2 1434   0.548   1.489   2.730
  372SOL     OW 1435   1.002   0.796   3.100
  372SOL    HW1 1436   1.043   0.764   3.186
  372SOL    HW2 1437   0.906   0.769   3.097
  373SOL     OW 1438   0.040   0.544   2.976
  373SOL    HW1 1439   0.125   0.511   2.935
  373SOL    HW2 1440   0.053   0.559   3.074
  374SOL     OW 1441   0.189   0.520   3.584
  374SOL    HW1 1442   0.248   0.480   3.514
  374SOL    HW2 1443   0.131   0.591   3.543
  375SOL     OW 1444   1.369   0.950   3.522
  375SOL    HW1 1445   1.408   1.039   3.542
  375SOL    HW2 1446   1.379   0.930   3.425
  376SOL     OW 1447   0.815   0.572   2.187
  376SOL    HW1 1448   0.822   0.483   2.141
  376SOL    HW2 1449   0.721   0.606   2.179
  377SOL     OW 1450   0.252   1.564   3.606
  377SOL    HW1 1451   0.222   1.621   3.682
  377SOL    HW2 1452   0.245   1.467   3.632
  378SOL     OW 1453   0.671   0.464   3.131
  378SOL    HW1 1454   0.637   0.375   3.101
  378SOL    HW2 1455   0.697   0.518   3.051
  379SOL     OW 1456   0.930   1.678   3.327
  379SOL    HW1 1457   0.906   1.660   3.232
  379SOL    HW2 1458   0.960   1.772   3.337
  380SOL     OW 1459   0.473   0.500   2.053
  380SOL    HW1 1460   0.534   0.580   2.057
  380SOL    HW2 1461   0.378   0.531   2.060
  381SOL     OW 1462   0.159   1.137   3.328
  381SOL    HW1 1463   0.181   1.076   3.404
  381SOL    HW2 1464   0.169   1.088   3.242
  382SOL     OW 1465   1.347   1.059   3.096
  382SOL    HW1 1466   1.371   0.996   3.022
  382SOL    HW2 1467   1.257   1.099   3.078
  383SOL     OW 1468   1.302   0.855   2.171
  383SOL    HW1 1469   1.216   0.824   2.213
  383SOL    HW2 1470   1.298   0.841   2.072
  384SOL     OW 1471   1.759   1.747   3.016
  384SOL    HW1 1472   1.820   1.777   2.943
  384SOL    HW2 1473   1.721   1.658   2.994
  385SOL     OW 1474   1.252   1.731   2.990
  385SOL    HW1 1475   1.336   1.736   2.936
  385SOL    HW2 1476   1.229   1.635   3.008
  386SOL     OW 1477   0.083   1.258   2.884
  386SOL    HW1 1478   0.078   1.257   2.984
  386SOL    HW2 1479   0.000   1.217   2.846
  387SOL     OW 1480   0.688   1.662   3.578
  387SOL    HW1 1481   0.632   1.743   3.587
  387SOL    HW2 1482   0.740   1.666   3.492
  388SOL     OW 1483   1.726   0.135   2.385
  388SOL    HW1 1484   1.799   0.118   2.318
  388SOL    HW2 1485   1.695   0.048   2.423
  389SOL     OW 1486   1.388   1.573   2.339
  389SOL    HW1 1487   1.455   1.585   2.265
  389SOL    HW2 1488   1.348   1.662   2.362
  390SOL     OW 1489   0.130   1.794   3.713
  390SOL    HW1 1490   0.089   1.720   3.766
  390SOL    HW2 1491   0.194   1.845   3.771
  391SOL     OW 1492   1.280   0.927   2.534
  391SOL    HW1 1493   1.340   0.846   2.536
  391SOL    HW2 1494   1.320   0.996   2.474
  392SOL     OW 1495   0.672   1.616   2.016
  392SOL    HW1 1496   0.681   1.626   1.917
  392SOL    HW2 1497   0.632   1.527   2.037
  393SOL     OW 1498   1.650   1.720   3.256
  393SOL    HW1 1499   1.703   1.730   3.172
  393SOL    HW2 1500   1.623   1.810   3.290
  394SOL     OW 1501   1.841   0.175   2.825
  394SOL    HW1 1502   1.880   0.090   2.789
  394SOL    HW2 1503   1.743   0.177   2.806
  395SOL     OW 1504   0.263   0.326   2.582
  395SOL    HW1 1505   0.184   0.377   2.548
  395SOL    HW2 1506   0.254   0.311   2.680
  396SOL     OW 1507   1.194   1.612   1.893
  396SOL    HW1 1508   1.200   1.519   1.930
  396SOL    HW2 1509   1.135   1.612   1.813
  397SOL     OW 1510   0.822   1.002   3.234
  397SOL    HW1 1511   0.862   1.001   3.142
  397SOL    HW2 1512   0.832   1.094   3.274
  398SOL     OW 1513   0.916   0.910   2.153
  398SOL    HW1 1514   0.979   0.948   2.085
  398SOL    HW2 1515   0.956   0.827   2.192
  399SOL     OW 1516   1.504   1.607   1.906
  399SOL    HW1 1517   1.412   1.644   1.913
  399SOL    HW2 1518   1.542   1.627   1.816
  400SOL     OW 1519   0.372   1.288   3.352
  400SOL    HW1 1520   0.359   1.381   3.318
  400SOL    HW2 1521   0.288   1.236   3.339
  401SOL     OW 1522   1.614   1.292   3.151
  401SOL    HW1 1523   1.674   1.295   3.231
  401SOL    HW2 1524   1.539   1.356   3.164
  402SOL     OW 1525   1.039   1.098   2.558
  402SOL    HW1 1526   0.969   1.051   2.612
  402SOL    HW2 1527   1.098   1.030   2.515
  403SOL     OW 1528   1.014   0.236   2.833
  403SOL    HW1 1529   1.006   0.200   2.740
  403SOL    HW2 1530   1.012   0.160   2.898
  404SOL     OW 1531   0.590   1.487   2.353
  404SOL    HW1 1532   0.632   1.429   2.283
  404SOL    HW2 1533   0.546   1.566   2.309
  405SOL     OW 1534   1.709   0.385   3.243
  405SOL    HW1 1535   1.782   0.454   3.247
  405SOL    HW2 1536   1.737   0.310   3.184
  406SOL     OW 1537   0.255   1.348   2.152
  406SOL    HW1 1538   0.159   1.349   2.125
  406SOL    HW2 1539   0.267   1.401   2.236
  407SOL     OW 1540   0.105   1.013   3.588
  407SOL    HW1 1541   0.028   0.980   3.642
  407SOL    HW2 1542   0.190   0.983   3.630
  408SOL     OW 1543   0.672   0.203   3.351
  408SOL    HW1 1544   0.762   0.187   3.311
  408SOL    HW2 1545   0.680   0.208   3.450
  409SOL     OW 1546   0.075   0.345   1.895
  409SOL    HW1 1547  -0.017   0.317   1.866
  409SOL    HW2 1548   0.106   0.422   1.839
  410SOL     OW 1549   1.440   0.856   3.260
  410SOL    HW1 1550   1.383   0.908   3.197
  410SOL    HW2 1551   1.536   0.868   3.236
  411SOL     OW 1552   0.072   0.166   2.180
  411SOL    HW1 1553   0.055   0.249   2.126
  411SOL    HW2 1554   0.162   0.129   2.158
  412SOL     OW 1555   1.183   1.335   1.981
  412SOL    HW1 1556   1.084   1.324   1.983
  412SOL    HW2 1557   1.217   1.350   2.074
  413SOL     OW 1558   0.613   0.842   3.293
  413SOL    HW1 1559   0.669   0.923   3.276
  413SOL    HW2 1560   0.672   0.762   3.296
  414SOL     OW 1561   1.493   1.767   2.821
  414SOL    HW1 1562   1.526   1.831   2.752
  414SOL    HW2 1563   1.559   1.761   2.896
  415SOL     OW 1564   0.716   0.565   3.570
  415SOL    HW1 1565   0.735   0.630   3.644
  415SOL    HW2 1566   0.776   0.485   3.579
  416SOL     OW 1567   1.450   1.220   3.495
  416SOL    HW1 1568   1.441   1.210   3.594
  416SOL    HW2 1569   1.546   1.213   3.469
  417SOL     OW 1570   0.390   1.741   3.422
  417SOL    HW1 1571   0.299   1.782   3.420
  417SOL    HW2 1572   0.383   1.647   3.454
  418SOL     OW 1573   1.674   0.883   3.116
  418SOL    HW1 1574   1.647   0.794   3.079
  418SOL    HW2 1575   1.675   0.951   3.043
  419SOL     OW 1576   1.225   0.325   2.311
  419SOL    HW1 1577   1.290   0.251   2.300
  419SOL    HW2 1578   1.245   0.375   2.395
  420SOL     OW 1579   0.594   0.745   2.514
  420SOL    HW1 1580   0.644   0.830   2.495
  420SOL    HW2 1581   0.506   0.747   2.466
  421SOL     OW 1582   1.777   0.342   3.504
  421SOL    HW1 1583   1.760   0.373   3.410
  421SOL    HW2 1584   1.693   0.305   3.542
  422SOL     OW 1585   1.730   0.934   3.379
  422SOL    HW1 1586   1.768   1.025   3.394
  422SOL    HW2 1587   1.722   0.917   3.280
  423SOL     OW 1588   0.859   1.374   1.878
  423SOL    HW1 1589   0.813   1.389   1.966
  423SOL    HW2 1590   0.903   1.459   1.848
  424SOL     OW 1591   0.661   1.790   2.815
  424SOL    HW1 1592   0.615   1.878   2.802
  424SOL    HW2 1593   0.760   1.802   2.808
  425SOL     OW 1594   0.859   0.956   2.723
  425SOL    HW1 1595   0.913   0.887   2.771
  425SOL    HW2 1596   0.827   1.025   2.789
  426SOL     OW 1597   1.083   0.984   1.949
  426SOL    HW1 1598   1.060   1.037   1.867
  426SOL    HW2 1599   1.164   0.928   1.930
  427SOL     OW 1600   1.861   1.569   2.713
  427SOL    HW1 1601   1.790   1.557   2.643
  427SOL    HW2 1602   1.862   1.490   2.773
  428SOL     OW 1603   0.221   1.314   3.706
  428SOL    HW1 1604   0.156   1.241   3.685
  428SOL    HW2 1605   0.225   1.328   3.804
  429SOL     OW 1606   0.079   1.240   2.515
  429SOL    HW1 1607   0.078   1.193   2.603
  429SOL    HW2 1608   0.161   1.212   2.464
  430SOL     OW 1609   0.672   1.391   3.486
  430SOL    HW1 1610   0.594   1.341   3.524
  430SOL    HW2 1611   0.669   1.486   3.517
  431SOL     OW 1612   1.824   0.192   3.089
  431SOL    HW1 1613   1.820   0.102   3.133
  431SOL    HW2 1614   1.827   0.181   2.990
  432SOL     OW 1615   0.428   0.424   2.382
  432SOL    HW1 1616   0.458   0.352   2.320
  432SOL    HW2 1617   0.389   0.384   2.465
  433SOL     OW 1618   1.705   1.487   2.966
  433SOL    HW1 1619   1.612   1.462   2.939
  433SOL    HW2 1620   1.731   1.437   3.048
  434SOL     OW 1621   0.317   0.547   3.142
  434SOL    HW1 1622   0.355   0.488   3.214
  434SOL    HW2 1623   0.357   0.521   3.054
  435SOL     OW 1624   0.812   1.586   2.549
  435SOL    HW1 1625   0.844   1.596   2.455
  435SOL    HW2 1626   0.733   1.524   2.551
  436SOL     OW 1627   1.424   0.214   2.974
  436SOL    HW1 1628   1.476   0.149   3.029
  436SOL    HW2 1629   1.375   0.277   3.035
  437SOL     OW 1630   1.001   0.034   3.016
  437SOL    HW1 1631   0.938  -0.038   2.985
  437SOL    HW2 1632   1.094  -0.002   3.016
  438SOL     OW 1633   0.770   1.330   2.163
  438SOL    HW1 1634   0.724   1.243   2.180
  438SOL    HW2 1635   0.861   1.327   2.204
  439SOL     OW 1636   0.618   1.567   3.146
  439SOL    HW1 1637   0.613   1.649   3.203
  439SOL    HW2 1638   0.707   1.564   3.101
  440SOL     OW 1639   1.352   0.052   2.030
  440SOL    HW1 1640   1.387   0.011   1.946
  440SOL    HW2 1641   1.262   0.014   2.050
  441SOL     OW 1642   1.300   0.453   2.553
  441SOL    HW1 1643   1.241   0.533   2.557
  441SOL    HW2 1644   1.315   0.418   2.646
  442SOL     OW 1645   1.593   0.221   2.744
  442SOL    HW1 1646   1.509   0.220   2.798
  442SOL    HW2 1647   1.595   0.304   2.688
  443SOL     OW 1648   0.039   1.077   2.162
  443SOL    HW1 1649   0.138   1.066   2.153
  443SOL    HW2 1650  -0.001   0.991   2.194
  444SOL     OW 1651   0.875   1.646   2.199
  444SOL    HW1 1652   0.798   1.611   2.145
  444SOL    HW2 1653   0.843   1.717   2.261
  445SOL     OW 1654   0.230   0.628   3.837
  445SOL    HW1 1655   0.137   0.626   3.874
  445SOL    HW2 1656   0.231   0.589   3.745
  446SOL     OW 1657   0.225   0.275   4.720
  446SOL    HW1 1658   0.260   0.258   4.812
  446SOL    HW2 1659   0.137   0.230   4.708
  447SOL     OW 1660   0.019   0.368   4.371
  447SOL    HW1 1661  -0.063   0.411   4.410
  447SOL    HW2 1662  -0.009   0.295   4.308
  448SOL     OW 1663   0.569   1.275   4.889
  448SOL    HW1 1664   0.476   1.268   4.852
  448SOL    HW2 1665   0.580   1.364   4.933
  449SOL     OW 1666   1.555   1.511   4.427
  449SOL    HW1 1667   1.498   1.495   4.508
  449SOL    HW2 1668   1.496   1.521   4.347
  450SOL     OW 1669   1.135   0.703   4.441
  450SOL    HW1 1670   1.192   0.781   4.416
  450SOL    HW2 1671   1.075   0.729   4.517
  451SOL     OW 1672   1.755   0.607   3.955
  451SOL    HW1 1673   1.743   0.594   3.856
  451SOL    HW2 1674   1.725   0.526   4.004
  452SOL     OW 1675   0.768   1.144   4.747
  452SOL    HW1 1676   0.690   1.161   4.807
  452SOL    HW2 1677   0.802   1.231   4.711
  453SOL     OW 1678   0.850   0.798   5.547
  453SOL    HW1 1679   0.846   0.874   5.612
  453SOL    HW2 1680   0.872   0.834   5.456
  454SOL     OW 1681   0.685   1.012   4.389
  454SOL    HW1 1682   0.754   0.996   4.459
  454SOL    HW2 1683   0.612   1.069   4.427
  455SOL     OW 1684   0.686   1.161   5.527
  455SOL    HW1 1685   0.746   1.240   5.541
  455SOL    HW2 1686   0.600   1.192   5.486
  456SOL     OW 1687   0.335   1.435   4.785
  456SOL    HW1 1688   0.257   1.404   4.732
  456SOL    HW2 1689   0.393   1.493   4.728
  457SOL     OW 1690   1.460   1.505   5.063
  457SOL    HW1 1691   1.484   1.599   5.089
  457SOL    HW2 1692   1.444   1.451   5.145
  458SOL     OW 1693   0.438   0.392   5.223
  458SOL    HW1 1694   0.520   0.336   5.232
  458SOL    HW2 1695   0.357   0.334   5.227
  459SOL     OW 1696   1.603   0.447   4.461
  459SOL    HW1 1697   1.529   0.493   4.411
  459SOL    HW2 1698   1.654   0.515   4.514
  460SOL     OW 1699   0.231   1.713   4.207
  460SOL    HW1 1700   0.265   1.790   4.261
  460SOL    HW2 1701   0.275   1.713   4.117
  461SOL     OW 1702   1.127   1.341   5.414
  461SOL    HW1 1703   1.174   1.341   5.502
  461SOL    HW2 1704   1.079   1.254   5.403
  462SOL     OW 1705   0.230   1.434   4.262
  462SOL    HW1 1706   0.204   1.530   4.262
  462SOL    HW2 1707   0.159   1.380   4.307
  463SOL     OW 1708   0.240   1.091   4.610
  463SOL    HW1 1709   0.254   1.007   4.662
  463SOL    HW2 1710   0.185   1.155   4.665
  464SOL     OW 1711   0.620   1.786   5.163
  464SOL    HW1 1712   0.528   1.769   5.198
  464SOL    HW2 1713   0.648   1.878   5.189
  465SOL     OW 1714   0.606   0.964   3.847
  465SOL    HW1 1715   0.613   1.048   3.793
  465SOL    HW2 1716   0.652   0.977   3.935
  466SOL     OW 1717   1.594   0.114   5.204
  466SOL    HW1 1718   1.576   0.181   5.132
  466SOL    HW2 1719   1.591   0.160   5.293
  467SOL     OW 1720   0.122   0.643   4.287
  467SOL    HW1 1721   0.077   0.555   4.304
  467SOL    HW2 1722   0.121   0.697   4.371
  468SOL     OW 1723   1.842   1.767   4.083
  468SOL    HW1 1724   1.896   1.738   4.163
  468SOL    HW2 1725   1.872   1.857   4.054
  469SOL     OW 1726   0.027   1.596   3.841
  469SOL    HW1 1727   0.008   1.500   3.862
  469SOL    HW2 1728  -0.006   1.654   3.916
  470SOL     OW 1729   1.689   0.922   4.336
  470SOL    HW1 1730   1.784   0.893   4.344
  470SOL    HW2 1731   1.681   0.987   4.261
  471SOL     OW 1732   1.641   1.108   4.156
  471SOL    HW1 1733   1.727   1.110   4.104
  471SOL    HW2 1734   1.655   1.155   4.244
  472SOL     OW 1735   0.113   0.737   5.321
  472SOL    HW1 1736   0.201   0.724   5.366
  472SOL    HW2 1737   0.100   0.834   5.299
  473SOL     OW 1738   0.613   1.365   4.450
  473SOL    HW1 1739   0.564   1.278   4.459
  473SOL    HW2 1740   0.590   1.408   4.363
  474SOL     OW 1741   1.293   1.228   5.147
  474SOL    HW1 1742   1.330   1.155   5.089
  474SOL    HW2 1743   1.345   1.233   5.232
  475SOL     OW 1744   0.809   0.004   4.226
  475SOL    HW1 1745   0.849   0.095   4.217
  475SOL    HW2 1746   0.709   0.012   4.232
  476SOL     OW 1747   0.197   0.976   4.988
  476SOL    HW1 1748   0.286   0.931   4.974
  476SOL    HW2 1749   0.124   0.911   4.969
  477SOL     OW 1750   1.525   0.999   3.914
  477SOL    HW1 1751   1.462   0.923   3.927
  477SOL    HW2 1752   1.573   1.017   4.000
  478SOL     OW 1753   1.187   1.792   5.340
  478SOL    HW1 1754   1.211   1.852   5.264
  478SOL    HW2 1755   1.194   1.697   5.310
  479SOL     OW 1756   0.317   0.251   5.525
  479SOL    HW1 1757   0.388   0.322   5.531
  479SOL    HW2 1758   0.229   0.290   5.553
  480SOL     OW 1759   1.466   1.417   4.677
  480SOL    HW1 1760   1.407   1.423   4.757
  480SOL    HW2 1761   1.451   1.329   4.631
  481SOL     OW 1762   1.667   1.714   4.296
  481SOL    HW1 1763   1.626   1.691   4.208
  481SOL    HW2 1764   1.649   1.640   4.361
  482SOL     OW 1765   0.598   0.729   3.994
  482SOL    HW1 1766   0.622   0.798   3.926
  482SOL    HW2 1767   0.520   0.762   4.048
  483SOL     OW 1768   1.281   0.345   4.668
  483SOL    HW1 1769   1.195   0.295   4.655
  483SOL    HW2 1770   1.343   0.291   4.724
  484SOL     OW 1771   1.576   1.662   4.031
  484SOL    HW1 1772   1.665   1.708   4.034
  484SOL    HW2 1773   1.555   1.638   3.936
  485SOL     OW 1774   0.807   0.605   5.189
  485SOL    HW1 1775   0.760   0.602   5.278
  485SOL    HW2 1776   0.756   0.550   5.123
  486SOL     OW 1777   1.394   0.469   5.398
  486SOL    HW1 1778   1.374   0.512   5.486
  486SOL    HW2 1779   1.472   0.407   5.407
  487SOL     OW 1780   0.973   0.890   5.296
  487SOL    HW1 1781   1.019   0.806   5.267
  487SOL    HW2 1782   0.917   0.924   5.221
  488SOL     OW 1783   0.991   0.410   4.966
  488SOL    HW1 1784   0.914   0.444   5.020
  488SOL    HW2 1785   0.957   0.359   4.887
  489SOL     OW 1786   1.041   0.701   4.153
  489SOL    HW1 1787   1.067   0.697   4.249
  489SOL    HW2 1788   0.956   0.650   4.139
  490SOL     OW 1789   0.076   0.811   4.513
  490SOL    HW1 1790   0.175   0.799   4.522
  490SOL    HW2 1791   0.052   0.906   4.534
  491SOL     OW 1792   0.130   1.821   5.295
  491SOL    HW1 1793   0.120   1.806   5.394
  491SOL    HW2 1794   0.044   1.857   5.259
  492SOL     OW 1795   0.865   0.348   3.919
  492SOL    HW1 1796   0.924   0.411   3.870
  492SOL    HW2 1797   0.884   0.254   3.890
  493SOL     OW 1798   1.719   0.585   5.555
  493SOL    HW1 1799   1.693   0.674   5.519
  493SOL    HW2 1800   1.717   0.517   5.482
  494SOL     OW 1801   1.362   1.144   4.269
  494SOL    HW1 1802   1.445   1.115   4.221
  494SOL    HW2 1803   1.313   1.211   4.213
  495SOL     OW 1804   0.550   0.196   4.609
  495SOL    HW1 1805   0.545   0.191   4.709
  495SOL    HW2 1806   0.552   0.292   4.580
  496SOL     OW 1807   1.008   1.456   4.201
  496SOL    HW1 1808   0.962   1.528   4.149
  496SOL    HW2 1809   1.004   1.476   4.299
  497SOL     OW 1810   0.351   1.801   4.577
  497SOL    HW1 1811   0.401   1.715   4.583
  497SOL    HW2 1812   0.416   1.878   4.574
  498SOL     OW 1813   1.795   1.066   4.597
  498SOL    HW1 1814   1.733   1.051   4.521
  498SOL    HW2 1815   1.743   1.077   4.682
  499SOL     OW 1816   1.227   1.550   5.230
  499SOL    HW1 1817   1.233   1.473   5.294
  499SOL    HW2 1818   1.175   1.524   5.150
  500SOL     OW 1819   0.321   0.943   3.966
  500SOL    HW1 1820   0.403   0.982   3.924
  500SOL    HW2 1821   0.294   0.861   3.917
  501SOL     OW 1822   1.458   0.735   4.452
  501SOL    HW1 1823   1.453   0.670   4.527
  501SOL    HW2 1824   1.538   0.794   4.465
  502SOL     OW 1825   0.461   1.266   5.451
  502SOL    HW1 1826   0.411   1.267   5.365
  502SOL    HW2 1827   0.398   1.248   5.527
  503SOL     OW 1828   1.111   1.776   3.961
  503SOL    HW1 1829   1.051   1.714   4.011
  503SOL    HW2 1830   1.142   1.732   3.876
  504SOL     OW 1831   0.202   0.285   5.222
  504SOL    HW1 1832   0.122   0.345   5.209
  504SOL    HW2 1833   0.192   0.236   5.308
  505SOL     OW 1834   1.632   1.377   3.805
  505SOL    HW1 1835   1.600   1.471   3.795
  505SOL    HW2 1836   1.556   1.314   3.793
  506SOL     OW 1837   0.464   1.743   4.047
  506SOL    HW1 1838   0.497   1.782   4.133
  506SOL    HW2 1839   0.540   1.736   3.982
  507SOL     OW 1840   1.400   0.107   4.150
  507SOL    HW1 1841   1.376   0.070   4.060
  507SOL    HW2 1842   1.499   0.123   4.154
  508SOL     OW 1843   0.249   1.785   4.965
  508SOL    HW1 1844   0.306   1.720   5.015
  508SOL    HW2 1845   0.233   1.752   4.872
  509SOL     OW 1846   0.940   1.698   4.628
  509SOL    HW1 1847   1.020   1.641   4.649
  509SOL    HW2 1848   0.891   1.658   4.551
  510SOL     OW 1849   0.382   0.700   4.204
  510SOL    HW1 1850   0.427   0.610   4.201
  510SOL    HW2 1851   0.288   0.689   4.237
  511SOL     OW 1852   1.547   0.222   5.453
  511SOL    HW1 1853   1.542   0.259   5.545
  511SOL    HW2 1854   1.475   0.153   5.441
  512SOL     OW 1855   0.614   0.122   3.841
  512SOL    HW1 1856   0.712   0.100   3.848
  512SOL    HW2 1857   0.583   0.105   3.748
  513SOL     OW 1858   0.781   0.264   5.473
  513SOL    HW1 1859   0.848   0.203   5.516
  513SOL    HW2 1860   0.708   0.283   5.538
  514SOL     OW 1861   0.888   1.514   4.919
  514SOL    HW1 1862   0.865   1.489   4.825
  514SOL    HW2 1863   0.949   1.445   4.958
  515SOL     OW 1864   1.351   0.590   5.157
  515SOL    HW1 1865   1.379   0.547   5.242
  515SOL    HW2 1866   1.376   0.686   5.158
  516SOL     OW 1867   0.803   1.402   4.648
  516SOL    HW1 1868   0.893   1.416   4.606
  516SOL    HW2 1869   0.732   1.404   4.577
  517SOL     OW 1870   0.922   0.503   4.623
  517SOL    HW1 1871   0.897   0.494   4.527
  517SOL    HW2 1872   0.970   0.421   4.654
  518SOL     OW 1873   0.539   0.064   4.236
  518SOL    HW1 1874   0.458   0.065   4.294
  518SOL    HW2 1875   0.542   0.147   4.181
  519SOL     OW 1876   1.434   1.188   3.765
  519SOL    HW1 1877   1.466   1.112   3.822
  519SOL    HW2 1878   1.342   1.215   3.795
  520SOL     OW 1879   0.297   0.035   3.895
  520SOL    HW1 1880   0.346   0.119   3.874
  520SOL    HW2 1881   0.359  -0.030   3.940
  521SOL     OW 1882   0.935   0.236   4.204
  521SOL    HW1 1883   0.887   0.277   4.126
  521SOL    HW2 1884   1.034   0.234   4.185
  522SOL     OW 1885   1.076   0.683   5.188
  522SOL    HW1 1886   0.996   0.622   5.191
  522SOL    HW2 1887   1.157   0.630   5.164
  523SOL     OW 1888   1.227   1.570   4.517
  523SOL    HW1 1889   1.248   1.644   4.452
  523SOL    HW2 1890   1.295   1.570   4.590
  524SOL     OW 1891   0.459   1.152   4.465
  524SOL    HW1 1892   0.388   1.125   4.530
  524SOL    HW2 1893   0.433   1.124   4.372
  525SOL     OW 1894   1.271   1.797   4.315
  525SOL    HW1 1895   1.315   1.861   4.251
  525SOL    HW2 1896   1.221   1.849   4.385
  526SOL     OW 1897   1.032   0.549   3.740
  526SOL    HW1 1898   0.991   0.631   3.701
  526SOL    HW2 1899   1.096   0.575   3.813
  527SOL     OW 1900   0.078   0.556   5.110
  527SOL    HW1 1901   0.170   0.555   5.069
  527SOL    HW2 1902   0.072   0.630   5.177
  528SOL     OW 1903   0.561   0.222   4.871
  528SOL    HW1 1904   0.599   0.138   4.908
  528SOL    HW2 1905   0.473   0.241   4.915
  529SOL     OW 1906   0.866   0.454   4.366
  529SOL    HW1 1907   0.834   0.526   4.304
  529SOL    HW2 1908   0.890   0.373   4.313
  530SOL     OW 1909   1.017   0.039   4.477
  530SOL    HW1 1910   0.945   0.044   4.408
  530SOL    HW2 1911   0.993  -0.030   4.546
  531SOL     OW 1912   1.429   1.173   4.591
  531SOL    HW1 1913   1.374   1.089   4.584
  531SOL    HW2 1914   1.455   1.202   4.499
  532SOL     OW 1915   1.466   0.590   4.716
  532SOL    HW1 1916   1.436   0.495   4.723
  532SOL    HW2 1917   1.539   0.606   4.782
  533SOL     OW 1918   1.857   0.833   4.101
  533SOL    HW1 1919   1.899   0.769   4.165
  533SOL    HW2 1920   1.819   0.782   4.023
  534SOL     OW 1921   0.488   1.385   3.898
  534SOL    HW1 1922   0.401   1.370   3.945
  534SOL    HW2 1923   0.471   1.411   3.803
  535SOL     OW 1924   1.664   1.280   4.381
  535SOL    HW1 1925   1.763   1.288   4.395
  535SOL    HW2 1926   1.619   1.364   4.412
  536SOL     OW 1927   1.390   0.575   3.802
  536SOL    HW1 1928   1.336   0.554   3.883
  536SOL    HW2 1929   1.481   0.534   3.811
  537SOL     OW 1930   0.527   0.256   4.052
  537SOL    HW1 1931   0.554   0.197   3.977
  537SOL    HW2 1932   0.527   0.351   4.021
  538SOL     OW 1933   1.754   1.223   5.312
  538SOL    HW1 1934   1.845   1.184   5.299
  538SOL    HW2 1935   1.762   1.319   5.336
  539SOL     OW 1936   1.064   1.347   5.064
  539SOL    HW1 1937   0.984   1.324   5.119
  539SOL    HW2 1938   1.147   1.321   5.113
  540SOL     OW 1939   1.592   1.629   5.349
  540SOL    HW1 1940   1.619   1.663   5.259
  540SOL    HW2 1941   1.671   1.591   5.395
  541SOL     OW 1942   1.111   1.195   4.824
  541SOL    HW1 1943   1.071   1.239   4.905
  541SOL    HW2 1944   1.070   1.232   4.741
  542SOL     OW 1945   1.638   1.099   4.803
  542SOL    HW1 1946   1.643   1.180   4.862
  542SOL    HW2 1947   1.552   1.101   4.752
  543SOL     OW 1948   0.915   0.089   5.126
  543SOL    HW1 1949   0.940   0.069   5.031
  543SOL    HW2 1950   0.987   0.145   5.168
  544SOL     OW 1951   0.980   1.116   5.443
  544SOL    HW1 1952   0.881   1.122   5.453
  544SOL    HW2 1953   1.003   1.036   5.387
  545SOL     OW 1954   0.705   1.050   4.092
  545SOL    HW1 1955   0.691   1.057   4.191
  545SOL    HW2 1956   0.789   0.999   4.074
  546SOL     OW 1957   0.410   0.813   4.975
  546SOL    HW1 1958   0.496   0.825   5.025
  546SOL    HW2 1959   0.368   0.726   5.002
  547SOL     OW 1960   1.274   0.386   4.986
  547SOL    HW1 1961   1.295   0.460   5.050
  547SOL    HW2 1962   1.185   0.403   4.943
  548SOL     OW 1963   0.064   1.564   5.055
  548SOL    HW1 1964   0.018   1.646   5.021
  548SOL    HW2 1965   0.162   1.583   5.064
  549SOL     OW 1966   0.367   1.100   4.225
  549SOL    HW1 1967   0.360   1.183   4.169
  549SOL    HW2 1968   0.371   1.020   4.165
  550SOL     OW 1969   0.566   0.537   4.589
  550SOL    HW1 1970   0.578   0.603   4.515
  550SOL    HW2 1971   0.612   0.571   4.672
  551SOL     OW 1972   1.252   1.348   4.112
  551SOL    HW1 1973   1.302   1.425   4.152
  551SOL    HW2 1974   1.157   1.350   4.144
  552SOL     OW 1975   1.272   1.445   4.866
  552SOL    HW1 1976   1.319   1.458   4.953
  552SOL    HW2 1977   1.206   1.371   4.875
  553SOL     OW 1978   1.582   0.639   4.196
  553SOL    HW1 1979   1.551   0.700   4.269
  553SOL    HW2 1980   1.632   0.691   4.127
  554SOL     OW 1981   0.354   1.510   5.053
  554SOL    HW1 1982   0.333   1.466   4.966
  554SOL    HW2 1983   0.451   1.536   5.056
  555SOL     OW 1984   0.402   0.751   5.322
  555SOL    HW1 1985   0.470   0.806   5.275
  555SOL    HW2 1986   0.442   0.663   5.349
  556SOL     OW 1987   1.587   0.779   5.394
  556SOL    HW1 1988   1.495   0.817   5.389
  556SOL    HW2 1989   1.647   0.826   5.329
  557SOL     OW 1990   1.013   0.105   5.494
  557SOL    HW1 1991   1.019   0.190   5.442
  557SOL    HW2 1992   1.045   0.029   5.437
  558SOL     OW 1993   0.504   0.050   5.464
  558SOL    HW1 1994   0.462  -0.007   5.394
  558SOL    HW2 1995   0.438   0.119   5.496
  559SOL     OW 1996   0.573   0.870   4.753
  559SOL    HW1 1997   0.617   0.959   4.744
  559SOL    HW2 1998   0.510   0.870   4.830
  560SOL     OW 1999   1.360   0.862   4.769
  560SOL    HW1 2000   1.285   0.862   4.703
  560SOL    HW2 2001   1.397   0.770   4.778
  561SOL     OW 2002   1.209   0.525   3.999
  561SOL    HW1 2003   1.222   0.441   4.053
  561SOL    HW2 2004   1.180   0.599   4.059
  562SOL     OW 2005   0.307   0.213   4.955
  562SOL    HW1 2006   0.284   0.250   5.045
  562SOL    HW2 2007   0.277   0.118   4.949
  563SOL     OW 2008   0.037   1.310   5.006
  563SOL    HW1 2009   0.090   1.261   5.074
  563SOL    HW2 2010   0.059   1.408   5.011
  564SOL     OW 2011   0.732   0.634   4.788
  564SOL    HW1 2012   0.791   0.608   4.712
  564SOL    HW2 2013   0.704   0.730   4.777
  565SOL     OW 2014   1.728   0.935   5.578
  565SOL    HW1 2015   1.682   0.928   5.489
  565SOL    HW2 2016   1.666   0.979   5.644
  566SOL     OW 2017   0.307   0.063   4.342
  566SOL    HW1 2018   0.296   0.157   4.375
  566SOL    HW2 2019   0.302   0.000   4.419
  567SOL     OW 2020   1.622   0.367   4.098
  567SOL    HW1 2021   1.624   0.291   4.162
  567SOL    HW2 2022   1.574   0.444   4.138
  568SOL     OW 2023   1.023   0.766   4.690
  568SOL    HW1 2024   1.038   0.787   4.786
  568SOL    HW2 2025   0.993   0.671   4.681
  569SOL     OW 2026   0.980   1.573   5.424
  569SOL    HW1 2027   0.960   1.617   5.336
  569SOL    HW2 2028   1.019   1.482   5.408
  570SOL     OW 2029   1.859   1.518   5.329
  570SOL    HW1 2030   1.873   1.545   5.234
  570SOL    HW2 2031   1.942   1.540   5.382
  571SOL     OW 2032   0.350   0.898   5.528
  571SOL    HW1 2033   0.426   0.942   5.576
  571SOL    HW2 2034   0.385   0.851   5.446
  572SOL     OW 2035   1.540   0.274   3.849
  572SOL    HW1 2036   1.479   0.199   3.872
  572SOL    HW2 2037   1.562   0.326   3.932
  573SOL     OW 2038   1.303   0.838   3.766
  573SOL    HW1 2039   1.337   0.745   3.781
  573SOL    HW2 2040   1.321   0.865   3.671
  574SOL     OW 2041   1.068   1.333   4.573
  574SOL    HW1 2042   1.075   1.249   4.518
  574SOL    HW2 2043   1.130   1.402   4.537
  575SOL     OW 2044   0.319   0.810   4.673
  575SOL    HW1 2045   0.412   0.846   4.678
  575SOL    HW2 2046   0.313   0.725   4.725
  576SOL     OW 2047   0.339   0.509   4.730
  576SOL    HW1 2048   0.287   0.426   4.713
  576SOL    HW2 2049   0.416   0.514   4.666
  577SOL     OW 2050   1.138   0.380   5.402
  577SOL    HW1 2051   1.093   0.443   5.466
  577SOL    HW2 2052   1.231   0.411   5.385
  578SOL     OW 2053   1.160   0.207   5.201
  578SOL    HW1 2054   1.160   0.271   5.278
  578SOL    HW2 2055   1.188   0.255   5.118
  579SOL     OW 2056   0.008   1.326   3.924
  579SOL    HW1 2057  -0.085   1.347   3.893
  579SOL    HW2 2058   0.018   1.227   3.937
  580SOL     OW 2059   0.088   1.801   4.651
  580SOL    HW1 2060   0.046   1.715   4.624
  580SOL    HW2 2061   0.182   1.804   4.617
  581SOL     OW 2062   0.504   1.568   4.634
  581SOL    HW1 2063   0.570   1.642   4.643
  581SOL    HW2 2064   0.548   1.489   4.592
  582SOL     OW 2065   1.002   0.796   4.962
  582SOL    HW1 2066   1.043   0.764   5.048
  582SOL    HW2 2067   0.906   0.769   4.959
  583SOL     OW 2068   0.040   0.544   4.838
  583SOL    HW1 2069   0.125   0.511   4.797
  583SOL    HW2 2070   0.053   0.559   4.936
  584SOL     OW 2071   0.189   0.520   5.446
  584SOL    HW1 2072   0.248   0.480   5.376
  584SOL    HW2 2073   0.131   0.591   5.405
  585SOL     OW 2074   1.369   0.950   5.384
  585SOL    HW1 2075   1.408   1.039   5.404
  585SOL    HW2 2076   1.379   0.930   5.287
  586SOL     OW 2077   0.815   0.572   4.049
  586SOL    HW1 2078   0.822   0.483   4.003
  586SOL    HW2 2079   0.721   0.606   4.041
  587SOL     OW 2080   1.657   0.604   4.930
  587SOL    HW1 2081   1.619   0.535   4.992
  587SOL    HW2 2082   1.739   0.568   4.886
  588SOL     OW 2083   0.252   1.564   5.468
  588SOL    HW1 2084   0.222   1.621   5.544
  588SOL    HW2 2085   0.245   1.467   5.494
  589SOL     OW 2086   0.671   0.464   4.993
  589SOL    HW1 2087   0.637   0.375   4.963
  589SOL    HW2 2088   0.697   0.518   4.913
  590SOL     OW 2089   0.930   1.678   5.189
  590SOL    HW1 2090   0.906   1.660   5.094
  590SOL    HW2 2091   0.960   1.772   5.199
  591SOL     OW 2092   0.473   0.500   3.915
  591SOL    HW1 2093   0.534   0.580   3.919
  591SOL    HW2 2094   0.378   0.531   3.922
  592SOL     OW 2095   0.159   1.137   5.190
  592SOL    HW1 2096   0.181   1.076   5.266
  592SOL    HW2 2097   0.169   1.088   5.104
  593SOL     OW 2098   1.347   1.059   4.958
  593SOL    HW1 2099   1.371   0.996   4.884
  593SOL    HW2 2100   1.257   1.099   4.940
  594SOL     OW 2101   1.302   0.855   4.033
  594SOL    HW1 2102   1.216   0.824   4.075
  594SOL    HW2 2103   1.298   0.841   3.934
  595SOL     OW 2104   1.759   1.747   4.878
  595SOL    HW1 2105   1.820   1.777   4.805
  595SOL    HW2 2106   1.721   1.658   4.856
  596SOL     OW 2107   1.252   1.731   4.852
  596SOL    HW1 2108   1.336   1.736   4.798
  596SOL    HW2 2109   1.229   1.635   4.870
  597SOL     OW 2110   0.083   1.258   4.746
  597SOL    HW1 2111   0.078   1.257   4.846
  597SOL    HW2 2112   0.000   1.217   4.708
  598SOL     OW 2113   0.688   1.662   5.440
  598SOL    HW1 2114   0.632   1.743   5.449
  598SOL    HW2 2115   0.740   1.666   5.354
  599SOL     OW 2116   1.726   0.135   4.247
  599SOL    HW1 2117   1.799   0.118   4.180
  599SOL    HW2 2118   1.695   0.048   4.285
  600SOL     OW 2119   1.388   1.573   4.201
  600SOL    HW1 2120   1.455   1.585   4.127
  600SOL    HW2 2121   1.348   1.662   4.224
  601SOL     OW 2122   0.130   1.794   5.575
  601SOL    HW1 2123   0.089   1.720   5.628
  601SOL    HW2 2124   0.194   1.845   5.633
  602SOL     OW 2125   1.280   0.927   4.396
  602SOL    HW1 2126   1.340   0.846   4.398
  602SOL    HW2 2127   1.320   0.996   4.336
  603SOL     OW 2128   0.830   1.273   5.146
  603SOL    HW1 2129   0.825   1.306   5.241
  603SOL    HW2 2130   0.744   1.292   5.100
  604SOL     OW 2131   0.672   1.616   3.878
  604SOL    HW1 2132   0.681   1.626   3.779
  604SOL    HW2 2133   0.632   1.527   3.899
  605SOL     OW 2134   1.650   1.720   5.118
  605SOL    HW1 2135   1.703   1.730   5.034
  605SOL    HW2 2136   1.623   1.810   5.152
  606SOL     OW 2137   1.841   0.175   4.687
  606SOL    HW1 2138   1.880   0.090   4.651
  606SOL    HW2 2139   1.743   0.177   4.668
  607SOL     OW 2140   0.263   0.326   4.444
  607SOL    HW1 2141   0.184   0.377   4.410
  607SOL    HW2 2142   0.254   0.311   4.542
  608SOL     OW 2143   1.194   1.612   3.755
  608SOL    HW1 2144   1.200   1.519   3.792
  608SOL    HW2 2145   1.135   1.612   3.675
  609SOL     OW 2146   0.822   1.002   5.096
  609SOL    HW1 2147   0.862   1.001   5.004
  609SOL    HW2 2148   0.832   1.094   5.136
  610SOL     OW 2149   0.916   0.910   4.015
  610SOL    HW1 2150   0.979   0.948   3.947
  610SOL    HW2 2151   0.956   0.827   4.054
  611SOL     OW 2152   1.504   1.607   3.768
  611SOL    HW1 2153   1.412   1.644   3.775
  611SOL    HW2 2154   1.542   1.627   3.678
  612SOL     OW 2155   0.372   1.288   5.214
  612SOL    HW1 2156   0.359   1.381   5.180
  612SOL    HW2 2157   0.288   1.236   5.201
  613SOL     OW 2158   1.614   1.292   5.013
  613SOL    HW1 2159   1.674   1.295   5.093
  613SOL    HW2 2160   1.539   1.356   5.026
  614SOL     OW 2161   1.039   1.098   4.420
  614SOL    HW1 2162   0.969   1.051   4.474
  614SOL    HW2 2163   1.098   1.030   4.377
  615SOL     OW 2164   1.014   0.236   4.695
  615SOL    HW1 2165   1.006   0.200   4.602
  615SOL    HW2 2166   1.012   0.160   4.760
  616SOL     OW 2167   0.590   1.487   4.215
  616SOL    HW1 2168   0.632   1.429   4.145
  616SOL    HW2 2169   0.546   1.566   4.171
  617SOL     OW 2170   1.709   0.385   5.105
  617SOL    HW1 2171   1.782   0.454   5.109
  617SOL    HW2 2172   1.737   0.310   5.046
  618SOL     OW 2173   0.255   1.348   4.014
  618SOL    HW1 2174   0.159   1.349   3.987
  618SOL    HW2 2175   0.267   1.401   4.098
  619SOL     OW 2176   0.105   1.013   5.450
  619SOL    HW1 2177   0.028   0.980   5.504
  619SOL    HW2 2178   0.190   0.983   5.492
  620SOL     OW 2179   0.672   0.203   5.213
  620SOL    HW1 2180   0.762   0.187   5.173
  620SOL    HW2 2181   0.680   0.208   5.312
  621SOL     OW 2182   0.075   0.345   3.757
  621SOL    HW1 2183  -0.017   0.317   3.728
  621SOL    HW2 2184   0.106   0.422   3.701
  622SOL     OW 2185   1.440   0.856   5.122
  622SOL    HW1 2186   1.383   0.908   5.059
  622SOL    HW2 2187   1.536   0.868   5.098
  623SOL     OW 2188   0.072   0.166   4.042
  623SOL    HW1 2189   0.055   0.249   3.988
  623SOL    HW2 2190   0.162   0.129   4.020
  624SOL     OW 2191   1.183   1.335   3.843
  624SOL    HW1 2192   1.084   1.324   3.845
  624SOL    HW2 2193   1.217   1.350   3.936
  625SOL     OW 2194   0.613   0.842   5.155
  625SOL    HW1 2195   0.669   0.923   5.138
  625SOL    HW2 2196   0.672   0.762   5.158
  626SOL     OW 2197   1.493   1.767   4.683
  626SOL    HW1 2198   1.526   1.831   4.614
  626SOL    HW2 2199   1.559   1.761   4.758
  627SOL     OW 2200   0.716   0.565   5.432
  627SOL    HW1 2201   0.735   0.630   5.506
  627SOL    HW2 2202   0.776   0.485   5.441
  628SOL     OW 2203   1.450   1.220   5.357
  628SOL    HW1 2204   1.441   1.210   5.456
  628SOL    HW2 2205   1.546   1.213   5.331
  629SOL     OW 2206   0.390   1.741   5.284
  629SOL    HW1 2207   0.299   1.782   5.282
  629SOL    HW2 2208   0.383   1.647   5.316
  630SOL     OW 2209   1.674   0.883   4.978
  630SOL    HW1 2210   1.647   0.794   4.941
  630SOL    HW2 2211   1.675   0.951   4.905
  631SOL     OW 2212   1.225   0.325   4.173
  631SOL    HW1 2213   1.290   0.251   4.162
  631SOL    HW2 2214   1.245   0.375   4.257
  632SOL     OW 2215   0.594   0.745   4.376
  632SOL    HW1 2216   0.644   0.830   4.357
  632SOL    HW2 2217   0.506   0.747   4.328
  633SOL     OW 2218   1.777   0.342   5.366
  633SOL    HW1 2219   1.760   0.373   5.272
  633SOL    HW2 2220   1.693   0.305   5.404
  634SOL     OW 2221   1.730   0.934   5.241
  634SOL    HW1 2222   1.768   1.025   5.256
  634SOL    HW2 2223   1.722   0.917   5.142
  635SOL     OW 2224   0.859   1.374   3.740
  635SOL    HW1 2225   0.813   1.389   3.828
  635SOL    HW2 2226   0.903   1.459   3.710
  636SOL     OW 2227   0.661   1.790   4.677
  636SOL    HW1 2228   0.615   1.878   4.664
  636SOL    HW2 2229   0.760   1.802   4.670
  637SOL     OW 2230   0.859   0.956   4.585
  637SOL    HW1 2231   0.913   0.887   4.633
  637SOL    HW2 2232   0.827   1.025   4.651
  638SOL     OW 2233   1.083   0.984   3.811
  638SOL    HW1 2234   1.060   1.037   3.729
  638SOL    HW2 2235   1.164   0.928   3.792
  639SOL     OW 2236   1.861   1.569   4.575
  639SOL    HW1 2237   1.790   1.557   4.505
  639SOL    HW2 2238   1.862   1.490   4.635
  640SOL     OW 2239   0.221   1.314   5.568
  640SOL    HW1 2240   0.156   1.241   5.547
  640SOL    HW2 2241   0.225   1.328   5.666
  641SOL     OW 2242   0.079   1.240   4.377
  641SOL    HW1 2243   0.078   1.193   4.465
  641SOL    HW2 2244   0.161   1.212   4.326
  642SOL     OW 2245   0.672   1.391   5.348
  642SOL    HW1 2246   0.594   1.341   5.386
  642SOL    HW2 2247   0.669   1.486   5.379
  643SOL     OW 2248   1.824   0.192   4.951
  643SOL    HW1 2249   1.820   0.102   4.995
  643SOL    HW2 2250   1.827   0.181   4.852
  644SOL     OW 2251   0.428   0.424   4.244
  644SOL    HW1 2252   0.458   0.352   4.182
  644SOL    HW2 2253   0.389   0.384   4.327
  645SOL     OW 2254   1.705   1.487   4.828
  645SOL    HW1 2255   1.612   1.462   4.801
  645SOL    HW2 2256   1.731   1.437   4.910
  646SOL     OW 2257   0.317   0.547   5.004
  646SOL    HW1 2258   0.355   0.488   5.076
  646SOL    HW2 2259   0.357   0.521   4.916
  647SOL     OW 2260   0.812   1.586   4.411
  647SOL    HW1 2261   0.844   1.596   4.317
  647SOL    HW2 2262   0.733   1.524   4.413
  648SOL     OW 2263   1.424   0.214   4.836
  648SOL    HW1 2264   1.476   0.149   4.891
  648SOL    HW2 2265   1.375   0.277   4.897
  649SOL     OW 2266   1.001   0.034   4.878
  649SOL    HW1 2267   0.938  -0.038   4.847
  649SOL    HW2 2268   1.094  -0.002   4.878
  650SOL     OW 2269   0.770   1.330   4.025
  650SOL    HW1 2270   0.724   1.243   4.042
  650SOL    HW2 2271   0.861   1.327   4.066
  651SOL     OW 2272   0.618   1.567   5.008
  651SOL    HW1 2273   0.613   1.649   5.065
  651SOL    HW2 2274   0.707   1.564   4.963
  652SOL     OW 2275   1.352   0.052   3.892
  652SOL    HW1 2276   1.387   0.011   3.808
  652SOL    HW2 2277   1.262   0.014   3.912
  653SOL     OW 2278   1.300   0.453   4.415
  653SOL    HW1 2279   1.241   0.533   4.419
  653SOL    HW2 2280   1.315   0.418   4.508
  654SOL     OW 2281   1.593   0.221   4.606
  654SOL    HW1 2282   1.509   0.220   4.660
  654SOL    HW2 2283   1.595   0.304   4.550
  655SOL     OW 2284   0.039   1.077   4.024
  655SOL    HW1 2285   0.138   1.066   4.015
  655SOL    HW2 2286  -0.001   0.991   4.056
  656SOL     OW 2287   0.875   1.646   4.061
  656SOL    HW1 2288   0.798   1.611   4.007
  656SOL    HW2 2289   0.843   1.717   4.123
  657SOL     OW 2290   0.230   2.490   0.113
  657SOL    HW1 2291   0.137   2.488   0.150
  657SOL    HW2 2292   0.231   2.451   0.021
  658SOL     OW 2293   0.225   2.137   0.996
  658SOL    HW1 2294   0.260   2.120   1.088
  658SOL    HW2 2295   0.137   2.092   0.984
  659SOL     OW 2296   0.019   2.230   0.647
  659SOL    HW1 2297  -0.063   2.273   0.686
  659SOL    HW2 2298  -0.009   2.157   0.584
  660SOL     OW 2299   0.569   3.137   1.165
  660SOL    HW1 2300   0.476   3.130   1.128
  660SOL    HW2 2301   0.580   3.226   1.209
  661SOL     OW 2302   1.555   3.373   0.703
  661SOL    HW1 2303   1.498   3.357   0.784
  661SOL    HW2 2304   1.496   3.383   0.623
  662SOL     OW 2305   1.135   2.565   0.717
  662SOL    HW1 2306   1.192   2.643   0.692
  662SOL    HW2 2307   1.075   2.591   0.793
  663SOL     OW 2308   1.755   2.469   0.231
  663SOL    HW1 2309   1.743   2.456   0.132
  663SOL    HW2 2310   1.725   2.388   0.280
  664SOL     OW 2311   0.768   3.006   1.023
  664SOL    HW1 2312   0.690   3.023   1.083
  664SOL    HW2 2313   0.802   3.093   0.987
  665SOL     OW 2314   0.850   2.660   1.823
  665SOL    HW1 2315   0.846   2.736   1.888
  665SOL    HW2 2316   0.872   2.696   1.732
  666SOL     OW 2317   0.685   2.874   0.665
  666SOL    HW1 2318   0.754   2.858   0.735
  666SOL    HW2 2319   0.612   2.931   0.703
  667SOL     OW 2320   0.686   3.023   1.803
  667SOL    HW1 2321   0.746   3.102   1.817
  667SOL    HW2 2322   0.600   3.054   1.762
  668SOL     OW 2323   0.335   3.297   1.061
  668SOL    HW1 2324   0.257   3.266   1.008
  668SOL    HW2 2325   0.393   3.355   1.004
  669SOL     OW 2326   1.460   3.367   1.339
  669SOL    HW1 2327   1.484   3.461   1.365
  669SOL    HW2 2328   1.444   3.313   1.421
  670SOL     OW 2329   0.438   2.254   1.499
  670SOL    HW1 2330   0.520   2.198   1.508
  670SOL    HW2 2331   0.357   2.196   1.503
  671SOL     OW 2332   1.603   2.309   0.737
  671SOL    HW1 2333   1.529   2.355   0.687
  671SOL    HW2 2334   1.654   2.377   0.790
  672SOL     OW 2335   0.231   3.575   0.483
  672SOL    HW1 2336   0.265   3.652   0.537
  672SOL    HW2 2337   0.275   3.575   0.393
  673SOL     OW 2338   1.127   3.203   1.690
  673SOL    HW1 2339   1.174   3.203   1.778
  673SOL    HW2 2340   1.079   3.116   1.679
  674SOL     OW 2341   0.230   3.296   0.538
  674SOL    HW1 2342   0.204   3.392   0.538
  674SOL    HW2 2343   0.159   3.242   0.583
  675SOL     OW 2344   0.240   2.953   0.886
  675SOL    HW1 2345   0.254   2.869   0.938
  675SOL    HW2 2346   0.185   3.017   0.941
  676SOL     OW 2347   0.620   3.648   1.439
  676SOL    HW1 2348   0.528   3.631   1.474
  676SOL    HW2 2349   0.648   3.740   1.465
  677SOL     OW 2350   0.606   2.826   0.123
  677SOL    HW1 2351   0.613   2.910   0.069
  677SOL    HW2 2352   0.652   2.839   0.211
  678SOL     OW 2353   1.594   1.976   1.480
  678SOL    HW1 2354   1.576   2.043   1.408
  678SOL    HW2 2355   1.591   2.022   1.569
  679SOL     OW 2356   0.122   2.505   0.563
  679SOL    HW1 2357   0.077   2.417   0.580
  679SOL    HW2 2358   0.121   2.559   0.647
  680SOL     OW 2359   1.842   3.629   0.359
  680SOL    HW1 2360   1.896   3.600   0.439
  680SOL    HW2 2361   1.872   3.719   0.330
  681SOL     OW 2362   0.027   3.458   0.117
  681SOL    HW1 2363   0.008   3.362   0.138
  681SOL    HW2 2364  -0.006   3.516   0.192
  682SOL     OW 2365   1.689   2.784   0.612
  682SOL    HW1 2366   1.784   2.755   0.620
  682SOL    HW2 2367   1.681   2.849   0.537
  683SOL     OW 2368   1.641   2.970   0.432
  683SOL    HW1 2369   1.727   2.972   0.380
  683SOL    HW2 2370   1.655   3.017   0.520
  684SOL     OW 2371   0.113   2.599   1.597
  684SOL    HW1 2372   0.201   2.586   1.642
  684SOL    HW2 2373   0.100   2.696   1.575
  685SOL     OW 2374   0.613   3.227   0.726
  685SOL    HW1 2375   0.564   3.140   0.735
  685SOL    HW2 2376   0.590   3.270   0.639
  686SOL     OW 2377   1.293   3.090   1.423
  686SOL    HW1 2378   1.330   3.017   1.365
  686SOL    HW2 2379   1.345   3.095   1.508
  687SOL     OW 2380   0.809   1.866   0.502
  687SOL    HW1 2381   0.849   1.957   0.493
  687SOL    HW2 2382   0.709   1.874   0.508
  688SOL     OW 2383   0.197   2.838   1.264
  688SOL    HW1 2384   0.286   2.793   1.250
  688SOL    HW2 2385   0.124   2.773   1.245
  689SOL     OW 2386   1.525   2.861   0.190
  689SOL    HW1 2387   1.462   2.785   0.203
  689SOL    HW2 2388   1.573   2.879   0.276
  690SOL     OW 2389   1.187   3.654   1.616
  690SOL    HW1 2390   1.211   3.714   1.540
  690SOL    HW2 2391   1.194   3.559   1.586
  691SOL     OW 2392   0.317   2.113   1.801
  691SOL    HW1 2393   0.388   2.184   1.807
  691SOL    HW2 2394   0.229   2.152   1.829
  692SOL     OW 2395   1.466   3.279   0.953
  692SOL    HW1 2396   1.407   3.285   1.033
  692SOL    HW2 2397   1.451   3.191   0.907
  693SOL     OW 2398   1.667   3.576   0.572
  693SOL    HW1 2399   1.626   3.553   0.484
  693SOL    HW2 2400   1.649   3.502   0.637
  694SOL     OW 2401   0.598   2.591   0.270
  694SOL    HW1 2402   0.622   2.660   0.202
  694SOL    HW2 2403   0.520   2.624   0.324
  695SOL     OW 2404   1.576   3.524   0.307
  695SOL    HW1 2405   1.665   3.570   0.310
  695SOL    HW2 2406   1.555   3.500   0.212
  696SOL     OW 2407   0.807   2.467   1.465
  696SOL    HW1 2408   0.760   2.464   1.554
  696SOL    HW2 2409   0.756   2.412   1.399
  697SOL     OW 2410   1.394   2.331   1.674
  697SOL    HW1 2411   1.374   2.374   1.762
  697SOL    HW2 2412   1.472   2.269   1.683
  698SOL     OW 2413   0.973   2.752   1.572
  698SOL    HW1 2414   1.019   2.668   1.543
  698SOL    HW2 2415   0.917   2.786   1.497
  699SOL     OW 2416   0.991   2.272   1.242
  699SOL    HW1 2417   0.914   2.306   1.296
  699SOL    HW2 2418   0.957   2.221   1.163
  700SOL     OW 2419   1.041   2.563   0.429
  700SOL    HW1 2420   1.067   2.559   0.525
  700SOL    HW2 2421   0.956   2.512   0.415
  701SOL     OW 2422   0.076   2.673   0.789
  701SOL    HW1 2423   0.175   2.661   0.798
  701SOL    HW2 2424   0.052   2.768   0.810
  702SOL     OW 2425   0.130   3.683   1.571
  702SOL    HW1 2426   0.120   3.668   1.670
  702SOL    HW2 2427   0.044   3.719   1.535
  703SOL     OW 2428   0.865   2.210   0.195
  703SOL    HW1 2429   0.924   2.273   0.146
  703SOL    HW2 2430   0.884   2.116   0.166
  704SOL     OW 2431   1.719   2.447   1.831
  704SOL    HW1 2432   1.693   2.536   1.795
  704SOL    HW2 2433   1.717   2.379   1.758
  705SOL     OW 2434   1.362   3.006   0.545
  705SOL    HW1 2435   1.445   2.977   0.497
  705SOL    HW2 2436   1.313   3.073   0.489
  706SOL     OW 2437   0.550   2.058   0.885
  706SOL    HW1 2438   0.545   2.053   0.985
  706SOL    HW2 2439   0.552   2.154   0.856
  707SOL     OW 2440   1.008   3.318   0.477
  707SOL    HW1 2441   0.962   3.390   0.425
  707SOL    HW2 2442   1.004   3.338   0.575
  708SOL     OW 2443   0.351   3.663   0.853
  708SOL    HW1 2444   0.401   3.577   0.859
  708SOL    HW2 2445   0.416   3.740   0.850
  709SOL     OW 2446   1.795   2.928   0.873
  709SOL    HW1 2447   1.733   2.913   0.797
  709SOL    HW2 2448   1.743   2.939   0.958
  710SOL     OW 2449   1.227   3.412   1.506
  710SOL    HW1 2450   1.233   3.335   1.570
  710SOL    HW2 2451   1.175   3.386   1.426
  711SOL     OW 2452   0.321   2.805   0.242
  711SOL    HW1 2453   0.403   2.844   0.200
  711SOL    HW2 2454   0.294   2.723   0.193
  712SOL     OW 2455   1.458   2.597   0.728
  712SOL    HW1 2456   1.453   2.532   0.803
  712SOL    HW2 2457   1.538   2.656   0.741
  713SOL     OW 2458   0.461   3.128   1.727
  713SOL    HW1 2459   0.411   3.129   1.641
  713SOL    HW2 2460   0.398   3.110   1.803
  714SOL     OW 2461   1.111   3.638   0.237
  714SOL    HW1 2462   1.051   3.576   0.287
  714SOL    HW2 2463   1.142   3.594   0.152
  715SOL     OW 2464   0.202   2.147   1.498
  715SOL    HW1 2465   0.122   2.207   1.485
  715SOL    HW2 2466   0.192   2.098   1.584
  716SOL     OW 2467   1.632   3.239   0.081
  716SOL    HW1 2468   1.600   3.333   0.071
  716SOL    HW2 2469   1.556   3.176   0.069
  717SOL     OW 2470   0.464   3.605   0.323
  717SOL    HW1 2471   0.497   3.644   0.409
  717SOL    HW2 2472   0.540   3.598   0.258
  718SOL     OW 2473   1.400   1.969   0.426
  718SOL    HW1 2474   1.376   1.932   0.336
  718SOL    HW2 2475   1.499   1.985   0.430
  719SOL     OW 2476   0.249   3.647   1.241
  719SOL    HW1 2477   0.306   3.582   1.291
  719SOL    HW2 2478   0.233   3.614   1.148
  720SOL     OW 2479   0.940   3.560   0.904
  720SOL    HW1 2480   1.020   3.503   0.925
  720SOL    HW2 2481   0.891   3.520   0.827
  721SOL     OW 2482   0.382   2.562   0.480
  721SOL    HW1 2483   0.427   2.472   0.477
  721SOL    HW2 2484   0.288   2.551   0.513
  722SOL     OW 2485   1.547   2.084   1.729
  722SOL    HW1 2486   1.542   2.121   1.821
  722SOL    HW2 2487   1.475   2.015   1.717
  723SOL     OW 2488   0.614   1.984   0.117
  723SOL    HW1 2489   0.712   1.962   0.124
  723SOL    HW2 2490   0.583   1.967   0.024
  724SOL     OW 2491   0.781   2.126   1.749
  724SOL    HW1 2492   0.848   2.065   1.792
  724SOL    HW2 2493   0.708   2.145   1.814
  725SOL     OW 2494   0.888   3.376   1.195
  725SOL    HW1 2495   0.865   3.351   1.101
  725SOL    HW2 2496   0.949   3.307   1.234
  726SOL     OW 2497   1.351   2.452   1.433
  726SOL    HW1 2498   1.379   2.409   1.518
  726SOL    HW2 2499   1.376   2.548   1.434
  727SOL     OW 2500   0.803   3.264   0.924
  727SOL    HW1 2501   0.893   3.278   0.882
  727SOL    HW2 2502   0.732   3.266   0.853
  728SOL     OW 2503   0.922   2.365   0.899
  728SOL    HW1 2504   0.897   2.356   0.803
  728SOL    HW2 2505   0.970   2.283   0.930
  729SOL     OW 2506   0.539   1.926   0.512
  729SOL    HW1 2507   0.458   1.927   0.570
  729SOL    HW2 2508   0.542   2.009   0.457
  730SOL     OW 2509   1.434   3.050   0.041
  730SOL    HW1 2510   1.466   2.974   0.098
  730SOL    HW2 2511   1.342   3.077   0.071
  731SOL     OW 2512   0.297   1.897   0.171
  731SOL    HW1 2513   0.346   1.981   0.150
  731SOL    HW2 2514   0.359   1.832   0.216
  732SOL     OW 2515   0.935   2.098   0.480
  732SOL    HW1 2516   0.887   2.139   0.402
  732SOL    HW2 2517   1.034   2.096   0.461
  733SOL     OW 2518   1.076   2.545   1.464
  733SOL    HW1 2519   0.996   2.484   1.467
  733SOL    HW2 2520   1.157   2.492   1.440
  734SOL     OW 2521   1.227   3.432   0.793
  734SOL    HW1 2522   1.248   3.506   0.728
  734SOL    HW2 2523   1.295   3.432   0.866
  735SOL     OW 2524   0.459   3.014   0.741
  735SOL    HW1 2525   0.388   2.987   0.806
  735SOL    HW2 2526   0.433   2.986   0.648
  736SOL     OW 2527   1.271   3.659   0.591
  736SOL    HW1 2528   1.315   3.723   0.527
  736SOL    HW2 2529   1.221   3.711   0.661
  737SOL     OW 2530   1.032   2.411   0.016
  737SOL    HW1 2531   0.991   2.493  -0.023
  737SOL    HW2 2532   1.096   2.437   0.089
  738SOL     OW 2533   0.078   2.418   1.386
  738SOL    HW1 2534   0.170   2.417   1.345
  738SOL    HW2 2535   0.072   2.492   1.453
  739SOL     OW 2536   0.561   2.084   1.147
  739SOL    HW1 2537   0.599   2.000   1.184
  739SOL    HW2 2538   0.473   2.103   1.191
  740SOL     OW 2539   0.866   2.316   0.642
  740SOL    HW1 2540   0.834   2.388   0.580
  740SOL    HW2 2541   0.890   2.235   0.589
  741SOL     OW 2542   1.017   1.901   0.753
  741SOL    HW1 2543   0.945   1.906   0.684
  741SOL    HW2 2544   0.993   1.832   0.822
  742SOL     OW 2545   1.429   3.035   0.867
  742SOL    HW1 2546   1.374   2.951   0.860
  742SOL    HW2 2547   1.455   3.064   0.775
  743SOL     OW 2548   1.466   2.452   0.992
  743SOL    HW1 2549   1.436   2.357   0.999
  743SOL    HW2 2550   1.539   2.468   1.058
  744SOL     OW 2551   1.857   2.695   0.377
  744SOL    HW1 2552   1.899   2.631   0.441
  744SOL    HW2 2553   1.819   2.644   0.299
  745SOL     OW 2554   0.488   3.247   0.174
  745SOL    HW1 2555   0.401   3.232   0.221
  745SOL    HW2 2556   0.471   3.273   0.079
  746SOL     OW 2557   1.664   3.142   0.657
  746SOL    HW1 2558   1.763   3.150   0.671
  746SOL    HW2 2559   1.619   3.226   0.688
  747SOL     OW 2560   1.390   2.437   0.078
  747SOL    HW1 2561   1.336   2.416   0.159
  747SOL    HW2 2562   1.481   2.396   0.087
  748SOL     OW 2563   0.527   2.118   0.328
  748SOL    HW1 2564   0.554   2.059   0.253
  748SOL    HW2 2565   0.527   2.213   0.297
  749SOL     OW 2566   1.754   3.085   1.588
  749SOL    HW1 2567   1.845   3.046   1.575
  749SOL    HW2 2568   1.762   3.181   1.612
  750SOL     OW 2569   1.064   3.209   1.340
  750SOL    HW1 2570   0.984   3.186   1.395
  750SOL    HW2 2571   1.147   3.183   1.389
  751SOL     OW 2572   1.592   3.491   1.625
  751SOL    HW1 2573   1.619   3.525   1.535
  751SOL    HW2 2574   1.671   3.453   1.671
  752SOL     OW 2575   1.111   3.057   1.100
  752SOL    HW1 2576   1.071   3.101   1.181
  752SOL    HW2 2577   1.070   3.094   1.017
  753SOL     OW 2578   1.638   2.961   1.079
  753SOL    HW1 2579   1.643   3.042   1.138
  753SOL    HW2 2580   1.552   2.963   1.028
  754SOL     OW 2581   0.915   1.951   1.402
  754SOL    HW1 2582   0.940   1.931   1.307
  754SOL    HW2 2583   0.987   2.007   1.444
  755SOL     OW 2584   0.980   2.978   1.719
  755SOL    HW1 2585   0.881   2.984   1.729
  755SOL    HW2 2586   1.003   2.898   1.663
  756SOL     OW 2587   0.705   2.912   0.368
  756SOL    HW1 2588   0.691   2.919   0.467
  756SOL    HW2 2589   0.789   2.861   0.350
  757SOL     OW 2590   0.410   2.675   1.251
  757SOL    HW1 2591   0.496   2.687   1.301
  757SOL    HW2 2592   0.368   2.588   1.278
  758SOL     OW 2593   1.274   2.248   1.262
  758SOL    HW1 2594   1.295   2.322   1.326
  758SOL    HW2 2595   1.185   2.265   1.219
  759SOL     OW 2596   0.064   3.426   1.331
  759SOL    HW1 2597   0.018   3.508   1.297
  759SOL    HW2 2598   0.162   3.445   1.340
  760SOL     OW 2599   0.367   2.962   0.501
  760SOL    HW1 2600   0.360   3.045   0.445
  760SOL    HW2 2601   0.371   2.882   0.441
  761SOL     OW 2602   0.566   2.399   0.865
  761SOL    HW1 2603   0.578   2.465   0.791
  761SOL    HW2 2604   0.612   2.433   0.948
  762SOL     OW 2605   1.252   3.210   0.388
  762SOL    HW1 2606   1.302   3.287   0.428
  762SOL    HW2 2607   1.157   3.212   0.420
  763SOL     OW 2608   1.272   3.307   1.142
  763SOL    HW1 2609   1.319   3.320   1.229
  763SOL    HW2 2610   1.206   3.233   1.151
  764SOL     OW 2611   1.582   2.501   0.472
  764SOL    HW1 2612   1.551   2.562   0.545
  764SOL    HW2 2613   1.632   2.553   0.403
  765SOL     OW 2614   0.354   3.372   1.329
  765SOL    HW1 2615   0.333   3.328   1.242
  765SOL    HW2 2616   0.451   3.398   1.332
  766SOL     OW 2617   0.402   2.613   1.598
  766SOL    HW1 2618   0.470   2.668   1.551
  766SOL    HW2 2619   0.442   2.525   1.625
  767SOL     OW 2620   1.587   2.641   1.670
  767SOL    HW1 2621   1.495   2.679   1.665
  767SOL    HW2 2622   1.647   2.688   1.605
  768SOL     OW 2623   1.013   1.967   1.770
  768SOL    HW1 2624   1.019   2.052   1.718
  768SOL    HW2 2625   1.045   1.891   1.713
  769SOL     OW 2626   0.504   1.912   1.740
  769SOL    HW1 2627   0.462   1.855   1.670
  769SOL    HW2 2628   0.438   1.981   1.772
  770SOL     OW 2629   0.573   2.732   1.029
  770SOL    HW1 2630   0.617   2.821   1.020
  770SOL    HW2 2631   0.510   2.732   1.106
  771SOL     OW 2632   1.360   2.724   1.045
  771SOL    HW1 2633   1.285   2.724   0.979
  771SOL    HW2 2634   1.397   2.632   1.054
  772SOL     OW 2635   1.209   2.387   0.275
  772SOL    HW1 2636   1.222   2.303   0.329
  772SOL    HW2 2637   1.180   2.461   0.335
  773SOL     OW 2638   0.307   2.075   1.231
  773SOL    HW1 2639   0.284   2.112   1.321
  773SOL    HW2 2640   0.277   1.980   1.225
  774SOL     OW 2641   0.037   3.172   1.282
  774SOL    HW1 2642   0.090   3.123   1.350
  774SOL    HW2 2643   0.059   3.270   1.287
  775SOL     OW 2644   0.732   2.496   1.064
  775SOL    HW1 2645   0.791   2.470   0.988
  775SOL    HW2 2646   0.704   2.592   1.053
  776SOL     OW 2647   1.728   2.797   1.854
  776SOL    HW1 2648   1.682   2.790   1.765
  776SOL    HW2 2649   1.666   2.841   1.920
  777SOL     OW 2650   0.307   1.925   0.618
  777SOL    HW1 2651   0.296   2.019   0.651
  777SOL    HW2 2652   0.302   1.862   0.695
  778SOL     OW 2653   1.622   2.229   0.374
  778SOL    HW1 2654   1.624   2.153   0.438
  778SOL    HW2 2655   1.574   2.306   0.414
  779SOL     OW 2656   1.023   2.628   0.966
  779SOL    HW1 2657   1.038   2.649   1.062
  779SOL    HW2 2658   0.993   2.533   0.957
  780SOL     OW 2659   0.980   3.435   1.700
  780SOL    HW1 2660   0.960   3.479   1.612
  780SOL    HW2 2661   1.019   3.344   1.684
  781SOL     OW 2662   1.859   3.380   1.605
  781SOL    HW1 2663   1.873   3.407   1.510
  781SOL    HW2 2664   1.942   3.402   1.658
  782SOL     OW 2665   0.350   2.760   1.804
  782SOL    HW1 2666   0.426   2.804   1.852
  782SOL    HW2 2667   0.385   2.713   1.722
  783SOL     OW 2668   1.540   2.136   0.125
  783SOL    HW1 2669   1.479   2.061   0.148
  783SOL    HW2 2670   1.562   2.188   0.208
  784SOL     OW 2671   1.303   2.700   0.042
  784SOL    HW1 2672   1.337   2.607   0.057
  784SOL    HW2 2673   1.321   2.727  -0.053
  785SOL     OW 2674   1.068   3.195   0.849
  785SOL    HW1 2675   1.075   3.111   0.794
  785SOL    HW2 2676   1.130   3.264   0.813
  786SOL     OW 2677   0.319   2.672   0.949
  786SOL    HW1 2678   0.412   2.708   0.954
  786SOL    HW2 2679   0.313   2.587   1.001
  787SOL     OW 2680   0.339   2.371   1.006
  787SOL    HW1 2681   0.287   2.288   0.989
  787SOL    HW2 2682   0.416   2.376   0.942
  788SOL     OW 2683   1.138   2.242   1.678
  788SOL    HW1 2684   1.093   2.305   1.742
  788SOL    HW2 2685   1.231   2.273   1.661
  789SOL     OW 2686   1.160   2.069   1.477
  789SOL    HW1 2687   1.160   2.133   1.554
  789SOL    HW2 2688   1.188   2.117   1.394
  790SOL     OW 2689   0.008   3.188   0.200
  790SOL    HW1 2690  -0.085   3.209   0.169
  790SOL    HW2 2691   0.018   3.089   0.213
  791SOL     OW 2692   0.088   3.663   0.927
  791SOL    HW1 2693   0.046   3.577   0.900
  791SOL    HW2 2694   0.182   3.666   0.893
  792SOL     OW 2695   0.504   3.430   0.910
  792SOL    HW1 2696   0.570   3.504   0.919
  792SOL    HW2 2697   0.548   3.351   0.868
  793SOL     OW 2698   1.002   2.658   1.238
  793SOL    HW1 2699   1.043   2.626   1.324
  793SOL    HW2 2700   0.906   2.631   1.235
  794SOL     OW 2701   0.040   2.406   1.114
  794SOL    HW1 2702   0.125   2.373   1.073
  794SOL    HW2 2703   0.053   2.421   1.212
  795SOL     OW 2704   0.189   2.382   1.722
  795SOL    HW1 2705   0.248   2.342   1.652
  795SOL    HW2 2706   0.131   2.453   1.681
  796SOL     OW 2707   1.369   2.812   1.660
  796SOL    HW1 2708   1.408   2.901   1.680
  796SOL    HW2 2709   1.379   2.792   1.563
  797SOL     OW 2710   0.815   2.434   0.325
  797SOL    HW1 2711   0.822   2.345   0.279
  797SOL    HW2 2712   0.721   2.468   0.317
  798SOL     OW 2713   1.657   2.466   1.206
  798SOL    HW1 2714   1.619   2.397   1.268
  798SOL    HW2 2715   1.739   2.430   1.162
  799SOL     OW 2716   0.252   3.426   1.744
  799SOL    HW1 2717   0.222   3.483   1.820
  799SOL    HW2 2718   0.245   3.329   1.770
  800SOL     OW 2719   0.671   2.326   1.269
  800SOL    HW1 2720   0.637   2.237   1.239
  800SOL    HW2 2721   0.697   2.380   1.189
  801SOL     OW 2722   0.930   3.540   1.465
  801SOL    HW1 2723   0.906   3.522   1.370
  801SOL    HW2 2724   0.960   3.634   1.475
  802SOL     OW 2725   0.473   2.362   0.191
  802SOL    HW1 2726   0.534   2.442   0.195
  802SOL    HW2 2727   0.378   2.393   0.198
  803SOL     OW 2728   1.347   2.921   1.234
  803SOL    HW1 2729   1.371   2.858   1.160
  803SOL    HW2 2730   1.257   2.961   1.216
  804SOL     OW 2731   1.302   2.717   0.309
  804SOL    HW1 2732   1.216   2.686   0.351
  804SOL    HW2 2733   1.298   2.703   0.210
  805SOL     OW 2734   1.759   3.609   1.154
  805SOL    HW1 2735   1.820   3.639   1.081
  805SOL    HW2 2736   1.721   3.520   1.132
  806SOL     OW 2737   1.252   3.593   1.128
  806SOL    HW1 2738   1.336   3.598   1.074
  806SOL    HW2 2739   1.229   3.497   1.146
  807SOL     OW 2740   0.083   3.120   1.022
  807SOL    HW1 2741   0.078   3.119   1.122
  807SOL    HW2 2742   0.000   3.079   0.984
  808SOL     OW 2743   0.688   3.524   1.716
  808SOL    HW1 2744   0.632   3.605   1.725
  808SOL    HW2 2745   0.740   3.528   1.630
  809SOL     OW 2746   0.903   1.948   0.133
  809SOL    HW1 2747   0.954   1.949   0.047
  809SOL    HW2 2748   0.959   1.906   0.204
  810SOL     OW 2749   1.726   1.997   0.523
  810SOL    HW1 2750   1.799   1.980   0.456
  810SOL    HW2 2751   1.695   1.910   0.561
  811SOL     OW 2752   1.388   3.435   0.477
  811SOL    HW1 2753   1.455   3.447   0.403
  811SOL    HW2 2754   1.348   3.524   0.500
  812SOL     OW 2755   0.130   3.656   1.851
  812SOL    HW1 2756   0.089   3.582   1.904
  812SOL    HW2 2757   0.194   3.707   1.909
  813SOL     OW 2758   1.280   2.789   0.672
  813SOL    HW1 2759   1.340   2.708   0.674
  813SOL    HW2 2760   1.320   2.858   0.612
  814SOL     OW 2761   0.830   3.135   1.422
  814SOL    HW1 2762   0.825   3.168   1.517
  814SOL    HW2 2763   0.744   3.154   1.376
  815SOL     OW 2764   0.672   3.478   0.154
  815SOL    HW1 2765   0.681   3.488   0.055
  815SOL    HW2 2766   0.632   3.389   0.175
  816SOL     OW 2767   1.650   3.582   1.394
  816SOL    HW1 2768   1.703   3.592   1.310
  816SOL    HW2 2769   1.623   3.672   1.428
  817SOL     OW 2770   1.841   2.037   0.963
  817SOL    HW1 2771   1.880   1.952   0.927
  817SOL    HW2 2772   1.743   2.039   0.944
  818SOL     OW 2773   0.263   2.188   0.720
  818SOL    HW1 2774   0.184   2.239   0.686
  818SOL    HW2 2775   0.254   2.173   0.818
  819SOL     OW 2776   1.194   3.474   0.031
  819SOL    HW1 2777   1.200   3.381   0.068
  819SOL    HW2 2778   1.135   3.474  -0.049
  820SOL     OW 2779   0.822   2.864   1.372
  820SOL    HW1 2780   0.862   2.863   1.280
  820SOL    HW2 2781   0.832   2.956   1.412
  821SOL     OW 2782   0.916   2.772   0.291
  821SOL    HW1 2783   0.979   2.810   0.223
  821SOL    HW2 2784   0.956   2.689   0.330
  822SOL     OW 2785   1.504   3.469   0.044
  822SOL    HW1 2786   1.412   3.506   0.051
  822SOL    HW2 2787   1.542   3.489  -0.046
  823SOL     OW 2788   0.372   3.150   1.490
  823SOL    HW1 2789   0.359   3.243   1.456
  823SOL    HW2 2790   0.288   3.098   1.477
  824SOL     OW 2791   1.614   3.154   1.289
  824SOL    HW1 2792   1.674   3.157   1.369
  824SOL    HW2 2793   1.539   3.218   1.302
  825SOL     OW 2794   1.039   2.960   0.696
  825SOL    HW1 2795   0.969   2.913   0.750
  825SOL    HW2 2796   1.098   2.892   0.653
  826SOL     OW 2797   1.014   2.098   0.971
  826SOL    HW1 2798   1.006   2.062   0.878
  826SOL    HW2 2799   1.012   2.022   1.036
  827SOL     OW 2800   0.590   3.349   0.491
  827SOL    HW1 2801   0.632   3.291   0.421
  827SOL    HW2 2802   0.546   3.428   0.447
  828SOL     OW 2803   1.709   2.247   1.381
  828SOL    HW1 2804   1.782   2.316   1.385
  828SOL    HW2 2805   1.737   2.172   1.322
  829SOL     OW 2806   0.255   3.210   0.290
  829SOL    HW1 2807   0.159   3.211   0.263
  829SOL    HW2 2808   0.267   3.263   0.374
  830SOL     OW 2809   0.105   2.875   1.726
  830SOL    HW1 2810   0.028   2.842   1.780
  830SOL    HW2 2811   0.190   2.845   1.768
  831SOL     OW 2812   0.672   2.065   1.489
  831SOL    HW1 2813   0.762   2.049   1.449
  831SOL    HW2 2814   0.680   2.070   1.588
  832SOL     OW 2815   0.075   2.207   0.033
  832SOL    HW1 2816  -0.017   2.179   0.004
  832SOL    HW2 2817   0.106   2.284  -0.023
  833SOL     OW 2818   1.440   2.718   1.398
  833SOL    HW1 2819   1.383   2.770   1.335
  833SOL    HW2 2820   1.536   2.730   1.374
  834SOL     OW 2821   0.072   2.028   0.318
  834SOL    HW1 2822   0.055   2.111   0.264
  834SOL    HW2 2823   0.162   1.991   0.296
  835SOL     OW 2824   1.183   3.197   0.119
  835SOL    HW1 2825   1.084   3.186   0.121
  835SOL    HW2 2826   1.217   3.212   0.212
  836SOL     OW 2827   0.613   2.704   1.431
  836SOL    HW1 2828   0.669   2.785   1.414
  836SOL    HW2 2829   0.672   2.624   1.434
  837SOL     OW 2830   1.493   3.629   0.959
  837SOL    HW1 2831   1.526   3.693   0.890
  837SOL    HW2 2832   1.559   3.623   1.034
  838SOL     OW 2833   0.716   2.427   1.708
  838SOL    HW1 2834   0.735   2.492   1.782
  838SOL    HW2 2835   0.776   2.347   1.717
  839SOL     OW 2836   1.450   3.082   1.633
  839SOL    HW1 2837   1.441   3.072   1.732
  839SOL    HW2 2838   1.546   3.075   1.607
  840SOL     OW 2839   0.390   3.603   1.560
  840SOL    HW1 2840   0.299   3.644   1.558
  840SOL    HW2 2841   0.383   3.509   1.592
  841SOL     OW 2842   1.674   2.745   1.254
  841SOL    HW1 2843   1.647   2.656   1.217
  841SOL    HW2 2844   1.675   2.813   1.181
  842SOL     OW 2845   1.225   2.187   0.449
  842SOL    HW1 2846   1.290   2.113   0.438
  842SOL    HW2 2847   1.245   2.237   0.533
  843SOL     OW 2848   0.594   2.607   0.652
  843SOL    HW1 2849   0.644   2.692   0.633
  843SOL    HW2 2850   0.506   2.609   0.604
  844SOL     OW 2851   1.777   2.204   1.642
  844SOL    HW1 2852   1.760   2.235   1.548
  844SOL    HW2 2853   1.693   2.167   1.680
  845SOL     OW 2854   1.730   2.796   1.517
  845SOL    HW1 2855   1.768   2.887   1.532
  845SOL    HW2 2856   1.722   2.779   1.418
  846SOL     OW 2857   0.859   3.236   0.016
  846SOL    HW1 2858   0.813   3.251   0.104
  846SOL    HW2 2859   0.903   3.321  -0.014
  847SOL     OW 2860   0.661   3.652   0.953
  847SOL    HW1 2861   0.615   3.740   0.940
  847SOL    HW2 2862   0.760   3.664   0.946
  848SOL     OW 2863   0.859   2.818   0.861
  848SOL    HW1 2864   0.913   2.749   0.909
  848SOL    HW2 2865   0.827   2.887   0.927
  849SOL     OW 2866   1.083   2.846   0.087
  849SOL    HW1 2867   1.060   2.899   0.005
  849SOL    HW2 2868   1.164   2.790   0.068
  850SOL     OW 2869   1.861   3.431   0.851
  850SOL    HW1 2870   1.790   3.419   0.781
  850SOL    HW2 2871   1.862   3.352   0.911
  851SOL     OW 2872   0.221   3.176   1.844
  851SOL    HW1 2873   0.156   3.103   1.823
  851SOL    HW2 2874   0.225   3.190   1.942
  852SOL     OW 2875   0.079   3.102   0.653
  852SOL    HW1 2876   0.078   3.055   0.741
  852SOL    HW2 2877   0.161   3.074   0.602
  853SOL     OW 2878   0.672   3.253   1.624
  853SOL    HW1 2879   0.594   3.203   1.662
  853SOL    HW2 2880   0.669   3.348   1.655
  854SOL     OW 2881   1.824   2.054   1.227
  854SOL    HW1 2882   1.820   1.964   1.271
  854SOL    HW2 2883   1.827   2.043   1.128
  855SOL     OW 2884   0.428   2.286   0.520
  855SOL    HW1 2885   0.458   2.214   0.458
  855SOL    HW2 2886   0.389   2.246   0.603
  856SOL     OW 2887   1.705   3.349   1.104
  856SOL    HW1 2888   1.612   3.324   1.077
  856SOL    HW2 2889   1.731   3.299   1.186
  857SOL     OW 2890   0.317   2.409   1.280
  857SOL    HW1 2891   0.355   2.350   1.352
  857SOL    HW2 2892   0.357   2.383   1.192
  858SOL     OW 2893   0.812   3.448   0.687
  858SOL    HW1 2894   0.844   3.458   0.593
  858SOL    HW2 2895   0.733   3.386   0.689
  859SOL     OW 2896   1.424   2.076   1.112
  859SOL    HW1 2897   1.476   2.011   1.167
  859SOL    HW2 2898   1.375   2.139   1.173
  860SOL     OW 2899   1.001   1.896   1.154
  860SOL    HW1 2900   0.938   1.824   1.123
  860SOL    HW2 2901   1.094   1.860   1.154
  861SOL     OW 2902   0.770   3.192   0.301
  861SOL    HW1 2903   0.724   3.105   0.318
  861SOL    HW2 2904   0.861   3.189   0.342
  862SOL     OW 2905   0.618   3.429   1.284
  862SOL    HW1 2906   0.613   3.511   1.341
  862SOL    HW2 2907   0.707   3.426   1.239
  863SOL     OW 2908   1.352   1.914   0.168
  863SOL    HW1 2909   1.387   1.873   0.084
  863SOL    HW2 2910   1.262   1.876   0.188
  864SOL     OW 2911   1.300   2.315   0.691
  864SOL    HW1 2912   1.241   2.395   0.695
  864SOL    HW2 2913   1.315   2.280   0.784
  865SOL     OW 2914   1.593   2.083   0.882
  865SOL    HW1 2915   1.509   2.082   0.936
  865SOL    HW2 2916   1.595   2.166   0.826
  866SOL     OW 2917   0.039   2.939   0.300
  866SOL    HW1 2918   0.138   2.928   0.291
  866SOL    HW2 2919  -0.001   2.853   0.332
  867SOL     OW 2920   0.875   3.508   0.337
  867SOL    HW1 2921   0.798   3.473   0.283
  867SOL    HW2 2922   0.843   3.579   0.399
  868SOL     OW 2923   0.230   2.490   1.975
  868SOL    HW1 2924   0.137   2.488   2.012
  868SOL    HW2 2925   0.231   2.451   1.883
  869SOL     OW 2926   0.225   2.137   2.858
  869SOL    HW1 2927   0.260   2.120   2.950
  869SOL    HW2 2928   0.137   2.092   2.846
  870SOL     OW 2929   0.019   2.230   2.509
  870SOL    HW1 2930  -0.063   2.273   2.548
  870SOL    HW2 2931  -0.009   2.157   2.446
  871SOL     OW 2932   0.569   3.137   3.027
  871SOL    HW1 2933   0.476   3.130   2.990
  871SOL    HW2 2934   0.580   3.226   3.071
  872SOL     OW 2935   1.555   3.373   2.565
  872SOL    HW1 2936   1.498   3.357   2.646
  872SOL    HW2 2937   1.496   3.383   2.485
  873SOL     OW 2938   1.135   2.565   2.579
  873SOL    HW1 2939   1.192   2.643   2.554
  873SOL    HW2 2940   1.075   2.591   2.655
  874SOL     OW 2941   1.755   2.469   2.093
  874SOL    HW1 2942   1.743   2.456   1.994
  874SOL    HW2 2943   1.725   2.388   2.142
  875SOL     OW 2944   0.768   3.006   2.885
  875SOL    HW1 2945   0.690   3.023   2.945
  875SOL    HW2 2946   0.802   3.093   2.849
  876SOL     OW 2947   0.850   2.660   3.685
  876SOL    HW1 2948   0.846   2.736   3.750
  876SOL    HW2 2949   0.872   2.696   3.594
  877SOL     OW 2950   0.685   2.874   2.527
  877SOL    HW1 2951   0.754   2.858   2.597
  877SOL    HW2 2952   0.612   2.931   2.565
  878SOL     OW 2953   0.686   3.023   3.665
  878SOL    HW1 2954   0.746   3.102   3.679
  878SOL    HW2 2955   0.600   3.054   3.624
  879SOL     OW 2956   0.335   3.297   2.923
  879SOL    HW1 2957   0.257   3.266   2.870
  879SOL    HW2 2958   0.393   3.355   2.866
  880SOL     OW 2959   1.460   3.367   3.201
  880SOL    HW1 2960   1.484   3.461   3.227
  880SOL    HW2 2961   1.444   3.313   3.283
  881SOL     OW 2962   0.438   2.254   3.361
  881SOL    HW1 2963   0.520   2.198   3.370
  881SOL    HW2 2964   0.357   2.196   3.365
  882SOL     OW 2965   1.603   2.309   2.599
  882SOL    HW1 2966   1.529   2.355   2.549
  882SOL    HW2 2967   1.654   2.377   2.652
  883SOL     OW 2968   0.231   3.575   2.345
  883SOL    HW1 2969   0.265   3.652   2.399
  883SOL    HW2 2970   0.275   3.575   2.255
  884SOL     OW 2971   1.127   3.203   3.552
  884SOL    HW1 2972   1.174   3.203   3.640
  884SOL    HW2 2973   1.079   3.116   3.541
  885SOL     OW 2974   0.230   3.296   2.400
  885SOL    HW1 2975   0.204   3.392   2.400
  885SOL    HW2 2976   0.159   3.242   2.445
  886SOL     OW 2977   0.240   2.953   2.748
  886SOL    HW1 2978   0.254   2.869   2.800
  886SOL    HW2 2979   0.185   3.017   2.803
  887SOL     OW 2980   0.620   3.648   3.301
  887SOL    HW1 2981   0.528   3.631   3.336
  887SOL    HW2 2982   0.648   3.740   3.327
  888SOL     OW 2983   0.606   2.826   1.985
  888SOL    HW1 2984   0.613   2.910   1.931
  888SOL    HW2 2985   0.652   2.839   2.073
  889SOL     OW 2986   1.594   1.976   3.342
  889SOL    HW1 2987   1.576   2.043   3.270
  889SOL    HW2 2988   1.591   2.022   3.431
  890SOL     OW 2989   0.122   2.505   2.425
  890SOL    HW1 2990   0.077   2.417   2.442
  890SOL    HW2 2991   0.121   2.559   2.509
  891SOL     OW 2992   1.842   3.629   2.221
  891SOL    HW1 2993   1.896   3.600   2.301
  891SOL    HW2 2994   1.872   3.719   2.192
  892SOL     OW 2995   0.027   3.458   1.979
  892SOL    HW1 2996   0.008   3.362   2.000
  892SOL    HW2 2997  -0.006   3.516   2.054
  893SOL     OW 2998   1.689   2.784   2.474
  893SOL    HW1 2999   1.784   2.755   2.482
  893SOL    HW2 3000   1.681   2.849   2.399
  894SOL     OW 3001   1.641   2.970   2.294
  894SOL    HW1 3002   1.727   2.972   2.242
  894SOL    HW2 3003   1.655   3.017   2.382
  895SOL     OW 3004   0.113   2.599   3.459
  895SOL    HW1 3005   0.201   2.586   3.504
  895SOL    HW2 3006   0.100   2.696   3.437
  896SOL     OW 3007   0.613   3.227   2.588
  896SOL    HW1 3008   0.564   3.140   2.597
  896SOL    HW2 3009   0.590   3.270   2.501
  897SOL     OW 3010   1.293   3.090   3.285
  897SOL    HW1 3011   1.330   3.017   3.227
  897SOL    HW2 3012   1.345   3.095   3.370
  898SOL     OW 3013   0.809   1.866   2.364
  898SOL    HW1 3014   0.849   1.957   2.355
  898SOL    HW2 3015   0.709   1.874   2.370
  899SOL     OW 3016   0.197   2.838   3.126
  899SOL    HW1 3017   0.286   2.793   3.112
  899SOL    HW2 3018   0.124   2.773   3.107
  900SOL     OW 3019   1.525   2.861   2.052
  900SOL    HW1 3020   1.462   2.785   2.065
  900SOL    HW2 3021   1.573   2.879   2.138
  901SOL     OW 3022   1.187   3.654   3.478
  901SOL    HW1 3023   1.211   3.714   3.402
  901SOL    HW2 3024   1.194   3.559   3.448
  902SOL     OW 3025   0.317   2.113   3.663
  902SOL    HW1 3026   0.388   2.184   3.669
  902SOL    HW2 3027   0.229   2.152   3.691
  903SOL     OW 3028   1.466   3.279   2.815
  903SOL    HW1 3029   1.407   3.285   2.895
  903SOL    HW2 3030   1.451   3.191   2.769
  904SOL     OW 3031   1.667   3.576   2.434
  904SOL    HW1 3032   1.626   3.553   2.346
  904SOL    HW2 3033   1.649   3.502   2.499
  905SOL     OW 3034   0.598   2.591   2.132
  905SOL    HW1 3035   0.622   2.660   2.064
  905SOL    HW2 3036   0.520   2.624   2.186
  906SOL     OW 3037   1.281   2.207   2.806
  906SOL    HW1 3038   1.195   2.157   2.793
  906SOL    HW2 3039   1.343   2.153   2.862
  907SOL     OW 3040   1.576   3.524   2.169
  907SOL    HW1 3041   1.665   3.570   2.172
  907SOL    HW2 3042   1.555   3.500   2.074
  908SOL     OW 3043   0.807   2.467   3.327
  908SOL    HW1 3044   0.760   2.464   3.416
  908SOL    HW2 3045   0.756   2.412   3.261
  909SOL     OW 3046   1.394   2.331   3.536
  909SOL    HW1 3047   1.374   2.374   3.624
  909SOL    HW2 3048   1.472   2.269   3.545
  910SOL     OW 3049   0.973   2.752   3.434
  910SOL    HW1 3050   1.019   2.668   3.405
  910SOL    HW2 3051   0.917   2.786   3.359
  911SOL     OW 3052   0.991   2.272   3.104
  911SOL    HW1 3053   0.914   2.306   3.158
  911SOL    HW2 3054   0.957   2.221   3.025
  912SOL     OW 3055   1.041   2.563   2.291
  912SOL    HW1 3056   1.067   2.559   2.387
  912SOL    HW2 3057   0.956   2.512   2.277
  913SOL     OW 3058   0.076   2.673   2.651
  913SOL    HW1 3059   0.175   2.661   2.660
  913SOL    HW2 3060   0.052   2.768   2.672
  914SOL     OW 3061   0.130   3.683   3.433
  914SOL    HW1 3062   0.120   3.668   3.532
  914SOL    HW2 3063   0.044   3.719   3.397
  915SOL     OW 3064   0.865   2.210   2.057
  915SOL    HW1 3065   0.924   2.273   2.008
  915SOL    HW2 3066   0.884   2.116   2.028
  916SOL     OW 3067   1.719   2.447   3.693
  916SOL    HW1 3068   1.693   2.536   3.657
  916SOL    HW2 3069   1.717   2.379   3.620
  917SOL     OW 3070   1.362   3.006   2.407
  917SOL    HW1 3071   1.445   2.977   2.359
  917SOL    HW2 3072   1.313   3.073   2.351
  918SOL     OW 3073   0.550   2.058   2.747
  918SOL    HW1 3074   0.545   2.053   2.847
  918SOL    HW2 3075   0.552   2.154   2.718
  919SOL     OW 3076   1.008   3.318   2.339
  919SOL    HW1 3077   0.962   3.390   2.287
  919SOL    HW2 3078   1.004   3.338   2.437
  920SOL     OW 3079   0.351   3.663   2.715
  920SOL    HW1 3080   0.401   3.577   2.721
  920SOL    HW2 3081   0.416   3.740   2.712
  921SOL     OW 3082   1.795   2.928   2.735
  921SOL    HW1 3083   1.733   2.913   2.659
  921SOL    HW2 3084   1.743   2.939   2.820
  922SOL     OW 3085   1.227   3.412   3.368
  922SOL    HW1 3086   1.233   3.335   3.432
  922SOL    HW2 3087   1.175   3.386   3.288
  923SOL     OW 3088   0.321   2.805   2.104
  923SOL    HW1 3089   0.403   2.844   2.062
  923SOL    HW2 3090   0.294   2.723   2.055
  924SOL     OW 3091   1.458   2.597   2.590
  924SOL    HW1 3092   1.453   2.532   2.665
  924SOL    HW2 3093   1.538   2.656   2.603
  925SOL     OW 3094   0.461   3.128   3.589
  925SOL    HW1 3095   0.411   3.129   3.503
  925SOL    HW2 3096   0.398   3.110   3.665
  926SOL     OW 3097   1.111   3.638   2.099
  926SOL    HW1 3098   1.051   3.576   2.149
  926SOL    HW2 3099   1.142   3.594   2.014
  927SOL     OW 3100   0.202   2.147   3.360
  927SOL    HW1 3101   0.122   2.207   3.347
  927SOL    HW2 3102   0.192   2.098   3.446
  928SOL     OW 3103   1.632   3.239   1.943
  928SOL    HW1 3104   1.600   3.333   1.933
  928SOL    HW2 3105   1.556   3.176   1.931
  929SOL     OW 3106   0.464   3.605   2.185
  929SOL    HW1 3107   0.497   3.644   2.271
  929SOL    HW2 3108   0.540   3.598   2.120
  930SOL     OW 3109   1.400   1.969   2.288
  930SOL    HW1 3110   1.376   1.932   2.198
  930SOL    HW2 3111   1.499   1.985   2.292
  931SOL     OW 3112   0.249   3.647   3.103
  931SOL    HW1 3113   0.306   3.582   3.153
  931SOL    HW2 3114   0.233   3.614   3.010
  932SOL     OW 3115   0.940   3.560   2.766
  932SOL    HW1 3116   1.020   3.503   2.787
  932SOL    HW2 3117   0.891   3.520   2.689
  933SOL     OW 3118   0.382   2.562   2.342
  933SOL    HW1 3119   0.427   2.472   2.339
  933SOL    HW2 3120   0.288   2.551   2.375
  934SOL     OW 3121   1.547   2.084   3.591
  934SOL    HW1 3122   1.542   2.121   3.683
  934SOL    HW2 3123   1.475   2.015   3.579
  935SOL     OW 3124   0.614   1.984   1.979
  935SOL    HW1 3125   0.712   1.962   1.986
  935SOL    HW2 3126   0.583   1.967   1.886
  936SOL     OW 3127   0.781   2.126   3.611
  936SOL    HW1 3128   0.848   2.065   3.654
  936SOL    HW2 3129   0.708   2.145   3.676
  937SOL     OW 3130   0.888   3.376   3.057
  937SOL    HW1 3131   0.865   3.351   2.963
  937SOL    HW2 3132   0.949   3.307   3.096
  938SOL     OW 3133   1.351   2.452   3.295
  938SOL    HW1 3134   1.379   2.409   3.380
  938SOL    HW2 3135   1.376   2.548   3.296
  939SOL     OW 3136   0.803   3.264   2.786
  939SOL    HW1 3137   0.893   3.278   2.744
  939SOL    HW2 3138   0.732   3.266   2.715
  940SOL     OW 3139   0.922   2.365   2.761
  940SOL    HW1 3140   0.897   2.356   2.665
  940SOL    HW2 3141   0.970   2.283   2.792
  941SOL     OW 3142   0.539   1.926   2.374
  941SOL    HW1 3143   0.458   1.927   2.432
  941SOL    HW2 3144   0.542   2.009   2.319
  942SOL     OW 3145   1.434   3.050   1.903
  942SOL    HW1 3146   1.466   2.974   1.960
  942SOL    HW2 3147   1.342   3.077   1.933
  943SOL     OW 3148   0.297   1.897   2.033
  943SOL    HW1 3149   0.346   1.981   2.012
  943SOL    HW2 3150   0.359   1.832   2.078
  944SOL     OW 3151   0.935   2.098   2.342
  944SOL    HW1 3152   0.887   2.139   2.264
  944SOL    HW2 3153   1.034   2.096   2.323
  945SOL     OW 3154   1.076   2.545   3.326
  945SOL    HW1 3155   0.996   2.484   3.329
  945SOL    HW2 3156   1.157   2.492   3.302
  946SOL     OW 3157   1.227   3.432   2.655
  946SOL    HW1 3158   1.248   3.506   2.590
  946SOL    HW2 3159   1.295   3.432   2.728
  947SOL     OW 3160   0.459   3.014   2.603
  947SOL    HW1 3161   0.388   2.987   2.668
  947SOL    HW2 3162   0.433   2.986   2.510
  948SOL     OW 3163   1.271   3.659   2.453
  948SOL    HW1 3164   1.315   3.723   2.389
  948SOL    HW2 3165   1.221   3.711   2.523
  949SOL     OW 3166   1.032   2.411   1.878
  949SOL    HW1 3167   0.991   2.493   1.839
  949SOL    HW2 3168   1.096   2.437   1.951
  950SOL     OW 3169   0.078   2.418   3.248
  950SOL    HW1 3170   0.170   2.417   3.207
  950SOL    HW2 3171   0.072   2.492   3.315
  951SOL     OW 3172   0.561   2.084   3.009
  951SOL    HW1 3173   0.599   2.000   3.046
  951SOL    HW2 3174   0.473   2.103   3.053
  952SOL     OW 3175   0.866   2.316   2.504
  952SOL    HW1 3176   0.834   2.388   2.442
  952SOL    HW2 3177   0.890   2.235   2.451
  953SOL     OW 3178   1.017   1.901   2.615
  953SOL    HW1 3179   0.945   1.906   2.546
  953SOL    HW2 3180   0.993   1.832   2.684
  954SOL     OW 3181   1.429   3.035   2.729
  954SOL    HW1 3182   1.374   2.951   2.722
  954SOL    HW2 3183   1.455   3.064   2.637
  955SOL     OW 3184   1.466   2.452   2.854
  955SOL    HW1 3185   1.436   2.357   2.861
  955SOL    HW2 3186   1.539   2.468   2.920
  956SOL     OW 3187   1.857   2.695   2.239
  956SOL    HW1 3188   1.899   2.631   2.303
  956SOL    HW2 3189   1.819   2.644   2.161
  957SOL     OW 3190   0.488   3.247   2.036
  957SOL    HW1 3191   0.401   3.232   2.083
  957SOL    HW2 3192   0.471   3.273   1.941
  958SOL     OW 3193   1.664   3.142   2.519
  958SOL    HW1 3194   1.763   3.150   2.533
  958SOL    HW2 3195   1.619   3.226   2.550
  959SOL     OW 3196   1.390   2.437   1.940
  959SOL    HW1 3197   1.336   2.416   2.021
  959SOL    HW2 3198   1.481   2.396   1.949
  960SOL     OW 3199   0.527   2.118   2.190
  960SOL    HW1 3200   0.554   2.059   2.115
  960SOL    HW2 3201   0.527   2.213   2.159
  961SOL     OW 3202   1.754   3.085   3.450
  961SOL    HW1 3203   1.845   3.046   3.437
  961SOL    HW2 3204   1.762   3.181   3.474
  962SOL     OW 3205   1.064   3.209   3.202
  962SOL    HW1 3206   0.984   3.186   3.257
  962SOL    HW2 3207   1.147   3.183   3.251
  963SOL     OW 3208   1.592   3.491   3.487
  963SOL    HW1 3209   1.619   3.525   3.397
  963SOL    HW2 3210   1.671   3.453   3.533
  964SOL     OW 3211   1.111   3.057   2.962
  964SOL    HW1 3212   1.071   3.101   3.043
  964SOL    HW2 3213   1.070   3.094   2.879
  965SOL     OW 3214   1.638   2.961   2.941
  965SOL    HW1 3215   1.643   3.042   3.000
  965SOL    HW2 3216   1.552   2.963   2.890
  966SOL     OW 3217   0.915   1.951   3.264
  966SOL    HW1 3218   0.940   1.931   3.169
  966SOL    HW2 3219   0.987   2.007   3.306
  967SOL     OW 3220   0.980   2.978   3.581
  967SOL    HW1 3221   0.881   2.984   3.591
  967SOL    HW2 3222   1.003   2.898   3.525
  968SOL     OW 3223   0.705   2.912   2.230
  968SOL    HW1 3224   0.691   2.919   2.329
  968SOL    HW2 3225   0.789   2.861   2.212
  969SOL     OW 3226   0.410   2.675   3.113
  969SOL    HW1 3227   0.496   2.687   3.163
  969SOL    HW2 3228   0.368   2.588   3.140
  970SOL     OW 3229   1.274   2.248   3.124
  970SOL    HW1 3230   1.295   2.322   3.188
  970SOL    HW2 3231   1.185   2.265   3.081
  971SOL     OW 3232   0.064   3.426   3.193
  971SOL    HW1 3233   0.018   3.508   3.159
  971SOL    HW2 3234   0.162   3.445   3.202
  972SOL     OW 3235   0.367   2.962   2.363
  972SOL    HW1 3236   0.360   3.045   2.307
  972SOL    HW2 3237   0.371   2.882   2.303
  973SOL     OW 3238   0.566   2.399   2.727
  973SOL    HW1 3239   0.578   2.465   2.653
  973SOL    HW2 3240   0.612   2.433   2.810
  974SOL     OW 3241   1.252   3.210   2.250
  974SOL    HW1 3242   1.302   3.287   2.290
  974SOL    HW2 3243   1.157   3.212   2.282
  975SOL     OW 3244   1.272   3.307   3.004
  975SOL    HW1 3245   1.319   3.320   3.091
  975SOL    HW2 3246   1.206   3.233   3.013
  976SOL     OW 3247   1.582   2.501   2.334
  976SOL    HW1 3248   1.551   2.562   2.407
  976SOL    HW2 3249   1.632   2.553   2.265
  977SOL     OW 3250   0.354   3.372   3.191
  977SOL    HW1 3251   0.333   3.328   3.104
  977SOL    HW2 3252   0.451   3.398   3.194
  978SOL     OW 3253   0.402   2.613   3.460
  978SOL    HW1 3254   0.470   2.668   3.413
  978SOL    HW2 3255   0.442   2.525   3.487
  979SOL     OW 3256   1.587   2.641   3.532
  979SOL    HW1 3257   1.495   2.679   3.527
  979SOL    HW2 3258   1.647   2.688   3.467
  980SOL     OW 3259   1.013   1.967   3.632
  980SOL    HW1 3260   1.019   2.052   3.580
  980SOL    HW2 3261   1.045   1.891   3.575
  981SOL     OW 3262   0.504   1.912   3.602
  981SOL    HW1 3263   0.462   1.855   3.532
  981SOL    HW2 3264   0.438   1.981   3.634
  982SOL     OW 3265   0.573   2.732   2.891
  982SOL    HW1 3266   0.617   2.821   2.882
  982SOL    HW2 3267   0.510   2.732   2.968
  983SOL     OW 3268   1.360   2.724   2.907
  983SOL    HW1 3269   1.285   2.724   2.841
  983SOL    HW2 3270   1.397   2.632   2.916
  984SOL     OW 3271   1.209   2.387   2.137
  984SOL    HW1 3272   1.222   2.303   2.191
  984SOL    HW2 3273   1.180   2.461   2.197
  985SOL     OW 3274   0.307   2.075   3.093
  985SOL    HW1 3275   0.284   2.112   3.183
  985SOL    HW2 3276   0.277   1.980   3.087
  986SOL     OW 3277   0.037   3.172   3.144
  986SOL    HW1 3278   0.090   3.123   3.212
  986SOL    HW2 3279   0.059   3.270   3.149
  987SOL     OW 3280   0.732   2.496   2.926
  987SOL    HW1 3281   0.791   2.470   2.850
  987SOL    HW2 3282   0.704   2.592   2.915
  988SOL     OW 3283   1.728   2.797   3.716
  988SOL    HW1 3284   1.682   2.790   3.627
  988SOL    HW2 3285   1.666   2.841   3.782
  989SOL     OW 3286   0.307   1.925   2.480
  989SOL    HW1 3287   0.296   2.019   2.513
  989SOL    HW2 3288   0.302   1.862   2.557
  990SOL     OW 3289   1.622   2.229   2.236
  990SOL    HW1 3290   1.624   2.153   2.300
  990SOL    HW2 3291   1.574   2.306   2.276
  991SOL     OW 3292   1.023   2.628   2.828
  991SOL    HW1 3293   1.038   2.649   2.924
  991SOL    HW2 3294   0.993   2.533   2.819
  992SOL     OW 3295   0.980   3.435   3.562
  992SOL    HW1 3296   0.960   3.479   3.474
  992SOL    HW2 3297   1.019   3.344   3.546
  993SOL     OW 3298   1.859   3.380   3.467
  993SOL    HW1 3299   1.873   3.407   3.372
  993SOL    HW2 3300   1.942   3.402   3.520
  994SOL     OW 3301   0.350   2.760   3.666
  994SOL    HW1 3302   0.426   2.804   3.714
  994SOL    HW2 3303   0.385   2.713   3.584
  995SOL     OW 3304   1.540   2.136   1.987
  995SOL    HW1 3305   1.479   2.061   2.010
  995SOL    HW2 3306   1.562   2.188   2.070
  996SOL     OW 3307   1.303   2.700   1.904
  996SOL    HW1 3308   1.337   2.607   1.919
  996SOL    HW2 3309   1.321   2.727   1.809
  997SOL     OW 3310   1.068   3.195   2.711
  997SOL    HW1 3311   1.075   3.111   2.656
  997SOL    HW2 3312   1.130   3.264   2.675
  998SOL     OW 3313   0.319   2.672   2.811
  998SOL    HW1 3314   0.412   2.708   2.816
  998SOL    HW2 3315   0.313   2.587   2.863
  999SOL     OW 3316   0.339   2.371   2.868
  999SOL    HW1 3317   0.287   2.288   2.851
  999SOL    HW2 3318   0.416   2.376   2.804
 1000SOL     OW 3319   1.138   2.242   3.540
 1000SOL    HW1 3320   1.093   2.305   3.604
 1000SOL    HW2 3321   1.231   2.273   3.523
 1001SOL     OW 3322   1.160   2.069   3.339
 1001SOL    HW1 3323   1.160   2.133   3.416
 1001SOL    HW2 3324   1.188   2.117   3.256
 1002SOL     OW 3325   0.008   3.188   2.062
 1002SOL    HW1 3326  -0.085   3.209   2.031
 1002SOL    HW2 3327   0.018   3.089   2.075
 1003SOL     OW 3328   0.088   3.663   2.789
 1003SOL    HW1 3329   0.046   3.577   2.762
 1003SOL    HW2 3330   0.182   3.666   2.755
 1004SOL     OW 3331   0.504   3.430   2.772
 1004SOL    HW1 3332   0.570   3.504   2.781
 1004SOL    HW2 3333   0.548   3.351   2.730
 1005SOL     OW 3334   1.002   2.658   3.100
 1005SOL    HW1 3335   1.043   2.626   3.186
 1005SOL    HW2 3336   0.906   2.631   3.097
 1006SOL     OW 3337   0.040   2.406   2.976
 1006SOL    HW1 3338   0.125   2.373   2.935
 1006SOL    HW2 3339   0.053   2.421   3.074
 1007SOL     OW 3340   0.189   2.382   3.584
 1007SOL    HW1 3341   0.248   2.342   3.514
 1007SOL    HW2 3342   0.131   2.453   3.543
 1008SOL     OW 3343   1.369   2.812   3.522
 1008SOL    HW1 3344   1.408   2.901   3.542
 1008SOL    HW2 3345   1.379   2.792   3.425
 1009SOL     OW 3346   0.815   2.434   2.187
 1009SOL    HW1 3347   0.822   2.345   2.141
 1009SOL    HW2 3348   0.721   2.468   2.179
 1010SOL     OW 3349   1.657   2.466   3.068
 1010SOL    HW1 3350   1.619   2.397   3.130
 1010SOL    HW2 3351   1.739   2.430   3.024
 1011SOL     OW 3352   0.252   3.426   3.606
 1011SOL    HW1 3353   0.222   3.483   3.682
 1011SOL    HW2 3354   0.245   3.329   3.632
 1012SOL     OW 3355   0.671   2.326   3.131
 1012SOL    HW1 3356   0.637   2.237   3.101
 1012SOL    HW2 3357   0.697   2.380   3.051
 1013SOL     OW 3358   0.930   3.540   3.327
 1013SOL    HW1 3359   0.906   3.522   3.232
 1013SOL    HW2 3360   0.960   3.634   3.337
 1014SOL     OW 3361   0.473   2.362   2.053
 1014SOL    HW1 3362   0.534   2.442   2.057
 1014SOL    HW2 3363   0.378   2.393   2.060
 1015SOL     OW 3364   0.159   2.999   3.328
 1015SOL    HW1 3365   0.181   2.938   3.404
 1015SOL    HW2 3366   0.169   2.950   3.242
 1016SOL     OW 3367   1.347   2.921   3.096
 1016SOL    HW1 3368   1.371   2.858   3.022
 1016SOL    HW2 3369   1.257   2.961   3.078
 1017SOL     OW 3370   1.302   2.717   2.171
 1017SOL    HW1 3371   1.216   2.686   2.213
 1017SOL    HW2 3372   1.298   2.703   2.072
 1018SOL     OW 3373   1.759   3.609   3.016
 1018SOL    HW1 3374   1.820   3.639   2.943
 1018SOL    HW2 3375   1.721   3.520   2.994
 1019SOL     OW 3376   1.252   3.593   2.990
 1019SOL    HW1 3377   1.336   3.598   2.936
 1019SOL    HW2 3378   1.229   3.497   3.008
 1020SOL     OW 3379   0.083   3.120   2.884
 1020SOL    HW1 3380   0.078   3.119   2.984
 1020SOL    HW2 3381   0.000   3.079   2.846
 1021SOL     OW 3382   0.688   3.524   3.578
 1021SOL    HW1 3383   0.632   3.605   3.587
 1021SOL    HW2 3384   0.740   3.528   3.492
 1022SOL     OW 3385   1.726   1.997   2.385
 1022SOL    HW1 3386   1.799   1.980   2.318
 1022SOL    HW2 3387   1.695   1.910   2.423
 1023SOL     OW 3388   1.388   3.435   2.339
 1023SOL    HW1 3389   1.455   3.447   2.265
 1023SOL    HW2 3390   1.348   3.524   2.362
 1024SOL     OW 3391   0.130   3.656   3.713
 1024SOL    HW1 3392   0.089   3.582   3.766
 1024SOL    HW2 3393   0.194   3.707   3.771
 1025SOL     OW 3394   1.280   2.789   2.534
 1025SOL    HW1 3395   1.340   2.708   2.536
 1025SOL    HW2 3396   1.320   2.858   2.474
 1026SOL     OW 3397   0.830   3.135   3.284
 1026SOL    HW1 3398   0.825   3.168   3.379
 1026SOL    HW2 3399   0.744   3.154   3.238
 1027SOL     OW 3400   0.672   3.478   2.016
 1027SOL    HW1 3401   0.681   3.488   1.917
 1027SOL    HW2 3402   0.632   3.389   2.037
 1028SOL     OW 3403   1.650   3.582   3.256
 1028SOL    HW1 3404   1.703   3.592   3.172
 1028SOL    HW2 3405   1.623   3.672   3.290
 1029SOL     OW 3406   1.841   2.037   2.825
 1029SOL    HW1 3407   1.880   1.952   2.789
 1029SOL    HW2 3408   1.743   2.039   2.806
 1030SOL     OW 3409   0.263   2.188   2.582
 1030SOL    HW1 3410   0.184   2.239   2.548
 1030SOL    HW2 3411   0.254   2.173   2.680
 1031SOL     OW 3412   1.194   3.474   1.893
 1031SOL    HW1 3413   1.200   3.381   1.930
 1031SOL    HW2 3414   1.135   3.474   1.813
 1032SOL     OW 3415   0.822   2.864   3.234
 1032SOL    HW1 3416   0.862   2.863   3.142
 1032SOL    HW2 3417   0.832   2.956   3.274
 1033SOL     OW 3418   0.916   2.772   2.153
 1033SOL    HW1 3419   0.979   2.810   2.085
 1033SOL    HW2 3420   0.956   2.689   2.192
 1034SOL     OW 3421   1.504   3.469   1.906
 1034SOL    HW1 3422   1.412   3.506   1.913
 1034SOL    HW2 3423   1.542   3.489   1.816
 1035SOL     OW 3424   0.372   3.150   3.352
 1035SOL    HW1 3425   0.359   3.243   3.318
 1035SOL    HW2 3426   0.288   3.098   3.339
 1036SOL     OW 3427   1.614   3.154   3.151
 1036SOL    HW1 3428   1.674   3.157   3.231
 1036SOL    HW2 3429   1.539   3.218   3.164
 1037SOL     OW 3430   1.039   2.960   2.558
 1037SOL    HW1 3431   0.969   2.913   2.612
 1037SOL    HW2 3432   1.098   2.892   2.515
 1038SOL     OW 3433   1.014   2.098   2.833
 1038SOL    HW1 3434   1.006   2.062   2.740
 1038SOL    HW2 3435   1.012   2.022   2.898
 1039SOL     OW 3436   0.590   3.349   2.353
 1039SOL    HW1 3437   0.632   3.291   2.283
 1039SOL    HW2 3438   0.546   3.428   2.309
 1040SOL     OW 3439   1.709   2.247   3.243
 1040SOL    HW1 3440   1.782   2.316   3.247
 1040SOL    HW2 3441   1.737   2.172   3.184
 1041SOL     OW 3442   0.255   3.210   2.152
 1041SOL    HW1 3443   0.159   3.211   2.125
 1041SOL    HW2 3444   0.267   3.263   2.236
 1042SOL     OW 3445   0.105   2.875   3.588
 1042SOL    HW1 3446   0.028   2.842   3.642
 1042SOL    HW2 3447   0.190   2.845   3.630
 1043SOL     OW 3448   0.672   2.065   3.351
 1043SOL    HW1 3449   0.762   2.049   3.311
 1043SOL    HW2 3450   0.680   2.070   3.450
 1044SOL     OW 3451   0.075   2.207   1.895
 1044SOL    HW1 3452  -0.017   2.179   1.866
 1044SOL    HW2 3453   0.106   2.284   1.839
 1045SOL     OW 3454   1.440   2.718   3.260
 1045SOL    HW1 3455   1.383   2.770   3.197
 1045SOL    HW2 3456   1.536   2.730   3.236
 1046SOL     OW 3457   0.072   2.028   2.180
 1046SOL    HW1 3458   0.055   2.111   2.126
 1046SOL    HW2 3459   0.162   1.991   2.158
 1047SOL     OW 3460   1.183   3.197   1.981
 1047SOL    HW1 3461   1.084   3.186   1.983
 1047SOL    HW2 3462   1.217   3.212   2.074
 1048SOL     OW 3463   0.613   2.704   3.293
 1048SOL    HW1 3464   0.669   2.785   3.276
 1048SOL    HW2 3465   0.672   2.624   3.296
 1049SOL     OW 3466   1.493   3.629   2.821
 1049SOL    HW1 3467   1.526   3.693   2.752
 1049SOL    HW2 3468   1.559   3.623   2.896
 1050SOL     OW 3469   0.716   2.427   3.570
 1050SOL    HW1 3470   0.735   2.492   3.644
 1050SOL    HW2 3471   0.776   2.347   3.579
 1051SOL     OW 3472   1.450   3.082   3.495
 1051SOL    HW1 3473   1.441   3.072   3.594
 1051SOL    HW2 3474   1.546   3.075   3.469
 1052SOL     OW 3475   0.390   3.603   3.422
 1052SOL    HW1 3476   0.299   3.644   3.420
 1052SOL    HW2 3477   0.383   3.509   3.454
 1053SOL     OW 3478   1.674   2.745   3.116
 1053SOL    HW1 3479   1.647   2.656   3.079
 1053SOL    HW2 3480   1.675   2.813   3.043
 1054SOL     OW 3481   1.225   2.187   2.311
 1054SOL    HW1 3482   1.290   2.113   2.300
 1054SOL    HW2 3483   1.245   2.237   2.395
 1055SOL     OW 3484   0.594   2.607   2.514
 1055SOL    HW1 3485   0.644   2.692   2.495
 1055SOL    HW2 3486   0.506   2.609   2.466
 1056SOL     OW 3487   1.777   2.204   3.504
 1056SOL    HW1 3488   1.760   2.235   3.410
 1056SOL    HW2 3489   1.693   2.167   3.542
 1057SOL     OW 3490   1.730   2.796   3.379
 1057SOL    HW1 3491   1.768   2.887   3.394
 1057SOL    HW2 3492   1.722   2.779   3.280
 1058SOL     OW 3493   0.859   3.236   1.878
 1058SOL    HW1 3494   0.813   3.251   1.966
 1058SOL    HW2 3495   0.903   3.321   1.848
 1059SOL     OW 3496   0.661   3.652   2.815
 1059SOL    HW1 3497   0.615   3.740   2.802
 1059SOL    HW2 3498   0.760   3.664   2.808
 1060SOL     OW 3499   0.859   2.818   2.723
 1060SOL    HW1 3500   0.913   2.749   2.771
 1060SOL    HW2 3501   0.827   2.887   2.789
 1061SOL     OW 3502   1.083   2.846   1.949
 1061SOL    HW1 3503   1.060   2.899   1.867
 1061SOL    HW2 3504   1.164   2.790   1.930
 1062SOL     OW 3505   1.861   3.431   2.713
 1062SOL    HW1 3506   1.790   3.419   2.643
 1062SOL    HW2 3507   1.862   3.352   2.773
 1063SOL     OW 3508   0.221   3.176   3.706
 1063SOL    HW1 3509   0.156   3.103   3.685
 1063SOL    HW2 3510   0.225   3.190   3.804
 1064SOL     OW 3511   0.079   3.102   2.515
 1064SOL    HW1 3512   0.078   3.055   2.603
 1064SOL    HW2 3513   0.161   3.074   2.464
 1065SOL     OW 3514   0.672   3.253   3.486
 1065SOL    HW1 3515   0.594   3.203   3.524
 1065SOL    HW2 3516   0.669   3.348   3.517
 1066SOL     OW 3517   1.824   2.054   3.089
 1066SOL    HW1 3518   1.820   1.964   3.133
 1066SOL    HW2 3519   1.827   2.043   2.990
 1067SOL     OW 3520   0.428   2.286   2.382
 1067SOL    HW1 3521   0.458   2.214   2.320
 1067SOL    HW2 3522   0.389   2.246   2.465
 1068SOL     OW 3523   1.705   3.349   2.966
 1068SOL    HW1 3524   1.612   3.324   2.939
 1068SOL    HW2 3525   1.731   3.299   3.048
 1069SOL     OW 3526   0.317   2.409   3.142
 1069SOL    HW1 3527   0.355   2.350   3.214
 1069SOL    HW2 3528   0.357   2.383   3.054
 1070SOL     OW 3529   0.812   3.448   2.549
 1070SOL    HW1 3530   0.844   3.458   2.455
 1070SOL    HW2 3531   0.733   3.386   2.551
 1071SOL     OW 3532   1.424   2.076   2.974
 1071SOL    HW1 3533   1.476   2.011   3.029
 1071SOL    HW2 3534   1.375   2.139   3.035
 1072SOL     OW 3535   1.001   1.896   3.016
 1072SOL    HW1 3536   0.938   1.824   2.985
 1072SOL    HW2 3537   1.094   1.860   3.016
 1073SOL     OW 3538   0.770   3.192   2.163
 1073SOL    HW1 3539   0.724   3.105   2.180
 1073SOL    HW2 3540   0.861   3.189   2.204
 1074SOL     OW 3541   0.618   3.429   3.146
 1074SOL    HW1 3542   0.613   3.511   3.203
 1074SOL    HW2 3543   0.707   3.426   3.101
 1075SOL     OW 3544   1.352   1.914   2.030
 1075SOL    HW1 3545   1.387   1.873   1.946
 1075SOL    HW2 3546   1.262   1.876   2.050
 1076SOL     OW 3547   1.300   2.315   2.553
 1076SOL    HW1 3548   1.241   2.395   2.557
 1076SOL    HW2 3549   1.315   2.280   2.646
 1077SOL     OW 3550   1.593   2.083   2.744
 1077SOL    HW1 3551   1.509   2.082   2.798
 1077SOL    HW2 3552   1.595   2.166   2.688
 1078SOL     OW 3553   0.039   2.939   2.162
 1078SOL    HW1 3554   0.138   2.928   2.153
 1078SOL    HW2 3555  -0.001   2.853   2.194
 1079SOL     OW 3556   0.875   3.508   2.199
 1079SOL    HW1 3557   0.798   3.473   2.145
 1079SOL    HW2 3558   0.843   3.579   2.261
 1080SOL     OW 3559   0.230   2.490   3.837
 1080SOL    HW1 3560   0.137   2.488   3.874
 1080SOL    HW2 3561   0.231   2.451   3.745
 1081SOL     OW 3562   0.225   2.137   4.720
 1081SOL    HW1 3563   0.260   2.120   4.812
 1081SOL    HW2 3564   0.137   2.092   4.708
 1082SOL     OW 3565   0.019   2.230   4.371
 1082SOL    HW1 3566  -0.063   2.273   4.410
 1082SOL    HW2 3567  -0.009   2.157   4.308
 1083SOL     OW 3568   0.569   3.137   4.889
 1083SOL    HW1 3569   0.476   3.130   4.852
 1083SOL    HW2 3570   0.580   3.226   4.933
 1084SOL     OW 3571   1.555   3.373   4.427
 1084SOL    HW1 3572   1.498   3.357   4.508
 1084SOL    HW2 3573   1.496   3.383   4.347
 1085SOL     OW 3574   1.135   2.565   4.441
 1085SOL    HW1 3575   1.192   2.643   4.416
 1085SOL    HW2 3576   1.075   2.591   4.517
 1086SOL     OW 3577   1.755   2.469   3.955
 1086SOL    HW1 3578   1.743   2.456   3.856
 1086SOL    HW2 3579   1.725   2.388   4.004
 1087SOL     OW 3580   0.768   3.006   4.747
 1087SOL    HW1 3581   0.690   3.023   4.807
 1087SOL    HW2 3582   0.802   3.093   4.711
 1088SOL     OW 3583   0.850   2.660   5.547
 1088SOL    HW1 3584   0.846   2.736   5.612
 1088SOL    HW2 3585   0.872   2.696   5.456
 1089SOL     OW 3586   0.685   2.874   4.389
 1089SOL    HW1 3587   0.754   2.858   4.459
 1089SOL    HW2 3588   0.612   2.931   4.427
 1090SOL     OW 3589   0.686   3.023   5.527
 1090SOL    HW1 3590   0.746   3.102   5.541
 1090SOL    HW2 3591   0.600   3.054   5.486
 1091SOL     OW 3592   0.335   3.297   4.785
 1091SOL    HW1 3593   0.257   3.266   4.732
 1091SOL    HW2 3594   0.393   3.355   4.728
 1092SOL     OW 3595   1.460   3.367   5.063
 1092SOL    HW1 3596   1.484   3.461   5.089
 1092SOL    HW2 3597   1.444   3.313   5.145
 1093SOL     OW 3598   0.438   2.254   5.223
 1093SOL    HW1 3599   0.520   2.198   5.232
 1093SOL    HW2 3600   0.357   2.196   5.227
 1094SOL     OW 3601   1.603   2.309   4.461
 1094SOL    HW1 3602   1.529   2.355   4.411
 1094SOL    HW2 3603   1.654   2.377   4.514
 1095SOL     OW 3604   0.231   3.575   4.207
 1095SOL    HW1 3605   0.265   3.652   4.261
 1095SOL    HW2 3606   0.275   3.575   4.117
 1096SOL     OW 3607   1.127   3.203   5.414
 1096SOL    HW1 3608   1.174   3.203   5.502
 1096SOL    HW2 3609   1.079   3.116   5.403
 1097SOL     OW 3610   0.230   3.296   4.262
 1097SOL    HW1 3611   0.204   3.392   4.262
 1097SOL    HW2 3612   0.159   3.242   4.307
 1098SOL     OW 3613   0.240   2.953   4.610
 1098SOL    HW1 3614   0.254   2.869   4.662
 1098SOL    HW2 3615   0.185   3.017   4.665
 1099SOL     OW 3616   0.620   3.648   5.163
 1099SOL    HW1 3617   0.528   3.631   5.198
 1099SOL    HW2 3618   0.648   3.740   5.189
 1100SOL     OW 3619   0.606   2.826   3.847
 1100SOL    HW1 3620   0.613   2.910   3.793
 1100SOL    HW2 3621   0.652   2.839   3.935
 1101SOL     OW 3622   1.594   1.976   5.204
 1101SOL    HW1 3623   1.576   2.043   5.132
 1101SOL    HW2 3624   1.591   2.022   5.293
 1102SOL     OW 3625   0.122   2.505   4.287
 1102SOL    HW1 3626   0.077   2.417   4.304
 1102SOL    HW2 3627   0.121   2.559   4.371
 1103SOL     OW 3628   1.842   3.629   4.083
 1103SOL    HW1 3629   1.896   3.600   4.163
 1103SOL    HW2 3630   1.872   3.719   4.054
 1104SOL     OW 3631   0.027   3.458   3.841
 1104SOL    HW1 3632   0.008   3.362   3.862
 1104SOL    HW2 3633  -0.006   3.516   3.916
 1105SOL     OW 3634   1.689   2.784   4.336
 1105SOL    HW1 3635   1.784   2.755   4.344
 1105SOL    HW2 3636   1.681   2.849   4.261
 1106SOL     OW 3637   1.641   2.970   4.156
 1106SOL    HW1 3638   1.727   2.972   4.104
 1106SOL    HW2 3639   1.655   3.017   4.244
 1107SOL     OW 3640   0.113   2.599   5.321
 1107SOL    HW1 3641   0.201   2.586   5.366
 1107SOL    HW2 3642   0.100   2.696   5.299
 1108SOL     OW 3643   0.613   3.227   4.450
 1108SOL    HW1 3644   0.564   3.140   4.459
 1108SOL    HW2 3645   0.590   3.270   4.363
 1109SOL     OW 3646   1.293   3.090   5.147
 1109SOL    HW1 3647   1.330   3.017   5.089
 1109SOL    HW2 3648   1.345   3.095   5.232
 1110SOL     OW 3649   0.809   1.866   4.226
 1110SOL    HW1 3650   0.849   1.957   4.217
 1110SOL    HW2 3651   0.709   1.874   4.232
 1111SOL     OW 3652   0.197   2.838   4.988
 1111SOL    HW1 3653   0.286   2.793   4.974
 1111SOL    HW2 3654   0.124   2.773   4.969
 1112SOL     OW 3655   1.525   2.861   3.914
 1112SOL    HW1 3656   1.462   2.785   3.927
 1112SOL    HW2 3657   1.573   2.879   4.000
 1113SOL     OW 3658   1.187   3.654   5.340
 1113SOL    HW1 3659   1.211   3.714   5.264
 1113SOL    HW2 3660   1.194   3.559   5.310
 1114SOL     OW 3661   0.317   2.113   5.525
 1114SOL    HW1 3662   0.388   2.184   5.531
 1114SOL    HW2 3663   0.229   2.152   5.553
 1115SOL     OW 3664   1.466   3.279   4.677
 1115SOL    HW1 3665   1.407   3.285   4.757
 1115SOL    HW2 3666   1.451   3.191   4.631
 1116SOL     OW 3667   1.667   3.576   4.296
 1116SOL    HW1 3668   1.626   3.553   4.208
 1116SOL    HW2 3669   1.649   3.502   4.361
 1117SOL     OW 3670   0.598   2.591   3.994
 1117SOL    HW1 3671   0.622   2.660   3.926
 1117SOL    HW2 3672   0.520   2.624   4.048
 1118SOL     OW 3673   1.281   2.207   4.668
 1118SOL    HW1 3674   1.195   2.157   4.655
 1118SOL    HW2 3675   1.343   2.153   4.724
 1119SOL     OW 3676   1.576   3.524   4.031
 1119SOL    HW1 3677   1.665   3.570   4.034
 1119SOL    HW2 3678   1.555   3.500   3.936
 1120SOL     OW 3679   0.807   2.467   5.189
 1120SOL    HW1 3680   0.760   2.464   5.278
 1120SOL    HW2 3681   0.756   2.412   5.123
 1121SOL     OW 3682   1.394   2.331   5.398
 1121SOL    HW1 3683   1.374   2.374   5.486
 1121SOL    HW2 3684   1.472   2.269   5.407
 1122SOL     OW 3685   0.973   2.752   5.296
 1122SOL    HW1 3686   1.019   2.668   5.267
 1122SOL    HW2 3687   0.917   2.786   5.221
 1123SOL     OW 3688   0.991   2.272   4.966
 1123SOL    HW1 3689   0.914   2.306   5.020
 1123SOL    HW2 3690   0.957   2.221   4.887
 1124SOL     OW 3691   1.041   2.563   4.153
 1124SOL    HW1 3692   1.067   2.559   4.249
 1124SOL    HW2 3693   0.956   2.512   4.139
 1125SOL     OW 3694   0.076   2.673   4.513
 1125SOL    HW1 3695   0.175   2.661   4.522
 1125SOL    HW2 3696   0.052   2.768   4.534
 1126SOL     OW 3697   0.130   3.683   5.295
 1126SOL    HW1 3698   0.120   3.668   5.394
 1126SOL    HW2 3699   0.044   3.719   5.259
 1127SOL     OW 3700   0.865   2.210   3.919
 1127SOL    HW1 3701   0.924   2.273   3.870
 1127SOL    HW2 3702   0.884   2.116   3.890
 1128SOL     OW 3703   1.719   2.447   5.555
 1128SOL    HW1 3704   1.693   2.536   5.519
 1128SOL    HW2 3705   1.717   2.379   5.482
 1129SOL     OW 3706   1.362   3.006   4.269
 1129SOL    HW1 3707   1.445   2.977   4.221
 1129SOL    HW2 3708   1.313   3.073   4.213
 1130SOL     OW 3709   0.550   2.058   4.609
 1130SOL    HW1 3710   0.545   2.053   4.709
 1130SOL    HW2 3711   0.552   2.154   4.580
 1131SOL     OW 3712   1.008   3.318   4.201
 1131SOL    HW1 3713   0.962   3.390   4.149
 1131SOL    HW2 3714   1.004   3.338   4.299
 1132SOL     OW 3715   0.351   3.663   4.577
 1132SOL    HW1 3716   0.401   3.577   4.583
 1132SOL    HW2 3717   0.416   3.740   4.574
 1133SOL     OW 3718   1.795   2.928   4.597
 1133SOL    HW1 3719   1.733   2.913   4.521
 1133SOL    HW2 3720   1.743   2.939   4.682
 1134SOL     OW 3721   1.227   3.412   5.230
 1134SOL    HW1 3722   1.233   3.335   5.294
 1134SOL    HW2 3723   1.175   3.386   5.150
 1135SOL     OW 3724   0.321   2.805   3.966
 1135SOL    HW1 3725   0.403   2.844   3.924
 1135SOL    HW2 3726   0.294   2.723   3.917
 1136SOL     OW 3727   1.458   2.597   4.452
 1136SOL    HW1 3728   1.453   2.532   4.527
 1136SOL    HW2 3729   1.538   2.656   4.465
 1137SOL     OW 3730   0.461   3.128   5.451
 1137SOL    HW1 3731   0.411   3.129   5.365
 1137SOL    HW2 3732   0.398   3.110   5.527
 1138SOL     OW 3733   1.111   3.638   3.961
 1138SOL    HW1 3734   1.051   3.576   4.011
 1138SOL    HW2 3735   1.142   3.594   3.876
 1139SOL     OW 3736   0.202   2.147   5.222
 1139SOL    HW1 3737   0.122   2.207   5.209
 1139SOL    HW2 3738   0.192   2.098   5.308
 1140SOL     OW 3739   1.632   3.239   3.805
 1140SOL    HW1 3740   1.600   3.333   3.795
 1140SOL    HW2 3741   1.556   3.176   3.793
 1141SOL     OW 3742   0.464   3.605   4.047
 1141SOL    HW1 3743   0.497   3.644   4.133
 1141SOL    HW2 3744   0.540   3.598   3.982
 1142SOL     OW 3745   1.400   1.969   4.150
 1142SOL    HW1 3746   1.376   1.932   4.060
 1142SOL    HW2 3747   1.499   1.985   4.154
 1143SOL     OW 3748   0.249   3.647   4.965
 1143SOL    HW1 3749   0.306   3.582   5.015
 1143SOL    HW2 3750   0.233   3.614   4.872
 1144SOL     OW 3751   0.940   3.560   4.628
 1144SOL    HW1 3752   1.020   3.503   4.649
 1144SOL    HW2 3753   0.891   3.520   4.551
 1145SOL     OW 3754   0.382   2.562   4.204
 1145SOL    HW1 3755   0.427   2.472   4.201
 1145SOL    HW2 3756   0.288   2.551   4.237
 1146SOL     OW 3757   1.547   2.084   5.453
 1146SOL    HW1 3758   1.542   2.121   5.545
 1146SOL    HW2 3759   1.475   2.015   5.441
 1147SOL     OW 3760   0.614   1.984   3.841
 1147SOL    HW1 3761   0.712   1.962   3.848
 1147SOL    HW2 3762   0.583   1.967   3.748
 1148SOL     OW 3763   0.781   2.126   5.473
 1148SOL    HW1 3764   0.848   2.065   5.516
 1148SOL    HW2 3765   0.708   2.145   5.538
 1149SOL     OW 3766   0.888   3.376   4.919
 1149SOL    HW1 3767   0.865   3.351   4.825
 1149SOL    HW2 3768   0.949   3.307   4.958
 1150SOL     OW 3769   1.351   2.452   5.157
 1150SOL    HW1 3770   1.379   2.409   5.242
 1150SOL    HW2 3771   1.376   2.548   5.158
 1151SOL     OW 3772   0.803   3.264   4.648
 1151SOL    HW1 3773   0.893   3.278   4.606
 1151SOL    HW2 3774   0.732   3.266   4.577
 1152SOL     OW 3775   0.922   2.365   4.623
 1152SOL    HW1 3776   0.897   2.356   4.527
 1152SOL    HW2 3777   0.970   2.283   4.654
 1153SOL     OW 3778   0.539   1.926   4.236
 1153SOL    HW1 3779   0.458   1.927   4.294
 1153SOL    HW2 3780   0.542   2.009   4.181
 1154SOL     OW 3781   1.434   3.050   3.765
 1154SOL    HW1 3782   1.466   2.974   3.822
 1154SOL    HW2 3783   1.342   3.077   3.795
 1155SOL     OW 3784   0.297   1.897   3.895
 1155SOL    HW1 3785   0.346   1.981   3.874
 1155SOL    HW2 3786   0.359   1.832   3.940
 1156SOL     OW 3787   0.935   2.098   4.204
 1156SOL    HW1 3788   0.887   2.139   4.126
 1156SOL    HW2 3789   1.034   2.096   4.185
 1157SOL     OW 3790   1.076   2.545   5.188
 1157SOL    HW1 3791   0.996   2.484   5.191
 1157SOL    HW2 3792   1.157   2.492   5.164
 1158SOL     OW 3793   1.227   3.432   4.517
 1158SOL    HW1 3794   1.248   3.506   4.452
 1158SOL    HW2 3795   1.295   3.432   4.590
 1159SOL     OW 3796   0.459   3.014   4.465
 1159SOL    HW1 3797   0.388   2.987   4.530
 1159SOL    HW2 3798   0.433   2.986   4.372
 1160SOL     OW 3799   1.271   3.659   4.315
 1160SOL    HW1 3800   1.315   3.723   4.251
 1160SOL    HW2 3801   1.221   3.711   4.385
 1161SOL     OW 3802   1.032   2.411   3.740
 1161SOL    HW1 3803   0.991   2.493   3.701
 1161SOL    HW2 3804   1.096   2.437   3.813
 1162SOL     OW 3805   0.078   2.418   5.110
 1162SOL    HW1 3806   0.170   2.417   5.069
 1162SOL    HW2 3807   0.072   2.492   5.177
 1163SOL     OW 3808   0.561   2.084   4.871
 1163SOL    HW1 3809   0.599   2.000   4.908
 1163SOL    HW2 3810   0.473   2.103   4.915
 1164SOL     OW 3811   0.866   2.316   4.366
 1164SOL    HW1 3812   0.834   2.388   4.304
 1164SOL    HW2 3813   0.890   2.235   4.313
 1165SOL     OW 3814   1.017   1.901   4.477
 1165SOL    HW1 3815   0.945   1.906   4.408
 1165SOL    HW2 3816   0.993   1.832   4.546
 1166SOL     OW 3817   1.429   3.035   4.591
 1166SOL    HW1 3818   1.374   2.951   4.584
 1166SOL    HW2 3819   1.455   3.064   4.499
 1167SOL     OW 3820   1.466   2.452   4.716
 1167SOL    HW1 3821   1.436   2.357   4.723
 1167SOL    HW2 3822   1.539   2.468   4.782
 1168SOL     OW 3823   1.857   2.695   4.101
 1168SOL    HW1 3824   1.899   2.631   4.165
 1168SOL    HW2 3825   1.819   2.644   4.023
 1169SOL     OW 3826   0.488   3.247   3.898
 1169SOL    HW1 3827   0.401   3.232   3.945
 1169SOL    HW2 3828   0.471   3.273   3.803
 1170SOL     OW 3829   1.664   3.142   4.381
 1170SOL    HW1 3830   1.763   3.150   4.395
 1170SOL    HW2 3831   1.619   3.226   4.412
 1171SOL     OW 3832   1.390   2.437   3.802
 1171SOL    HW1 3833   1.336   2.416   3.883
 1171SOL    HW2 3834   1.481   2.396   3.811
 1172SOL     OW 3835   0.527   2.118   4.052
 1172SOL    HW1 3836   0.554   2.059   3.977
 1172SOL    HW2 3837   0.527   2.213   4.021
 1173SOL     OW 3838   1.754   3.085   5.312
 1173SOL    HW1 3839   1.845   3.046   5.299
 1173SOL    HW2 3840   1.762   3.181   5.336
 1174SOL     OW 3841   1.064   3.209   5.064
 1174SOL    HW1 3842   0.984   3.186   5.119
 1174SOL    HW2 3843   1.147   3.183   5.113
 1175SOL     OW 3844   1.592   3.491   5.349
 1175SOL    HW1 3845   1.619   3.525   5.259
 1175SOL    HW2 3846   1.671   3.453   5.395
 1176SOL     OW 3847   1.111   3.057   4.824
 1176SOL    HW1 3848   1.071   3.101   4.905
 1176SOL    HW2 3849   1.070   3.094   4.741
 1177SOL     OW 3850   1.638   2.961   4.803
 1177SOL    HW1 3851   1.643   3.042   4.862
 1177SOL    HW2 3852   1.552   2.963   4.752
 1178SOL     OW 3853   0.915   1.951   5.126
 1178SOL    HW1 3854   0.940   1.931   5.031
 1178SOL    HW2 3855   0.987   2.007   5.168
 1179SOL     OW 3856   0.980   2.978   5.443
 1179SOL    HW1 3857   0.881   2.984   5.453
 1179SOL    HW2 3858   1.003   2.898   5.387
 1180SOL     OW 3859   0.705   2.912   4.092
 1180SOL    HW1 3860   0.691   2.919   4.191
 1180SOL    HW2 3861   0.789   2.861   4.074
 1181SOL     OW 3862   0.410   2.675   4.975
 1181SOL    HW1 3863   0.496   2.687   5.025
 1181SOL    HW2 3864   0.368   2.588   5.002
 1182SOL     OW 3865   1.274   2.248   4.986
 1182SOL    HW1 3866   1.295   2.322   5.050
 1182SOL    HW2 3867   1.185   2.265   4.943
 1183SOL     OW 3868   0.064   3.426   5.055
 1183SOL    HW1 3869   0.018   3.508   5.021
 1183SOL    HW2 3870   0.162   3.445   5.064
 1184SOL     OW 3871   0.367   2.962   4.225
 1184SOL    HW1 3872   0.360   3.045   4.169
 1184SOL    HW2 3873   0.371   2.882   4.165
 1185SOL     OW 3874   0.566   2.399   4.589
 1185SOL    HW1 3875   0.578   2.465   4.515
 1185SOL    HW2 3876   0.612   2.433   4.672
 1186SOL     OW 3877   1.252   3.210   4.112
 1186SOL    HW1 3878   1.302   3.287   4.152
 1186SOL    HW2 3879   1.157   3.212   4.144
 1187SOL     OW 3880   1.272   3.307   4.866
 1187SOL    HW1 3881   1.319   3.320   4.953
 1187SOL    HW2 3882   1.206   3.233   4.875
 1188SOL     OW 3883   1.582   2.501   4.196
 1188SOL    HW1 3884   1.551   2.562   4.269
 1188SOL    HW2 3885   1.632   2.553   4.127
 1189SOL     OW 3886   0.402   2.613   5.322
 1189SOL    HW1 3887   0.470   2.668   5.275
 1189SOL    HW2 3888   0.442   2.525   5.349
 1190SOL     OW 3889   1.587   2.641   5.394
 1190SOL    HW1 3890   1.495   2.679   5.389
 1190SOL    HW2 3891   1.647   2.688   5.329
 1191SOL     OW 3892   1.013   1.967   5.494
 1191SOL    HW1 3893   1.019   2.052   5.442
 1191SOL    HW2 3894   1.045   1.891   5.437
 1192SOL     OW 3895   0.504   1.912   5.464
 1192SOL    HW1 3896   0.462   1.855   5.394
 1192SOL    HW2 3897   0.438   1.981   5.496
 1193SOL     OW 3898   0.573   2.732   4.753
 1193SOL    HW1 3899   0.617   2.821   4.744
 1193SOL    HW2 3900   0.510   2.732   4.830
 1194SOL     OW 3901   1.360   2.724   4.769
 1194SOL    HW1 3902   1.285   2.724   4.703
 1194SOL    HW2 3903   1.397   2.632   4.778
 1195SOL     OW 3904   1.209   2.387   3.999
 1195SOL    HW1 3905   1.222   2.303   4.053
 1195SOL    HW2 3906   1.180   2.461   4.059
 1196SOL     OW 3907   0.307   2.075   4.955
 1196SOL    HW1 3908   0.284   2.112   5.045
 1196SOL    HW2 3909   0.277   1.980   4.949
 1197SOL     OW 3910   0.037   3.172   5.006
 1197SOL    HW1 3911   0.090   3.123   5.074
 1197SOL    HW2 3912   0.059   3.270   5.011
 1198SOL     OW 3913   0.732   2.496   4.788
 1198SOL    HW1 3914   0.791   2.470   4.712
 1198SOL    HW2 3915   0.704   2.592   4.777
 1199SOL     OW 3916   1.728   2.797   5.578
 1199SOL    HW1 3917   1.682   2.790   5.489
 1199SOL    HW2 3918   1.666   2.841   5.644
 1200SOL     OW 3919   0.307   1.925   4.342
 1200SOL    HW1 3920   0.296   2.019   4.375
 1200SOL    HW2 3921   0.302   1.862   4.419
 1201SOL     OW 3922   1.622   2.229   4.098
 1201SOL    HW1 3923   1.624   2.153   4.162
 1201SOL    HW2 3924   1.574   2.306   4.138
 1202SOL     OW 3925   1.023   2.628   4.690
 1202SOL    HW1 3926   1.038   2.649   4.786
 1202SOL    HW2 3927   0.993   2.533   4.681
 1203SOL     OW 3928   0.980   3.435   5.424
 1203SOL    HW1 3929   0.960   3.479   5.336
 1203SOL    HW2 3930   1.019   3.344   5.408
 1204SOL     OW 3931   1.859   3.380   5.329
 1204SOL    HW1 3932   1.873   3.407   5.234
 1204SOL    HW2 3933   1.942   3.402   5.382
 1205SOL     OW 3934   0.350   2.760   5.528
 1205SOL    HW1 3935   0.426   2.804   5.576
 1205SOL    HW2 3936   0.385   2.713   5.446
 1206SOL     OW 3937   1.540   2.136   3.849
 1206SOL    HW1 3938   1.479   2.061   3.872
 1206SOL    HW2 3939   1.562   2.188   3.932
 1207SOL     OW 3940   1.303   2.700   3.766
 1207SOL    HW1 3941   1.337   2.607   3.781
 1207SOL    HW2 3942   1.321   2.727   3.671
 1208SOL     OW 3943   1.068   3.195   4.573
 1208SOL    HW1 3944   1.075   3.111   4.518
 1208SOL    HW2 3945   1.130   3.264   4.537
 1209SOL     OW 3946   0.319   2.672   4.673
 1209SOL    HW1 3947   0.412   2.708   4.678
 1209SOL    HW2 3948   0.313   2.587   4.725
 1210SOL     OW 3949   0.339   2.371   4.730
 1210SOL    HW1 3950   0.287   2.288   4.713
 1210SOL    HW2 3951   0.416   2.376   4.666
 1211SOL     OW 3952   1.138   2.242   5.402
 1211SOL    HW1 3953   1.093   2.305   5.466
 1211SOL    HW2 3954   1.231   2.273   5.385
 1212SOL     OW 3955   1.160   2.069   5.201
 1212SOL    HW1 3956   1.160   2.133   5.278
 1212SOL    HW2 3957   1.188   2.117   5.118
 1213SOL     OW 3958   0.008   3.188   3.924
 1213SOL    HW1 3959  -0.085   3.209   3.893
 1213SOL    HW2 3960   0.018   3.089   3.937
 1214SOL     OW 3961   0.088   3.663   4.651
 1214SOL    HW1 3962   0.046   3.577   4.624
 1214SOL    HW2 3963   0.182   3.666   4.617
 1215SOL     OW 3964   0.504   3.430   4.634
 1215SOL    HW1 3965   0.570   3.504   4.643
 1215SOL    HW2 3966   0.548   3.351   4.592
 1216SOL     OW 3967   1.002   2.658   4.962
 1216SOL    HW1 3968   1.043   2.626   5.048
 1216SOL    HW2 3969   0.906   2.631   4.959
 1217SOL     OW 3970   0.040   2.406   4.838
 1217SOL    HW1 3971   0.125   2.373   4.797
 1217SOL    HW2 3972   0.053   2.421   4.936
 1218SOL     OW 3973   0.189   2.382   5.446
 1218SOL    HW1 3974   0.248   2.342   5.376
 1218SOL    HW2 3975   0.131   2.453   5.405
 1219SOL     OW 3976   1.369   2.812   5.384
 1219SOL    HW1 3977   1.408   2.901   5.404
 1219SOL    HW2 3978   1.379   2.792   5.287
 1220SOL     OW 3979   0.815   2.434   4.049
 1220SOL    HW1 3980   0.822   2.345   4.003
 1220SOL    HW2 3981   0.721   2.468   4.041
 1221SOL     OW 3982   1.657   2.466   4.930
 1221SOL    HW1 3983   1.619   2.397   4.992
 1221SOL    HW2 3984   1.739   2.430   4.886
 1222SOL     OW 3985   0.252   3.426   5.468
 1222SOL    HW1 3986   0.222   3.483   5.544
 1222SOL    HW2 3987   0.245   3.329   5.494
 1223SOL     OW 3988   0.671   2.326   4.993
 1223SOL    HW1 3989   0.637   2.237   4.963
 1223SOL    HW2 3990   0.697   2.380   4.913
 1224SOL     OW 3991   0.930   3.540   5.189
 1224SOL    HW1 3992   0.906   3.522   5.094
 1224SOL    HW2 3993   0.960   3.634   5.199
 1225SOL     OW 3994   0.473   2.362   3.915
 1225SOL    HW1 3995   0.534   2.442   3.919
 1225SOL    HW2 3996   0.378   2.393   3.922
 1226SOL     OW 3997   0.159   2.999   5.190
 1226SOL    HW1 3998   0.181   2.938   5.266
 1226SOL    HW2 3999   0.169   2.950   5.104
 1227SOL     OW 4000   1.347   2.921   4.958
 1227SOL    HW1 4001   1.371   2.858   4.884
 1227SOL    HW2 4002   1.257   2.961   4.940
 1228SOL     OW 4003   1.302   2.717   4.033
 1228SOL    HW1 4004   1.216   2.686   4.075
 1228SOL    HW2 4005   1.298   2.703   3.934
 1229SOL     OW 4006   1.759   3.609   4.878
 1229SOL    HW1 4007   1.820   3.639   4.805
 1229SOL    HW2 4008   1.721   3.520   4.856
 1230SOL     OW 4009   1.252   3.593   4.852
 1230SOL    HW1 4010   1.336   3.598   4.798
 1230SOL    HW2 4011   1.229   3.497   4.870
 1231SOL     OW 4012   0.083   3.120   4.746
 1231SOL    HW1 4013   0.078   3.119   4.846
 1231SOL    HW2 4014   0.000   3.079   4.708
 1232SOL     OW 4015   0.688   3.524   5.440
 1232SOL    HW1 4016   0.632   3.605   5.449
 1232SOL    HW2 4017   0.740   3.528   5.354
 1233SOL     OW 4018   1.726   1.997   4.247
 1233SOL    HW1 4019   1.799   1.980   4.180
 1233SOL    HW2 4020   1.695   1.910   4.285
 1234SOL     OW 4021   1.388   3.435   4.201
 1234SOL    HW1 4022   1.455   3.447   4.127
 1234SOL    HW2 4023   1.348   3.524   4.224
 1235SOL     OW 4024   0.130   3.656   5.575
 1235SOL    HW1 4025   0.089   3.582   5.628
 1235SOL    HW2 4026   0.194   3.707   5.633
 1236SOL     OW 4027   1.280   2.789   4.396
 1236SOL    HW1 4028   1.340   2.708   4.398
 1236SOL    HW2 4029   1.320   2.858   4.336
 1237SOL     OW 4030   0.830   3.135   5.146
 1237SOL    HW1 4031   0.825   3.168   5.241
 1237SOL    HW2 4032   0.744   3.154   5.100
 1238SOL     OW 4033   0.672   3.478   3.878
 1238SOL    HW1 4034   0.681   3.488   3.779
 1238SOL    HW2 4035   0.632   3.389   3.899
 1239SOL     OW 4036   1.650   3.582   5.118
 1239SOL    HW1 4037   1.703   3.592   5.034
 1239SOL    HW2 4038   1.623   3.672   5.152
 1240SOL     OW 4039   1.841   2.037   4.687
 1240SOL    HW1 4040   1.880   1.952   4.651
 1240SOL    HW2 4041   1.743   2.039   4.668
 1241SOL     OW 4042   0.263   2.188   4.444
 1241SOL    HW1 4043   0.184   2.239   4.410
 1241SOL    HW2 4044   0.254   2.173   4.542
 1242SOL     OW 4045   1.194   3.474   3.755
 1242SOL    HW1 4046   1.200   3.381   3.792
 1242SOL    HW2 4047   1.135   3.474   3.675
 1243SOL     OW 4048   0.822   2.864   5.096
 1243SOL    HW1 4049   0.862   2.863   5.004
 1243SOL    HW2 4050   0.832   2.956   5.136
 1244SOL     OW 4051   0.916   2.772   4.015
 1244SOL    HW1 4052   0.979   2.810   3.947
 1244SOL    HW2 4053   0.956   2.689   4.054
 1245SOL     OW 4054   1.504   3.469   3.768
 1245SOL    HW1 4055   1.412   3.506   3.775
 1245SOL    HW2 4056   1.542   3.489   3.678
 1246SOL     OW 4057   0.372   3.150   5.214
 1246SOL    HW1 4058   0.359   3.243   5.180
 1246SOL    HW2 4059   0.288   3.098   5.201
 1247SOL     OW 4060   1.614   3.154   5.013
 1247SOL    HW1 4061   1.674   3.157   5.093
 1247SOL    HW2 4062   1.539   3.218   5.026
 1248SOL     OW 4063   1.039   2.960   4.420
 1248SOL    HW1 4064   0.969   2.913   4.474
 1248SOL    HW2 4065   1.098   2.892   4.377
 1249SOL     OW 4066   1.014   2.098   4.695
 1249SOL    HW1 4067   1.006   2.062   4.602
 1249SOL    HW2 4068   1.012   2.022   4.760
 1250SOL     OW 4069   0.590   3.349   4.215
 1250SOL    HW1 4070   0.632   3.291   4.145
 1250SOL    HW2 4071   0.546   3.428   4.171
 1251SOL     OW 4072   1.709   2.247   5.105
 1251SOL    HW1 4073   1.782   2.316   5.109
 1251SOL    HW2 4074   1.737   2.172   5.046
 1252SOL     OW 4075   0.255   3.210   4.014
 1252SOL    HW1 4076   0.159   3.211   3.987
 1252SOL    HW2 4077   0.267   3.263   4.098
 1253SOL     OW 4078   0.105   2.875   5.450
 1253SOL    HW1 4079   0.028   2.842   5.504
 1253SOL    HW2 4080   0.190   2.845   5.492
 1254SOL     OW 4081   0.672   2.065   5.213
 1254SOL    HW1 4082   0.762   2.049   5.173
 1254SOL    HW2 4083   0.680   2.070   5.312
 1255SOL     OW 4084   0.075   2.207   3.757
 1255SOL    HW1 4085  -0.017   2.179   3.728
 1255SOL    HW2 4086   0.106   2.284   3.701
 1256SOL     OW 4087   1.440   2.718   5.122
 1256SOL    HW1 4088   1.383   2.770   5.059
 1256SOL    HW2 4089   1.536   2.730   5.098
 1257SOL     OW 4090   0.072   2.028   4.042
 1257SOL    HW1 4091   0.055   2.111   3.988
 1257SOL    HW2 4092   0.162   1.991   4.020
 1258SOL     OW 4093   1.183   3.197   3.843
 1258SOL    HW1 4094   1.084   3.186   3.845
 1258SOL    HW2 4095   1.217   3.212   3.936
 1259SOL     OW 4096   0.613   2.704   5.155
 1259SOL    HW1 4097   0.669   2.785   5.138
 1259SOL    HW2 4098   0.672   2.624   5.158
 1260SOL     OW 4099   1.493   3.629   4.683
 1260SOL    HW1 4100   1.526   3.693   4.614
 1260SOL    HW2 4101   1.559   3.623   4.758
 1261SOL     OW 4102   0.716   2.427   5.432
 1261SOL    HW1 4103   0.735   2.492   5.506
 1261SOL    HW2 4104   0.776   2.347   5.441
 1262SOL     OW 4105   1.450   3.082   5.357
 1262SOL    HW1 4106   1.441   3.072   5.456
 1262SOL    HW2 4107   1.546   3.075   5.331
 1263SOL     OW 4108   0.390   3.603   5.284
 1263SOL    HW1 4109   0.299   3.644   5.282
 1263SOL    HW2 4110   0.383   3.509   5.316
 1264SOL     OW 4111   1.674   2.745   4.978
 1264SOL    HW1 4112   1.647   2.656   4.941
 1264SOL    HW2 4113   1.675   2.813   4.905
 1265SOL     OW 4114   1.225   2.187   4.173
 1265SOL    HW1 4115   1.290   2.113   4.162
 1265SOL    HW2 4116   1.245   2.237   4.257
 1266SOL     OW 4117   0.594   2.607   4.376
 1266SOL    HW1 4118   0.644   2.692   4.357
 1266SOL    HW2 4119   0.506   2.609   4.328
 1267SOL     OW 4120   1.777   2.204   5.366
 1267SOL    HW1 4121   1.760   2.235   5.272
 1267SOL    HW2 4122   1.693   2.167   5.404
 1268SOL     OW 4123   1.730   2.796   5.241
 1268SOL    HW1 4124   1.768   2.887   5.256
 1268SOL    HW2 4125   1.722   2.779   5.142
 1269SOL     OW 4126   0.859   3.236   3.740
 1269SOL    HW1 4127   0.813   3.251   3.828
 1269SOL    HW2 4128   0.903   3.321   3.710
 1270SOL     OW 4129   0.661   3.652   4.677
 1270SOL    HW1 4130   0.615   3.740   4.664
 1270SOL    HW2 4131   0.760   3.664   4.670
 1271SOL     OW 4132   0.859   2.818   4.585
 1271SOL    HW1 4133   0.913   2.749   4.633
 1271SOL    HW2 4134   0.827   2.887   4.651
 1272SOL     OW 4135   1.083   2.846   3.811
 1272SOL    HW1 4136   1.060   2.899   3.729
 1272SOL    HW2 4137   1.164   2.790   3.792
 1273SOL     OW 4138   1.861   3.431   4.575
 1273SOL    HW1 4139   1.790   3.419   4.505
 1273SOL    HW2 4140   1.862   3.352   4.635
 1274SOL     OW 4141   0.221   3.176   5.568
 1274SOL    HW1 4142   0.156   3.103   5.547
 1274SOL    HW2 4143   0.225   3.190   5.666
 1275SOL     OW 4144   0.079   3.102   4.377
 1275SOL    HW1 4145   0.078   3.055   4.465
 1275SOL    HW2 4146   0.161   3.074   4.326
 1276SOL     OW 4147   0.672   3.253   5.348
 1276SOL    HW1 4148   0.594   3.203   5.386
 1276SOL    HW2 4149   0.669   3.348   5.379
 1277SOL     OW 4150   1.824   2.054   4.951
 1277SOL    HW1 4151   1.820   1.964   4.995
 1277SOL    HW2 4152   1.827   2.043   4.852
 1278SOL     OW 4153   0.428   2.286   4.244
 1278SOL    HW1 4154   0.458   2.214   4.182
 1278SOL    HW2 4155   0.389   2.246   4.327
 1279SOL     OW 4156   1.705   3.349   4.828
 1279SOL    HW1 4157   1.612   3.324   4.801
 1279SOL    HW2 4158   1.731   3.299   4.910
 1280SOL     OW 4159   0.317   2.409   5.004
 1280SOL    HW1 4160   0.355   2.350   5.076
 1280SOL    HW2 4161   0.357   2.383   4.916
 1281SOL     OW 4162   0.812   3.448   4.411
 1281SOL    HW1 4163   0.844   3.458   4.317
 1281SOL    HW2 4164   0.733   3.386   4.413
 1282SOL     OW 4165   1.424   2.076   4.836
 1282SOL    HW1 4166   1.476   2.011   4.891
 1282SOL    HW2 4167   1.375   2.139   4.897
 1283SOL     OW 4168   1.001   1.896   4.878
 1283SOL    HW1 4169   0.938   1.824   4.847
 1283SOL    HW2 4170   1.094   1.860   4.878
 1284SOL     OW 4171   0.770   3.192   4.025
 1284SOL    HW1 4172   0.724   3.105   4.042
 1284SOL    HW2 4173   0.861   3.189   4.066
 1285SOL     OW 4174   0.618   3.429   5.008
 1285SOL    HW1 4175   0.613   3.511   5.065
 1285SOL    HW2 4176   0.707   3.426   4.963
 1286SOL     OW 4177   1.352   1.914   3.892
 1286SOL    HW1 4178   1.387   1.873   3.808
 1286SOL    HW2 4179   1.262   1.876   3.912
 1287SOL     OW 4180   1.300   2.315   4.415
 1287SOL    HW1 4181   1.241   2.395   4.419
 1287SOL    HW2 4182   1.315   2.280   4.508
 1288SOL     OW 4183   1.593   2.083   4.606
 1288SOL    HW1 4184   1.509   2.082   4.660
 1288SOL    HW2 4185   1.595   2.166   4.550
 1289SOL     OW 4186   0.039   2.939   4.024
 1289SOL    HW1 4187   0.138   2.928   4.015
 1289SOL    HW2 4188  -0.001   2.853   4.056
 1290SOL     OW 4189   0.875   3.508   4.061
 1290SOL    HW1 4190   0.798   3.473   4.007
 1290SOL    HW2 4191   0.843   3.579   4.123
 1291SOL     OW 4192   0.230   4.352   0.113
 1291SOL    HW1 4193   0.137   4.350   0.150
 1291SOL    HW2 4194   0.231   4.313   0.021
 1292SOL     OW 4195   0.225   3.999   0.996
 1292SOL    HW1 4196   0.260   3.982   1.088
 1292SOL    HW2 4197   0.137   3.954   0.984
 1293SOL     OW 4198   0.019   4.092   0.647
 1293SOL    HW1 4199  -0.063   4.135   0.686
 1293SOL    HW2 4200  -0.009   4.019   0.584
 1294SOL     OW 4201   0.569   4.999   1.165
 1294SOL    HW1 4202   0.476   4.992   1.128
 1294SOL    HW2 4203   0.580   5.088   1.209
 1295SOL     OW 4204   1.555   5.235   0.703
 1295SOL    HW1 4205   1.498   5.219   0.784
 1295SOL    HW2 4206   1.496   5.245   0.623
 1296SOL     OW 4207   1.135   4.427   0.717
 1296SOL    HW1 4208   1.192   4.505   0.692
 1296SOL    HW2 4209   1.075   4.453   0.793
 1297SOL     OW 4210   1.755   4.331   0.231
 1297SOL    HW1 4211   1.743   4.318   0.132
 1297SOL    HW2 4212   1.725   4.250   0.280
 1298SOL     OW 4213   0.768   4.868   1.023
 1298SOL    HW1 4214   0.690   4.885   1.083
 1298SOL    HW2 4215   0.802   4.955   0.987
 1299SOL     OW 4216   0.850   4.522   1.823
 1299SOL    HW1 4217   0.846   4.598   1.888
 1299SOL    HW2 4218   0.872   4.558   1.732
 1300SOL     OW 4219   0.685   4.736   0.665
 1300SOL    HW1 4220   0.754   4.720   0.735
 1300SOL    HW2 4221   0.612   4.793   0.703
 1301SOL     OW 4222   0.686   4.885   1.803
 1301SOL    HW1 4223   0.746   4.964   1.817
 1301SOL    HW2 4224   0.600   4.916   1.762
 1302SOL     OW 4225   0.335   5.159   1.061
 1302SOL    HW1 4226   0.257   5.128   1.008
 1302SOL    HW2 4227   0.393   5.217   1.004
 1303SOL     OW 4228   1.460   5.229   1.339
 1303SOL    HW1 4229   1.484   5.323   1.365
 1303SOL    HW2 4230   1.444   5.175   1.421
 1304SOL     OW 4231   0.438   4.116   1.499
 1304SOL    HW1 4232   0.520   4.060   1.508
 1304SOL    HW2 4233   0.357   4.058   1.503
 1305SOL     OW 4234   1.603   4.171   0.737
 1305SOL    HW1 4235   1.529   4.217   0.687
 1305SOL    HW2 4236   1.654   4.239   0.790
 1306SOL     OW 4237   0.231   5.437   0.483
 1306SOL    HW1 4238   0.265   5.514   0.537
 1306SOL    HW2 4239   0.275   5.437   0.393
 1307SOL     OW 4240   1.127   5.065   1.690
 1307SOL    HW1 4241   1.174   5.065   1.778
 1307SOL    HW2 4242   1.079   4.978   1.679
 1308SOL     OW 4243   0.230   5.158   0.538
 1308SOL    HW1 4244   0.204   5.254   0.538
 1308SOL    HW2 4245   0.159   5.104   0.583
 1309SOL     OW 4246   0.240   4.815   0.886
 1309SOL    HW1 4247   0.254   4.731   0.938
 1309SOL    HW2 4248   0.185   4.879   0.941
 1310SOL     OW 4249   0.620   5.510   1.439
 1310SOL    HW1 4250   0.528   5.493   1.474
 1310SOL    HW2 4251   0.648   5.602   1.465
 1311SOL     OW 4252   0.606   4.688   0.123
 1311SOL    HW1 4253   0.613   4.772   0.069
 1311SOL    HW2 4254   0.652   4.701   0.211
 1312SOL     OW 4255   1.594   3.838   1.480
 1312SOL    HW1 4256   1.576   3.905   1.408
 1312SOL    HW2 4257   1.591   3.884   1.569
 1313SOL     OW 4258   0.122   4.367   0.563
 1313SOL    HW1 4259   0.077   4.279   0.580
 1313SOL    HW2 4260   0.121   4.421   0.647
 1314SOL     OW 4261   1.842   5.491   0.359
 1314SOL    HW1 4262   1.896   5.462   0.439
 1314SOL    HW2 4263   1.872   5.581   0.330
 1315SOL     OW 4264   0.027   5.320   0.117
 1315SOL    HW1 4265   0.008   5.224   0.138
 1315SOL    HW2 4266  -0.006   5.378   0.192
 1316SOL     OW 4267   1.689   4.646   0.612
 1316SOL    HW1 4268   1.784   4.617   0.620
 1316SOL    HW2 4269   1.681   4.711   0.537
 1317SOL     OW 4270   1.641   4.832   0.432
 1317SOL    HW1 4271   1.727   4.834   0.380
 1317SOL    HW2 4272   1.655   4.879   0.520
 1318SOL     OW 4273   0.113   4.461   1.597
 1318SOL    HW1 4274   0.201   4.448   1.642
 1318SOL    HW2 4275   0.100   4.558   1.575
 1319SOL     OW 4276   0.613   5.089   0.726
 1319SOL    HW1 4277   0.564   5.002   0.735
 1319SOL    HW2 4278   0.590   5.132   0.639
 1320SOL     OW 4279   1.293   4.952   1.423
 1320SOL    HW1 4280   1.330   4.879   1.365
 1320SOL    HW2 4281   1.345   4.957   1.508
 1321SOL     OW 4282   0.809   3.728   0.502
 1321SOL    HW1 4283   0.849   3.819   0.493
 1321SOL    HW2 4284   0.709   3.736   0.508
 1322SOL     OW 4285   0.197   4.700   1.264
 1322SOL    HW1 4286   0.286   4.655   1.250
 1322SOL    HW2 4287   0.124   4.635   1.245
 1323SOL     OW 4288   1.525   4.723   0.190
 1323SOL    HW1 4289   1.462   4.647   0.203
 1323SOL    HW2 4290   1.573   4.741   0.276
 1324SOL     OW 4291   1.187   5.516   1.616
 1324SOL    HW1 4292   1.211   5.576   1.540
 1324SOL    HW2 4293   1.194   5.421   1.586
 1325SOL     OW 4294   0.317   3.975   1.801
 1325SOL    HW1 4295   0.388   4.046   1.807
 1325SOL    HW2 4296   0.229   4.014   1.829
 1326SOL     OW 4297   1.466   5.141   0.953
 1326SOL    HW1 4298   1.407   5.147   1.033
 1326SOL    HW2 4299   1.451   5.053   0.907
 1327SOL     OW 4300   1.667   5.438   0.572
 1327SOL    HW1 4301   1.626   5.415   0.484
 1327SOL    HW2 4302   1.649   5.364   0.637
 1328SOL     OW 4303   0.598   4.453   0.270
 1328SOL    HW1 4304   0.622   4.522   0.202
 1328SOL    HW2 4305   0.520   4.486   0.324
 1329SOL     OW 4306   1.281   4.069   0.944
 1329SOL    HW1 4307   1.195   4.019   0.931
 1329SOL    HW2 4308   1.343   4.015   1.000
 1330SOL     OW 4309   1.576   5.386   0.307
 1330SOL    HW1 4310   1.665   5.432   0.310
 1330SOL    HW2 4311   1.555   5.362   0.212
 1331SOL     OW 4312   0.807   4.329   1.465
 1331SOL    HW1 4313   0.760   4.326   1.554
 1331SOL    HW2 4314   0.756   4.274   1.399
 1332SOL     OW 4315   1.394   4.193   1.674
 1332SOL    HW1 4316   1.374   4.236   1.762
 1332SOL    HW2 4317   1.472   4.131   1.683
 1333SOL     OW 4318   0.973   4.614   1.572
 1333SOL    HW1 4319   1.019   4.530   1.543
 1333SOL    HW2 4320   0.917   4.648   1.497
 1334SOL     OW 4321   0.991   4.134   1.242
 1334SOL    HW1 4322   0.914   4.168   1.296
 1334SOL    HW2 4323   0.957   4.083   1.163
 1335SOL     OW 4324   1.041   4.425   0.429
 1335SOL    HW1 4325   1.067   4.421   0.525
 1335SOL    HW2 4326   0.956   4.374   0.415
 1336SOL     OW 4327   0.076   4.535   0.789
 1336SOL    HW1 4328   0.175   4.523   0.798
 1336SOL    HW2 4329   0.052   4.630   0.810
 1337SOL     OW 4330   0.130   5.545   1.571
 1337SOL    HW1 4331   0.120   5.530   1.670
 1337SOL    HW2 4332   0.044   5.581   1.535
 1338SOL     OW 4333   0.865   4.072   0.195
 1338SOL    HW1 4334   0.924   4.135   0.146
 1338SOL    HW2 4335   0.884   3.978   0.166
 1339SOL     OW 4336   1.719   4.309   1.831
 1339SOL    HW1 4337   1.693   4.398   1.795
 1339SOL    HW2 4338   1.717   4.241   1.758
 1340SOL     OW 4339   1.362   4.868   0.545
 1340SOL    HW1 4340   1.445   4.839   0.497
 1340SOL    HW2 4341   1.313   4.935   0.489
 1341SOL     OW 4342   0.550   3.920   0.885
 1341SOL    HW1 4343   0.545   3.915   0.985
 1341SOL    HW2 4344   0.552   4.016   0.856
 1342SOL     OW 4345   1.008   5.180   0.477
 1342SOL    HW1 4346   0.962   5.252   0.425
 1342SOL    HW2 4347   1.004   5.200   0.575
 1343SOL     OW 4348   0.351   5.525   0.853
 1343SOL    HW1 4349   0.401   5.439   0.859
 1343SOL    HW2 4350   0.416   5.602   0.850
 1344SOL     OW 4351   1.795   4.790   0.873
 1344SOL    HW1 4352   1.733   4.775   0.797
 1344SOL    HW2 4353   1.743   4.801   0.958
 1345SOL     OW 4354   1.227   5.274   1.506
 1345SOL    HW1 4355   1.233   5.197   1.570
 1345SOL    HW2 4356   1.175   5.248   1.426
 1346SOL     OW 4357   0.321   4.667   0.242
 1346SOL    HW1 4358   0.403   4.706   0.200
 1346SOL    HW2 4359   0.294   4.585   0.193
 1347SOL     OW 4360   1.458   4.459   0.728
 1347SOL    HW1 4361   1.453   4.394   0.803
 1347SOL    HW2 4362   1.538   4.518   0.741
 1348SOL     OW 4363   0.461   4.990   1.727
 1348SOL    HW1 4364   0.411   4.991   1.641
 1348SOL    HW2 4365   0.398   4.972   1.803
 1349SOL     OW 4366   1.111   5.500   0.237
 1349SOL    HW1 4367   1.051   5.438   0.287
 1349SOL    HW2 4368   1.142   5.456   0.152
 1350SOL     OW 4369   0.202   4.009   1.498
 1350SOL    HW1 4370   0.122   4.069   1.485
 1350SOL    HW2 4371   0.192   3.960   1.584
 1351SOL     OW 4372   1.632   5.101   0.081
 1351SOL    HW1 4373   1.600   5.195   0.071
 1351SOL    HW2 4374   1.556   5.038   0.069
 1352SOL     OW 4375   0.464   5.467   0.323
 1352SOL    HW1 4376   0.497   5.506   0.409
 1352SOL    HW2 4377   0.540   5.460   0.258
 1353SOL     OW 4378   1.400   3.831   0.426
 1353SOL    HW1 4379   1.376   3.794   0.336
 1353SOL    HW2 4380   1.499   3.847   0.430
 1354SOL     OW 4381   0.249   5.509   1.241
 1354SOL    HW1 4382   0.306   5.444   1.291
 1354SOL    HW2 4383   0.233   5.476   1.148
 1355SOL     OW 4384   0.940   5.422   0.904
 1355SOL    HW1 4385   1.020   5.365   0.925
 1355SOL    HW2 4386   0.891   5.382   0.827
 1356SOL     OW 4387   0.382   4.424   0.480
 1356SOL    HW1 4388   0.427   4.334   0.477
 1356SOL    HW2 4389   0.288   4.413   0.513
 1357SOL     OW 4390   1.547   3.946   1.729
 1357SOL    HW1 4391   1.542   3.983   1.821
 1357SOL    HW2 4392   1.475   3.877   1.717
 1358SOL     OW 4393   0.614   3.846   0.117
 1358SOL    HW1 4394   0.712   3.824   0.124
 1358SOL    HW2 4395   0.583   3.829   0.024
 1359SOL     OW 4396   0.781   3.988   1.749
 1359SOL    HW1 4397   0.848   3.927   1.792
 1359SOL    HW2 4398   0.708   4.007   1.814
 1360SOL     OW 4399   0.888   5.238   1.195
 1360SOL    HW1 4400   0.865   5.213   1.101
 1360SOL    HW2 4401   0.949   5.169   1.234
 1361SOL     OW 4402   1.351   4.314   1.433
 1361SOL    HW1 4403   1.379   4.271   1.518
 1361SOL    HW2 4404   1.376   4.410   1.434
 1362SOL     OW 4405   0.803   5.126   0.924
 1362SOL    HW1 4406   0.893   5.140   0.882
 1362SOL    HW2 4407   0.732   5.128   0.853
 1363SOL     OW 4408   0.922   4.227   0.899
 1363SOL    HW1 4409   0.897   4.218   0.803
 1363SOL    HW2 4410   0.970   4.145   0.930
 1364SOL     OW 4411   0.539   3.788   0.512
 1364SOL    HW1 4412   0.458   3.789   0.570
 1364SOL    HW2 4413   0.542   3.871   0.457
 1365SOL     OW 4414   1.434   4.912   0.041
 1365SOL    HW1 4415   1.466   4.836   0.098
 1365SOL    HW2 4416   1.342   4.939   0.071
 1366SOL     OW 4417   0.297   3.759   0.171
 1366SOL    HW1 4418   0.346   3.843   0.150
 1366SOL    HW2 4419   0.359   3.694   0.216
 1367SOL     OW 4420   0.935   3.960   0.480
 1367SOL    HW1 4421   0.887   4.001   0.402
 1367SOL    HW2 4422   1.034   3.958   0.461
 1368SOL     OW 4423   1.076   4.407   1.464
 1368SOL    HW1 4424   0.996   4.346   1.467
 1368SOL    HW2 4425   1.157   4.354   1.440
 1369SOL     OW 4426   1.227   5.294   0.793
 1369SOL    HW1 4427   1.248   5.368   0.728
 1369SOL    HW2 4428   1.295   5.294   0.866
 1370SOL     OW 4429   0.459   4.876   0.741
 1370SOL    HW1 4430   0.388   4.849   0.806
 1370SOL    HW2 4431   0.433   4.848   0.648
 1371SOL     OW 4432   1.271   5.521   0.591
 1371SOL    HW1 4433   1.315   5.585   0.527
 1371SOL    HW2 4434   1.221   5.573   0.661
 1372SOL     OW 4435   1.032   4.273   0.016
 1372SOL    HW1 4436   0.991   4.355  -0.023
 1372SOL    HW2 4437   1.096   4.299   0.089
 1373SOL     OW 4438   0.078   4.280   1.386
 1373SOL    HW1 4439   0.170   4.279   1.345
 1373SOL    HW2 4440   0.072   4.354   1.453
 1374SOL     OW 4441   0.561   3.946   1.147
 1374SOL    HW1 4442   0.599   3.862   1.184
 1374SOL    HW2 4443   0.473   3.965   1.191
 1375SOL     OW 4444   0.866   4.178   0.642
 1375SOL    HW1 4445   0.834   4.250   0.580
 1375SOL    HW2 4446   0.890   4.097   0.589
 1376SOL     OW 4447   1.017   3.763   0.753
 1376SOL    HW1 4448   0.945   3.768   0.684
 1376SOL    HW2 4449   0.993   3.694   0.822
 1377SOL     OW 4450   1.429   4.897   0.867
 1377SOL    HW1 4451   1.374   4.813   0.860
 1377SOL    HW2 4452   1.455   4.926   0.775
 1378SOL     OW 4453   1.466   4.314   0.992
 1378SOL    HW1 4454   1.436   4.219   0.999
 1378SOL    HW2 4455   1.539   4.330   1.058
 1379SOL     OW 4456   1.857   4.557   0.377
 1379SOL    HW1 4457   1.899   4.493   0.441
 1379SOL    HW2 4458   1.819   4.506   0.299
 1380SOL     OW 4459   0.488   5.109   0.174
 1380SOL    HW1 4460   0.401   5.094   0.221
 1380SOL    HW2 4461   0.471   5.135   0.079
 1381SOL     OW 4462   1.664   5.004   0.657
 1381SOL    HW1 4463   1.763   5.012   0.671
 1381SOL    HW2 4464   1.619   5.088   0.688
 1382SOL     OW 4465   1.390   4.299   0.078
 1382SOL    HW1 4466   1.336   4.278   0.159
 1382SOL    HW2 4467   1.481   4.258   0.087
 1383SOL     OW 4468   0.527   3.980   0.328
 1383SOL    HW1 4469   0.554   3.921   0.253
 1383SOL    HW2 4470   0.527   4.075   0.297
 1384SOL     OW 4471   1.754   4.947   1.588
 1384SOL    HW1 4472   1.845   4.908   1.575
 1384SOL    HW2 4473   1.762   5.043   1.612
 1385SOL     OW 4474   1.064   5.071   1.340
 1385SOL    HW1 4475   0.984   5.048   1.395
 1385SOL    HW2 4476   1.147   5.045   1.389
 1386SOL     OW 4477   1.592   5.353   1.625
 1386SOL    HW1 4478   1.619   5.387   1.535
 1386SOL    HW2 4479   1.671   5.315   1.671
 1387SOL     OW 4480   1.111   4.919   1.100
 1387SOL    HW1 4481   1.071   4.963   1.181
 1387SOL    HW2 4482   1.070   4.956   1.017
 1388SOL     OW 4483   1.638   4.823   1.079
 1388SOL    HW1 4484   1.643   4.904   1.138
 1388SOL    HW2 4485   1.552   4.825   1.028
 1389SOL     OW 4486   0.915   3.813   1.402
 1389SOL    HW1 4487   0.940   3.793   1.307
 1389SOL    HW2 4488   0.987   3.869   1.444
 1390SOL     OW 4489   0.980   4.840   1.719
 1390SOL    HW1 4490   0.881   4.846   1.729
 1390SOL    HW2 4491   1.003   4.760   1.663
 1391SOL     OW 4492   0.705   4.774   0.368
 1391SOL    HW1 4493   0.691   4.781   0.467
 1391SOL    HW2 4494   0.789   4.723   0.350
 1392SOL     OW 4495   0.410   4.537   1.251
 1392SOL    HW1 4496   0.496   4.549   1.301
 1392SOL    HW2 4497   0.368   4.450   1.278
 1393SOL     OW 4498   1.274   4.110   1.262
 1393SOL    HW1 4499   1.295   4.184   1.326
 1393SOL    HW2 4500   1.185   4.127   1.219
 1394SOL     OW 4501   0.064   5.288   1.331
 1394SOL    HW1 4502   0.018   5.370   1.297
 1394SOL    HW2 4503   0.162   5.307   1.340
 1395SOL     OW 4504   0.367   4.824   0.501
 1395SOL    HW1 4505   0.360   4.907   0.445
 1395SOL    HW2 4506   0.371   4.744   0.441
 1396SOL     OW 4507   0.566   4.261   0.865
 1396SOL    HW1 4508   0.578   4.327   0.791
 1396SOL    HW2 4509   0.612   4.295   0.948
 1397SOL     OW 4510   1.252   5.072   0.388
 1397SOL    HW1 4511   1.302   5.149   0.428
 1397SOL    HW2 4512   1.157   5.074   0.420
 1398SOL     OW 4513   1.272   5.169   1.142
 1398SOL    HW1 4514   1.319   5.182   1.229
 1398SOL    HW2 4515   1.206   5.095   1.151
 1399SOL     OW 4516   1.582   4.363   0.472
 1399SOL    HW1 4517   1.551   4.424   0.545
 1399SOL    HW2 4518   1.632   4.415   0.403
 1400SOL     OW 4519   0.354   5.234   1.329
 1400SOL    HW1 4520   0.333   5.190   1.242
 1400SOL    HW2 4521   0.451   5.260   1.332
 1401SOL     OW 4522   0.402   4.475   1.598
 1401SOL    HW1 4523   0.470   4.530   1.551
 1401SOL    HW2 4524   0.442   4.387   1.625
 1402SOL     OW 4525   1.587   4.503   1.670
 1402SOL    HW1 4526   1.495   4.541   1.665
 1402SOL    HW2 4527   1.647   4.550   1.605
 1403SOL     OW 4528   1.013   3.829   1.770
 1403SOL    HW1 4529   1.019   3.914   1.718
 1403SOL    HW2 4530   1.045   3.753   1.713
 1404SOL     OW 4531   0.504   3.774   1.740
 1404SOL    HW1 4532   0.462   3.717   1.670
 1404SOL    HW2 4533   0.438   3.843   1.772
 1405SOL     OW 4534   0.573   4.594   1.029
 1405SOL    HW1 4535   0.617   4.683   1.020
 1405SOL    HW2 4536   0.510   4.594   1.106
 1406SOL     OW 4537   1.360   4.586   1.045
 1406SOL    HW1 4538   1.285   4.586   0.979
 1406SOL    HW2 4539   1.397   4.494   1.054
 1407SOL     OW 4540   1.209   4.249   0.275
 1407SOL    HW1 4541   1.222   4.165   0.329
 1407SOL    HW2 4542   1.180   4.323   0.335
 1408SOL     OW 4543   0.307   3.937   1.231
 1408SOL    HW1 4544   0.284   3.974   1.321
 1408SOL    HW2 4545   0.277   3.842   1.225
 1409SOL     OW 4546   0.037   5.034   1.282
 1409SOL    HW1 4547   0.090   4.985   1.350
 1409SOL    HW2 4548   0.059   5.132   1.287
 1410SOL     OW 4549   0.732   4.358   1.064
 1410SOL    HW1 4550   0.791   4.332   0.988
 1410SOL    HW2 4551   0.704   4.454   1.053
 1411SOL     OW 4552   1.728   4.659   1.854
 1411SOL    HW1 4553   1.682   4.652   1.765
 1411SOL    HW2 4554   1.666   4.703   1.920
 1412SOL     OW 4555   1.622   4.091   0.374
 1412SOL    HW1 4556   1.624   4.015   0.438
 1412SOL    HW2 4557   1.574   4.168   0.414
 1413SOL     OW 4558   1.023   4.490   0.966
 1413SOL    HW1 4559   1.038   4.511   1.062
 1413SOL    HW2 4560   0.993   4.395   0.957
 1414SOL     OW 4561   0.980   5.297   1.700
 1414SOL    HW1 4562   0.960   5.341   1.612
 1414SOL    HW2 4563   1.019   5.206   1.684
 1415SOL     OW 4564   1.859   5.242   1.605
 1415SOL    HW1 4565   1.873   5.269   1.510
 1415SOL    HW2 4566   1.942   5.264   1.658
 1416SOL     OW 4567   0.350   4.622   1.804
 1416SOL    HW1 4568   0.426   4.666   1.852
 1416SOL    HW2 4569   0.385   4.575   1.722
 1417SOL     OW 4570   1.540   3.998   0.125
 1417SOL    HW1 4571   1.479   3.923   0.148
 1417SOL    HW2 4572   1.562   4.050   0.208
 1418SOL     OW 4573   1.303   4.562   0.042
 1418SOL    HW1 4574   1.337   4.469   0.057
 1418SOL    HW2 4575   1.321   4.589  -0.053
 1419SOL     OW 4576   1.068   5.057   0.849
 1419SOL    HW1 4577   1.075   4.973   0.794
 1419SOL    HW2 4578   1.130   5.126   0.813
 1420SOL     OW 4579   0.319   4.534   0.949
 1420SOL    HW1 4580   0.412   4.570   0.954
 1420SOL    HW2 4581   0.313   4.449   1.001
 1421SOL     OW 4582   0.339   4.233   1.006
 1421SOL    HW1 4583   0.287   4.150   0.989
 1421SOL    HW2 4584   0.416   4.238   0.942
 1422SOL     OW 4585   1.138   4.104   1.678
 1422SOL    HW1 4586   1.093   4.167   1.742
 1422SOL    HW2 4587   1.231   4.135   1.661
 1423SOL     OW 4588   1.160   3.931   1.477
 1423SOL    HW1 4589   1.160   3.995   1.554
 1423SOL    HW2 4590   1.188   3.979   1.394
 1424SOL     OW 4591   0.008   5.050   0.200
 1424SOL    HW1 4592  -0.085   5.071   0.169
 1424SOL    HW2 4593   0.018   4.951   0.213
 1425SOL     OW 4594   0.088   5.525   0.927
 1425SOL    HW1 4595   0.046   5.439   0.900
 1425SOL    HW2 4596   0.182   5.528   0.893
 1426SOL     OW 4597   0.504   5.292   0.910
 1426SOL    HW1 4598   0.570   5.366   0.919
 1426SOL    HW2 4599   0.548   5.213   0.868
 1427SOL     OW 4600   1.002   4.520   1.238
 1427SOL    HW1 4601   1.043   4.488   1.324
 1427SOL    HW2 4602   0.906   4.493   1.235
 1428SOL     OW 4603   0.040   4.268   1.114
 1428SOL    HW1 4604   0.125   4.235   1.073
 1428SOL    HW2 4605   0.053   4.283   1.212
 1429SOL     OW 4606   0.189   4.244   1.722
 1429SOL    HW1 4607   0.248   4.204   1.652
 1429SOL    HW2 4608   0.131   4.315   1.681
 1430SOL     OW 4609   1.369   4.674   1.660
 1430SOL    HW1 4610   1.408   4.763   1.680
 1430SOL    HW2 4611   1.379   4.654   1.563
 1431SOL     OW 4612   0.815   4.296   0.325
 1431SOL    HW1 4613   0.822   4.207   0.279
 1431SOL    HW2 4614   0.721   4.330   0.317
 1432SOL     OW 4615   1.657   4.328   1.206
 1432SOL    HW1 4616   1.619   4.259   1.268
 1432SOL    HW2 4617   1.739   4.292   1.162
 1433SOL     OW 4618   0.252   5.288   1.744
 1433SOL    HW1 4619   0.222   5.345   1.820
 1433SOL    HW2 4620   0.245   5.191   1.770
 1434SOL     OW 4621   0.671   4.188   1.269
 1434SOL    HW1 4622   0.637   4.099   1.239
 1434SOL    HW2 4623   0.697   4.242   1.189
 1435SOL     OW 4624   0.930   5.402   1.465
 1435SOL    HW1 4625   0.906   5.384   1.370
 1435SOL    HW2 4626   0.960   5.496   1.475
 1436SOL     OW 4627   0.473   4.224   0.191
 1436SOL    HW1 4628   0.534   4.304   0.195
 1436SOL    HW2 4629   0.378   4.255   0.198
 1437SOL     OW 4630   0.159   4.861   1.466
 1437SOL    HW1 4631   0.181   4.800   1.542
 1437SOL    HW2 4632   0.169   4.812   1.380
 1438SOL     OW 4633   1.347   4.783   1.234
 1438SOL    HW1 4634   1.371   4.720   1.160
 1438SOL    HW2 4635   1.257   4.823   1.216
 1439SOL     OW 4636   1.302   4.579   0.309
 1439SOL    HW1 4637   1.216   4.548   0.351
 1439SOL    HW2 4638   1.298   4.565   0.210
 1440SOL     OW 4639   1.759   5.471   1.154
 1440SOL    HW1 4640   1.820   5.501   1.081
 1440SOL    HW2 4641   1.721   5.382   1.132
 1441SOL     OW 4642   1.252   5.455   1.128
 1441SOL    HW1 4643   1.336   5.460   1.074
 1441SOL    HW2 4644   1.229   5.359   1.146
 1442SOL     OW 4645   0.083   4.982   1.022
 1442SOL    HW1 4646   0.078   4.981   1.122
 1442SOL    HW2 4647   0.000   4.941   0.984
 1443SOL     OW 4648   0.688   5.386   1.716
 1443SOL    HW1 4649   0.632   5.467   1.725
 1443SOL    HW2 4650   0.740   5.390   1.630
 1444SOL     OW 4651   0.903   3.810   0.133
 1444SOL    HW1 4652   0.954   3.811   0.047
 1444SOL    HW2 4653   0.959   3.768   0.204
 1445SOL     OW 4654   1.726   3.859   0.523
 1445SOL    HW1 4655   1.799   3.842   0.456
 1445SOL    HW2 4656   1.695   3.772   0.561
 1446SOL     OW 4657   1.388   5.297   0.477
 1446SOL    HW1 4658   1.455   5.309   0.403
 1446SOL    HW2 4659   1.348   5.386   0.500
 1447SOL     OW 4660   0.130   5.518   1.851
 1447SOL    HW1 4661   0.089   5.444   1.904
 1447SOL    HW2 4662   0.194   5.569   1.909
 1448SOL     OW 4663   1.280   4.651   0.672
 1448SOL    HW1 4664   1.340   4.570   0.674
 1448SOL    HW2 4665   1.320   4.720   0.612
 1449SOL     OW 4666   0.830   4.997   1.422
 1449SOL    HW1 4667   0.825   5.030   1.517
 1449SOL    HW2 4668   0.744   5.016   1.376
 1450SOL     OW 4669   0.672   5.340   0.154
 1450SOL    HW1 4670   0.681   5.350   0.055
 1450SOL    HW2 4671   0.632   5.251   0.175
 1451SOL     OW 4672   1.650   5.444   1.394
 1451SOL    HW1 4673   1.703   5.454   1.310
 1451SOL    HW2 4674   1.623   5.534   1.428
 1452SOL     OW 4675   1.841   3.899   0.963
 1452SOL    HW1 4676   1.880   3.814   0.927
 1452SOL    HW2 4677   1.743   3.901   0.944
 1453SOL     OW 4678   0.263   4.050   0.720
 1453SOL    HW1 4679   0.184   4.101   0.686
 1453SOL    HW2 4680   0.254   4.035   0.818
 1454SOL     OW 4681   1.194   5.336   0.031
 1454SOL    HW1 4682   1.200   5.243   0.068
 1454SOL    HW2 4683   1.135   5.336  -0.049
 1455SOL     OW 4684   0.822   4.726   1.372
 1455SOL    HW1 4685   0.862   4.725   1.280
 1455SOL    HW2 4686   0.832   4.818   1.412
 1456SOL     OW 4687   0.916   4.634   0.291
 1456SOL    HW1 4688   0.979   4.672   0.223
 1456SOL    HW2 4689   0.956   4.551   0.330
 1457SOL     OW 4690   1.504   5.331   0.044
 1457SOL    HW1 4691   1.412   5.368   0.051
 1457SOL    HW2 4692   1.542   5.351  -0.046
 1458SOL     OW 4693   0.372   5.012   1.490
 1458SOL    HW1 4694   0.359   5.105   1.456
 1458SOL    HW2 4695   0.288   4.960   1.477
 1459SOL     OW 4696   1.614   5.016   1.289
 1459SOL    HW1 4697   1.674   5.019   1.369
 1459SOL    HW2 4698   1.539   5.080   1.302
 1460SOL     OW 4699   1.039   4.822   0.696
 1460SOL    HW1 4700   0.969   4.775   0.750
 1460SOL    HW2 4701   1.098   4.754   0.653
 1461SOL     OW 4702   1.014   3.960   0.971
 1461SOL    HW1 4703   1.006   3.924   0.878
 1461SOL    HW2 4704   1.012   3.884   1.036
 1462SOL     OW 4705   0.590   5.211   0.491
 1462SOL    HW1 4706   0.632   5.153   0.421
 1462SOL    HW2 4707   0.546   5.290   0.447
 1463SOL     OW 4708   0.255   5.072   0.290
 1463SOL    HW1 4709   0.159   5.073   0.263
 1463SOL    HW2 4710   0.267   5.125   0.374
 1464SOL     OW 4711   0.105   4.737   1.726
 1464SOL    HW1 4712   0.028   4.704   1.780
 1464SOL    HW2 4713   0.190   4.707   1.768
 1465SOL     OW 4714   0.672   3.927   1.489
 1465SOL    HW1 4715   0.762   3.911   1.449
 1465SOL    HW2 4716   0.680   3.932   1.588
 1466SOL     OW 4717   0.075   4.069   0.033
 1466SOL    HW1 4718  -0.017   4.041   0.004
 1466SOL    HW2 4719   0.106   4.146  -0.023
 1467SOL     OW 4720   1.440   4.580   1.398
 1467SOL    HW1 4721   1.383   4.632   1.335
 1467SOL    HW2 4722   1.536   4.592   1.374
 1468SOL     OW 4723   0.072   3.890   0.318
 1468SOL    HW1 4724   0.055   3.973   0.264
 1468SOL    HW2 4725   0.162   3.853   0.296
 1469SOL     OW 4726   1.183   5.059   0.119
 1469SOL    HW1 4727   1.084   5.048   0.121
 1469SOL    HW2 4728   1.217   5.074   0.212
 1470SOL     OW 4729   0.613   4.566   1.431
 1470SOL    HW1 4730   0.669   4.647   1.414
 1470SOL    HW2 4731   0.672   4.486   1.434
 1471SOL     OW 4732   1.493   5.491   0.959
 1471SOL    HW1 4733   1.526   5.555   0.890
 1471SOL    HW2 4734   1.559   5.485   1.034
 1472SOL     OW 4735   0.716   4.289   1.708
 1472SOL    HW1 4736   0.735   4.354   1.782
 1472SOL    HW2 4737   0.776   4.209   1.717
 1473SOL     OW 4738   1.450   4.944   1.633
 1473SOL    HW1 4739   1.441   4.934   1.732
 1473SOL    HW2 4740   1.546   4.937   1.607
 1474SOL     OW 4741   0.390   5.465   1.560
 1474SOL    HW1 4742   0.299   5.506   1.558
 1474SOL    HW2 4743   0.383   5.371   1.592
 1475SOL     OW 4744   1.674   4.607   1.254
 1475SOL    HW1 4745   1.647   4.518   1.217
 1475SOL    HW2 4746   1.675   4.675   1.181
 1476SOL     OW 4747   1.225   4.049   0.449
 1476SOL    HW1 4748   1.290   3.975   0.438
 1476SOL    HW2 4749   1.245   4.099   0.533
 1477SOL     OW 4750   0.594   4.469   0.652
 1477SOL    HW1 4751   0.644   4.554   0.633
 1477SOL    HW2 4752   0.506   4.471   0.604
 1478SOL     OW 4753   1.777   4.066   1.642
 1478SOL    HW1 4754   1.760   4.097   1.548
 1478SOL    HW2 4755   1.693   4.029   1.680
 1479SOL     OW 4756   1.730   4.658   1.517
 1479SOL    HW1 4757   1.768   4.749   1.532
 1479SOL    HW2 4758   1.722   4.641   1.418
 1480SOL     OW 4759   0.859   5.098   0.016
 1480SOL    HW1 4760   0.813   5.113   0.104
 1480SOL    HW2 4761   0.903   5.183  -0.014
 1481SOL     OW 4762   0.661   5.514   0.953
 1481SOL    HW1 4763   0.615   5.602   0.940
 1481SOL    HW2 4764   0.760   5.526   0.946
 1482SOL     OW 4765   0.859   4.680   0.861
 1482SOL    HW1 4766   0.913   4.611   0.909
 1482SOL    HW2 4767   0.827   4.749   0.927
 1483SOL     OW 4768   1.083   4.708   0.087
 1483SOL    HW1 4769   1.060   4.761   0.005
 1483SOL    HW2 4770   1.164   4.652   0.068
 1484SOL     OW 4771   1.861   5.293   0.851
 1484SOL    HW1 4772   1.790   5.281   0.781
 1484SOL    HW2 4773   1.862   5.214   0.911
 1485SOL     OW 4774   0.221   5.038   1.844
 1485SOL    HW1 4775   0.156   4.965   1.823
 1485SOL    HW2 4776   0.225   5.052   1.942
 1486SOL     OW 4777   0.079   4.964   0.653
 1486SOL    HW1 4778   0.078   4.917   0.741
 1486SOL    HW2 4779   0.161   4.936   0.602
 1487SOL     OW 4780   0.672   5.115   1.624
 1487SOL    HW1 4781   0.594   5.065   1.662
 1487SOL    HW2 4782   0.669   5.210   1.655
 1488SOL     OW 4783   1.824   3.916   1.227
 1488SOL    HW1 4784   1.820   3.826   1.271
 1488SOL    HW2 4785   1.827   3.905   1.128
 1489SOL     OW 4786   0.428   4.148   0.520
 1489SOL    HW1 4787   0.458   4.076   0.458
 1489SOL    HW2 4788   0.389   4.108   0.603
 1490SOL     OW 4789   1.705   5.211   1.104
 1490SOL    HW1 4790   1.612   5.186   1.077
 1490SOL    HW2 4791   1.731   5.161   1.186
 1491SOL     OW 4792   0.317   4.271   1.280
 1491SOL    HW1 4793   0.355   4.212   1.352
 1491SOL    HW2 4794   0.357   4.245   1.192
 1492SOL     OW 4795   0.812   5.310   0.687
 1492SOL    HW1 4796   0.844   5.320   0.593
 1492SOL    HW2 4797   0.733   5.248   0.689
 1493SOL     OW 4798   1.424   3.938   1.112
 1493SOL    HW1 4799   1.476   3.873   1.167
 1493SOL    HW2 4800   1.375   4.001   1.173
 1494SOL     OW 4801   1.001   3.758   1.154
 1494SOL    HW1 4802   0.938   3.686   1.123
 1494SOL    HW2 4803   1.094   3.722   1.154
 1495SOL     OW 4804   0.770   5.054   0.301
 1495SOL    HW1 4805   0.724   4.967   0.318
 1495SOL    HW2 4806   0.861   5.051   0.342
 1496SOL     OW 4807   0.618   5.291   1.284
 1496SOL    HW1 4808   0.613   5.373   1.341
 1496SOL    HW2 4809   0.707   5.288   1.239
 1497SOL     OW 4810   1.352   3.776   0.168
 1497SOL    HW1 4811   1.387   3.735   0.084
 1497SOL    HW2 4812   1.262   3.738   0.188
 1498SOL     OW 4813   1.300   4.177   0.691
 1498SOL    HW1 4814   1.241   4.257   0.695
 1498SOL    HW2 4815   1.315   4.142   0.784
 1499SOL     OW 4816   1.593   3.945   0.882
 1499SOL    HW1 4817   1.509   3.944   0.936
 1499SOL    HW2 4818   1.595   4.028   0.826
 1500SOL     OW 4819   0.039   4.801   0.300
 1500SOL    HW1 4820   0.138   4.790   0.291
 1500SOL    HW2 4821  -0.001   4.715   0.332
 1501SOL     OW 4822   0.875   5.370   0.337
 1501SOL    HW1 4823   0.798   5.335   0.283
 1501SOL    HW2 4824   0.843   5.441   0.399
 1502SOL     OW 4825   0.230   4.352   1.975
 1502SOL    HW1 4826   0.137   4.350   2.012
 1502SOL    HW2 4827   0.231   4.313   1.883
 1503SOL     OW 4828   0.225   3.999   2.858
 1503SOL    HW1 4829   0.260   3.982   2.950
 1503SOL    HW2 4830   0.137   3.954   2.846
 1504SOL     OW 4831   0.019   4.092   2.509
 1504SOL    HW1 4832  -0.063   4.135   2.548
 1504SOL    HW2 4833  -0.009   4.019   2.446
 1505SOL     OW 4834   0.569   4.999   3.027
 1505SOL    HW1 4835   0.476   4.992   2.990
 1505SOL    HW2 4836   0.580   5.088   3.071
 1506SOL     OW 4837   1.555   5.235   2.565
 1506SOL    HW1 4838   1.498   5.219   2.646
 1506SOL    HW2 4839   1.496   5.245   2.485
 1507SOL     OW 4840   1.135   4.427   2.579
 1507SOL    HW1 4841   1.192   4.505   2.554
 1507SOL    HW2 4842   1.075   4.453   2.655
 1508SOL     OW 4843   1.755   4.331   2.093
 1508SOL    HW1 4844   1.743   4.318   1.994
 1508SOL    HW2 4845   1.725   4.250   2.142
 1509SOL     OW 4846   0.768   4.868   2.885
 1509SOL    HW1 4847   0.690   4.885   2.945
 1509SOL    HW2 4848   0.802   4.955   2.849
 1510SOL     OW 4849   0.850   4.522   3.685
 1510SOL    HW1 4850   0.846   4.598   3.750
 1510SOL    HW2 4851   0.872   4.558   3.594
 1511SOL     OW 4852   0.685   4.736   2.527
 1511SOL    HW1 4853   0.754   4.720   2.597
 1511SOL    HW2 4854   0.612   4.793   2.565
 1512SOL     OW 4855   0.686   4.885   3.665
 1512SOL    HW1 4856   0.746   4.964   3.679
 1512SOL    HW2 4857   0.600   4.916   3.624
 1513SOL     OW 4858   0.335   5.159   2.923
 1513SOL    HW1 4859   0.257   5.128   2.870
 1513SOL    HW2 4860   0.393   5.217   2.866
 1514SOL     OW 4861   1.460   5.229   3.201
 1514SOL    HW1 4862   1.484   5.323   3.227
 1514SOL    HW2 4863   1.444   5.175   3.283
 1515SOL     OW 4864   0.438   4.116   3.361
 1515SOL    HW1 4865   0.520   4.060   3.370
 1515SOL    HW2 4866   0.357   4.058   3.365
 1516SOL     OW 4867   1.603   4.171   2.599
 1516SOL    HW1 4868   1.529   4.217   2.549
 1516SOL    HW2 4869   1.654   4.239   2.652
 1517SOL     OW 4870   0.231   5.437   2.345
 1517SOL    HW1 4871   0.265   5.514   2.399
 1517SOL    HW2 4872   0.275   5.437   2.255
 1518SOL     OW 4873   1.127   5.065   3.552
 1518SOL    HW1 4874   1.174   5.065   3.640
 1518SOL    HW2 4875   1.079   4.978   3.541
 1519SOL     OW 4876   0.230   5.158   2.400
 1519SOL    HW1 4877   0.204   5.254   2.400
 1519SOL    HW2 4878   0.159   5.104   2.445
 1520SOL     OW 4879   0.240   4.815   2.748
 1520SOL    HW1 4880   0.254   4.731   2.800
 1520SOL    HW2 4881   0.185   4.879   2.803
 1521SOL     OW 4882   0.620   5.510   3.301
 1521SOL    HW1 4883   0.528   5.493   3.336
 1521SOL    HW2 4884   0.648   5.602   3.327
 1522SOL     OW 4885   0.606   4.688   1.985
 1522SOL    HW1 4886   0.613   4.772   1.931
 1522SOL    HW2 4887   0.652   4.701   2.073
 1523SOL     OW 4888   1.594   3.838   3.342
 1523SOL    HW1 4889   1.576   3.905   3.270
 1523SOL    HW2 4890   1.591   3.884   3.431
 1524SOL     OW 4891   0.122   4.367   2.425
 1524SOL    HW1 4892   0.077   4.279   2.442
 1524SOL    HW2 4893   0.121   4.421   2.509
 1525SOL     OW 4894   1.842   5.491   2.221
 1525SOL    HW1 4895   1.896   5.462   2.301
 1525SOL    HW2 4896   1.872   5.581   2.192
 1526SOL     OW 4897   0.027   5.320   1.979
 1526SOL    HW1 4898   0.008   5.224   2.000
 1526SOL    HW2 4899  -0.006   5.378   2.054
 1527SOL     OW 4900   1.689   4.646   2.474
 1527SOL    HW1 4901   1.784   4.617   2.482
 1527SOL    HW2 4902   1.681   4.711   2.399
 1528SOL     OW 4903   1.641   4.832   2.294
 1528SOL    HW1 4904   1.727   4.834   2.242
 1528SOL    HW2 4905   1.655   4.879   2.382
 1529SOL     OW 4906   0.113   4.461   3.459
 1529SOL    HW1 4907   0.201   4.448   3.504
 1529SOL    HW2 4908   0.100   4.558   3.437
 1530SOL     OW 4909   0.613   5.089   2.588
 1530SOL    HW1 4910   0.564   5.002   2.597
 1530SOL    HW2 4911   0.590   5.132   2.501
 1531SOL     OW 4912   1.293   4.952   3.285
 1531SOL    HW1 4913   1.330   4.879   3.227
 1531SOL    HW2 4914   1.345   4.957   3.370
 1532SOL     OW 4915   0.809   3.728   2.364
 1532SOL    HW1 4916   0.849   3.819   2.355
 1532SOL    HW2 4917   0.709   3.736   2.370
 1533SOL     OW 4918   0.197   4.700   3.126
 1533SOL    HW1 4919   0.286   4.655   3.112
 1533SOL    HW2 4920   0.124   4.635   3.107
 1534SOL     OW 4921   1.525   4.723   2.052
 1534SOL    HW1 4922   1.462   4.647   2.065
 1534SOL    HW2 4923   1.573   4.741   2.138
 1535SOL     OW 4924   1.187   5.516   3.478
 1535SOL    HW1 4925   1.211   5.576   3.402
 1535SOL    HW2 4926   1.194   5.421   3.448
 1536SOL     OW 4927   0.317   3.975   3.663
 1536SOL    HW1 4928   0.388   4.046   3.669
 1536SOL    HW2 4929   0.229   4.014   3.691
 1537SOL     OW 4930   1.466   5.141   2.815
 1537SOL    HW1 4931   1.407   5.147   2.895
 1537SOL    HW2 4932   1.451   5.053   2.769
 1538SOL     OW 4933   1.667   5.438   2.434
 1538SOL    HW1 4934   1.626   5.415   2.346
 1538SOL    HW2 4935   1.649   5.364   2.499
 1539SOL     OW 4936   0.598   4.453   2.132
 1539SOL    HW1 4937   0.622   4.522   2.064
 1539SOL    HW2 4938   0.520   4.486   2.186
 1540SOL     OW 4939   1.281   4.069   2.806
 1540SOL    HW1 4940   1.195   4.019   2.793
 1540SOL    HW2 4941   1.343   4.015   2.862
 1541SOL     OW 4942   1.576   5.386   2.169
 1541SOL    HW1 4943   1.665   5.432   2.172
 1541SOL    HW2 4944   1.555   5.362   2.074
 1542SOL     OW 4945   0.807   4.329   3.327
 1542SOL    HW1 4946   0.760   4.326   3.416
 1542SOL    HW2 4947   0.756   4.274   3.261
 1543SOL     OW 4948   1.394   4.193   3.536
 1543SOL    HW1 4949   1.374   4.236   3.624
 1543SOL    HW2 4950   1.472   4.131   3.545
 1544SOL     OW 4951   0.973   4.614   3.434
 1544SOL    HW1 4952   1.019   4.530   3.405
 1544SOL    HW2 4953   0.917   4.648   3.359
 1545SOL     OW 4954   0.991   4.134   3.104
 1545SOL    HW1 4955   0.914   4.168   3.158
 1545SOL    HW2 4956   0.957   4.083   3.025
 1546SOL     OW 4957   1.041   4.425   2.291
 1546SOL    HW1 4958   1.067   4.421   2.387
 1546SOL    HW2 4959   0.956   4.374   2.277
 1547SOL     OW 4960   0.076   4.535   2.651
 1547SOL    HW1 4961   0.175   4.523   2.660
 1547SOL    HW2 4962   0.052   4.630   2.672
 1548SOL     OW 4963   0.130   5.545   3.433
 1548SOL    HW1 4964   0.120   5.530   3.532
 1548SOL    HW2 4965   0.044   5.581   3.397
 1549SOL     OW 4966   0.865   4.072   2.057
 1549SOL    HW1 4967   0.924   4.135   2.008
 1549SOL    HW2 4968   0.884   3.978   2.028
 1550SOL     OW 4969   1.719   4.309   3.693
 1550SOL    HW1 4970   1.693   4.398   3.657
 1550SOL    HW2 4971   1.717   4.241   3.620
 1551SOL     OW 4972   1.362   4.868   2.407
 1551SOL    HW1 4973   1.445   4.839   2.359
 1551SOL    HW2 4974   1.313   4.935   2.351
 1552SOL     OW 4975   0.550   3.920   2.747
 1552SOL    HW1 4976   0.545   3.915   2.847
 1552SOL    HW2 4977   0.552   4.016   2.718
 1553SOL     OW 4978   1.008   5.180   2.339
 1553SOL    HW1 4979   0.962   5.252   2.287
 1553SOL    HW2 4980   1.004   5.200   2.437
 1554SOL     OW 4981   0.351   5.525   2.715
 1554SOL    HW1 4982   0.401   5.439   2.721
 1554SOL    HW2 4983   0.416   5.602   2.712
 1555SOL     OW 4984   1.795   4.790   2.735
 1555SOL    HW1 4985   1.733   4.775   2.659
 1555SOL    HW2 4986   1.743   4.801   2.820
 1556SOL     OW 4987   1.227   5.274   3.368
 1556SOL    HW1 4988   1.233   5.197   3.432
 1556SOL    HW2 4989   1.175   5.248   3.288
 1557SOL     OW 4990   0.321   4.667   2.104
 1557SOL    HW1 4991   0.403   4.706   2.062
 1557SOL    HW2 4992   0.294   4.585   2.055
 1558SOL     OW 4993   1.458   4.459   2.590
 1558SOL    HW1 4994   1.453   4.394   2.665
 1558SOL    HW2 4995   1.538   4.518   2.603
 1559SOL     OW 4996   0.461   4.990   3.589
 1559SOL    HW1 4997   0.411   4.991   3.503
 1559SOL    HW2 4998   0.398   4.972   3.665
 1560SOL     OW 4999   1.111   5.500   2.099
 1560SOL    HW1 5000   1.051   5.438   2.149
 1560SOL    HW2 5001   1.142   5.456   2.014
 1561SOL     OW 5002   0.202   4.009   3.360
 1561SOL    HW1 5003   0.122   4.069   3.347
 1561SOL    HW2 5004   0.192   3.960   3.446
 1562SOL     OW 5005   1.632   5.101   1.943
 1562SOL    HW1 5006   1.600   5.195   1.933
 1562SOL    HW2 5007   1.556   5.038   1.931
 1563SOL     OW 5008   0.464   5.467   2.185
 1563SOL    HW1 5009   0.497   5.506   2.271
 1563SOL    HW2 5010   0.540   5.460   2.120
 1564SOL     OW 5011   1.400   3.831   2.288
 1564SOL    HW1 5012   1.376   3.794   2.198
 1564SOL    HW2 5013   1.499   3.847   2.292
 1565SOL     OW 5014   0.249   5.509   3.103
 1565SOL    HW1 5015   0.306   5.444   3.153
 1565SOL    HW2 5016   0.233   5.476   3.010
 1566SOL     OW 5017   0.940   5.422   2.766
 1566SOL    HW1 5018   1.020   5.365   2.787
 1566SOL    HW2 5019   0.891   5.382   2.689
 1567SOL     OW 5020   0.382   4.424   2.342
 1567SOL    HW1 5021   0.427   4.334   2.339
 1567SOL    HW2 5022   0.288   4.413   2.375
 1568SOL     OW 5023   1.547   3.946   3.591
 1568SOL    HW1 5024   1.542   3.983   3.683
 1568SOL    HW2 5025   1.475   3.877   3.579
 1569SOL     OW 5026   0.614   3.846   1.979
 1569SOL    HW1 5027   0.712   3.824   1.986
 1569SOL    HW2 5028   0.583   3.829   1.886
 1570SOL     OW 5029   0.781   3.988   3.611
 1570SOL    HW1 5030   0.848   3.927   3.654
 1570SOL    HW2 5031   0.708   4.007   3.676
 1571SOL     OW 5032   0.888   5.238   3.057
 1571SOL    HW1 5033   0.865   5.213   2.963
 1571SOL    HW2 5034   0.949   5.169   3.096
 1572SOL     OW 5035   1.351   4.314   3.295
 1572SOL    HW1 5036   1.379   4.271   3.380
 1572SOL    HW2 5037   1.376   4.410   3.296
 1573SOL     OW 5038   0.803   5.126   2.786
 1573SOL    HW1 5039   0.893   5.140   2.744
 1573SOL    HW2 5040   0.732   5.128   2.715
 1574SOL     OW 5041   0.922   4.227   2.761
 1574SOL    HW1 5042   0.897   4.218   2.665
 1574SOL    HW2 5043   0.970   4.145   2.792
 1575SOL     OW 5044   0.539   3.788   2.374
 1575SOL    HW1 5045   0.458   3.789   2.432
 1575SOL    HW2 5046   0.542   3.871   2.319
 1576SOL     OW 5047   1.434   4.912   1.903
 1576SOL    HW1 5048   1.466   4.836   1.960
 1576SOL    HW2 5049   1.342   4.939   1.933
 1577SOL     OW 5050   0.297   3.759   2.033
 1577SOL    HW1 5051   0.346   3.843   2.012
 1577SOL    HW2 5052   0.359   3.694   2.078
 1578SOL     OW 5053   0.935   3.960   2.342
 1578SOL    HW1 5054   0.887   4.001   2.264
 1578SOL    HW2 5055   1.034   3.958   2.323
 1579SOL     OW 5056   1.076   4.407   3.326
 1579SOL    HW1 5057   0.996   4.346   3.329
 1579SOL    HW2 5058   1.157   4.354   3.302
 1580SOL     OW 5059   1.227   5.294   2.655
 1580SOL    HW1 5060   1.248   5.368   2.590
 1580SOL    HW2 5061   1.295   5.294   2.728
 1581SOL     OW 5062   0.459   4.876   2.603
 1581SOL    HW1 5063   0.388   4.849   2.668
 1581SOL    HW2 5064   0.433   4.848   2.510
 1582SOL     OW 5065   1.271   5.521   2.453
 1582SOL    HW1 5066   1.315   5.585   2.389
 1582SOL    HW2 5067   1.221   5.573   2.523
 1583SOL     OW 5068   1.032   4.273   1.878
 1583SOL    HW1 5069   0.991   4.355   1.839
 1583SOL    HW2 5070   1.096   4.299   1.951
 1584SOL     OW 5071   0.078   4.280   3.248
 1584SOL    HW1 5072   0.170   4.279   3.207
 1584SOL    HW2 5073   0.072   4.354   3.315
 1585SOL     OW 5074   0.561   3.946   3.009
 1585SOL    HW1 5075   0.599   3.862   3.046
 1585SOL    HW2 5076   0.473   3.965   3.053
 1586SOL     OW 5077   0.866   4.178   2.504
 1586SOL    HW1 5078   0.834   4.250   2.442
 1586SOL    HW2 5079   0.890   4.097   2.451
 1587SOL     OW 5080   1.017   3.763   2.615
 1587SOL    HW1 5081   0.945   3.768   2.546
 1587SOL    HW2 5082   0.993   3.694   2.684
 1588SOL     OW 5083   1.429   4.897   2.729
 1588SOL    HW1 5084   1.374   4.813   2.722
 1588SOL    HW2 5085   1.455   4.926   2.637
 1589SOL     OW 5086   1.466   4.314   2.854
 1589SOL    HW1 5087   1.436   4.219   2.861
 1589SOL    HW2 5088   1.539   4.330   2.920
 1590SOL     OW 5089   1.857   4.557   2.239
 1590SOL    HW1 5090   1.899   4.493   2.303
 1590SOL    HW2 5091   1.819   4.506   2.161
 1591SOL     OW 5092   0.488   5.109   2.036
 1591SOL    HW1 5093   0.401   5.094   2.083
 1591SOL    HW2 5094   0.471   5.135   1.941
 1592SOL     OW 5095   1.664   5.004   2.519
 1592SOL    HW1 5096   1.763   5.012   2.533
 1592SOL    HW2 5097   1.619   5.088   2.550
 1593SOL     OW 5098   1.390   4.299   1.940
 1593SOL    HW1 5099   1.336   4.278   2.021
 1593SOL    HW2 5100   1.481   4.258   1.949
 1594SOL     OW 5101   0.527   3.980   2.190
 1594SOL    HW1 5102   0.554   3.921   2.115
 1594SOL    HW2 5103   0.527   4.075   2.159
 1595SOL     OW 5104   1.754   4.947   3.450
 1595SOL    HW1 5105   1.845   4.908   3.437
 1595SOL    HW2 5106   1.762   5.043   3.474
 1596SOL     OW 5107   1.064   5.071   3.202
 1596SOL    HW1 5108   0.984   5.048   3.257
 1596SOL    HW2 5109   1.147   5.045   3.251
 1597SOL     OW 5110   1.592   5.353   3.487
 1597SOL    HW1 5111   1.619   5.387   3.397
 1597SOL    HW2 5112   1.671   5.315   3.533
 1598SOL     OW 5113   1.111   4.919   2.962
 1598SOL    HW1 5114   1.071   4.963   3.043
 1598SOL    HW2 5115   1.070   4.956   2.879
 1599SOL     OW 5116   1.638   4.823   2.941
 1599SOL    HW1 5117   1.643   4.904   3.000
 1599SOL    HW2 5118   1.552   4.825   2.890
 1600SOL     OW 5119   0.915   3.813   3.264
 1600SOL    HW1 5120   0.940   3.793   3.169
 1600SOL    HW2 5121   0.987   3.869   3.306
 1601SOL     OW 5122   0.980   4.840   3.581
 1601SOL    HW1 5123   0.881   4.846   3.591
 1601SOL    HW2 5124   1.003   4.760   3.525
 1602SOL     OW 5125   0.705   4.774   2.230
 1602SOL    HW1 5126   0.691   4.781   2.329
 1602SOL    HW2 5127   0.789   4.723   2.212
 1603SOL     OW 5128   0.410   4.537   3.113
 1603SOL    HW1 5129   0.496   4.549   3.163
 1603SOL    HW2 5130   0.368   4.450   3.140
 1604SOL     OW 5131   1.274   4.110   3.124
 1604SOL    HW1 5132   1.295   4.184   3.188
 1604SOL    HW2 5133   1.185   4.127   3.081
 1605SOL     OW 5134   0.064   5.288   3.193
 1605SOL    HW1 5135   0.018   5.370   3.159
 1605SOL    HW2 5136   0.162   5.307   3.202
 1606SOL     OW 5137   0.367   4.824   2.363
 1606SOL    HW1 5138   0.360   4.907   2.307
 1606SOL    HW2 5139   0.371   4.744   2.303
 1607SOL     OW 5140   0.566   4.261   2.727
 1607SOL    HW1 5141   0.578   4.327   2.653
 1607SOL    HW2 5142   0.612   4.295   2.810
 1608SOL     OW 5143   1.252   5.072   2.250
 1608SOL    HW1 5144   1.302   5.149   2.290
 1608SOL    HW2 5145   1.157   5.074   2.282
 1609SOL     OW 5146   1.272   5.169   3.004
 1609SOL    HW1 5147   1.319   5.182   3.091
 1609SOL    HW2 5148   1.206   5.095   3.013
 1610SOL     OW 5149   1.582   4.363   2.334
 1610SOL    HW1 5150   1.551   4.424   2.407
 1610SOL    HW2 5151   1.632   4.415   2.265
 1611SOL     OW 5152   0.402   4.475   3.460
 1611SOL    HW1 5153   0.470   4.530   3.413
 1611SOL    HW2 5154   0.442   4.387   3.487
 1612SOL     OW 5155   1.587   4.503   3.532
 1612SOL    HW1 5156   1.495   4.541   3.527
 1612SOL    HW2 5157   1.647   4.550   3.467
 1613SOL     OW 5158   1.013   3.829   3.632
 1613SOL    HW1 5159   1.019   3.914   3.580
 1613SOL    HW2 5160   1.045   3.753   3.575
 1614SOL     OW 5161   0.504   3.774   3.602
 1614SOL    HW1 5162   0.462   3.717   3.532
 1614SOL    HW2 5163   0.438   3.843   3.634
 1615SOL     OW 5164   0.573   4.594   2.891
 1615SOL    HW1 5165   0.617   4.683   2.882
 1615SOL    HW2 5166   0.510   4.594   2.968
 1616SOL     OW 5167   1.360   4.586   2.907
 1616SOL    HW1 5168   1.285   4.586   2.841
 1616SOL    HW2 5169   1.397   4.494   2.916
 1617SOL     OW 5170   1.209   4.249   2.137
 1617SOL    HW1 5171   1.222   4.165   2.191
 1617SOL    HW2 5172   1.180   4.323   2.197
 1618SOL     OW 5173   0.307   3.937   3.093
 1618SOL    HW1 5174   0.284   3.974   3.183
 1618SOL    HW2 5175   0.277   3.842   3.087
 1619SOL     OW 5176   0.037   5.034   3.144
 1619SOL    HW1 5177   0.090   4.985   3.212
 1619SOL    HW2 5178   0.059   5.132   3.149
 1620SOL     OW 5179   0.732   4.358   2.926
 1620SOL    HW1 5180   0.791   4.332   2.850
 1620SOL    HW2 5181   0.704   4.454   2.915
 1621SOL     OW 5182   1.728   4.659   3.716
 1621SOL    HW1 5183   1.682   4.652   3.627
 1621SOL    HW2 5184   1.666   4.703   3.782
 1622SOL     OW 5185   0.307   3.787   2.480
 1622SOL    HW1 5186   0.296   3.881   2.513
 1622SOL    HW2 5187   0.302   3.724   2.557
 1623SOL     OW 5188   1.023   4.490   2.828
 1623SOL    HW1 5189   1.038   4.511   2.924
 1623SOL    HW2 5190   0.993   4.395   2.819
 1624SOL     OW 5191   0.980   5.297   3.562
 1624SOL    HW1 5192   0.960   5.341   3.474
 1624SOL    HW2 5193   1.019   5.206   3.546
 1625SOL     OW 5194   1.859   5.242   3.467
 1625SOL    HW1 5195   1.873   5.269   3.372
 1625SOL    HW2 5196   1.942   5.264   3.520
 1626SOL     OW 5197   0.350   4.622   3.666
 1626SOL    HW1 5198   0.426   4.666   3.714
 1626SOL    HW2 5199   0.385   4.575   3.584
 1627SOL     OW 5200   1.540   3.998   1.987
 1627SOL    HW1 5201   1.479   3.923   2.010
 1627SOL    HW2 5202   1.562   4.050   2.070
 1628SOL     OW 5203   1.303   4.562   1.904
 1628SOL    HW1 5204   1.337   4.469   1.919
 1628SOL    HW2 5205   1.321   4.589   1.809
 1629SOL     OW 5206   1.068   5.057   2.711
 1629SOL    HW1 5207   1.075   4.973   2.656
 1629SOL    HW2 5208   1.130   5.126   2.675
 1630SOL     OW 5209   0.319   4.534   2.811
 1630SOL    HW1 5210   0.412   4.570   2.816
 1630SOL    HW2 5211   0.313   4.449   2.863
 1631SOL     OW 5212   0.339   4.233   2.868
 1631SOL    HW1 5213   0.287   4.150   2.851
 1631SOL    HW2 5214   0.416   4.238   2.804
 1632SOL     OW 5215   1.138   4.104   3.540
 1632SOL    HW1 5216   1.093   4.167   3.604
 1632SOL    HW2 5217   1.231   4.135   3.523
 1633SOL     OW 5218   1.160   3.931   3.339
 1633SOL    HW1 5219   1.160   3.995   3.416
 1633SOL    HW2 5220   1.188   3.979   3.256
 1634SOL     OW 5221   0.008   5.050   2.062
 1634SOL    HW1 5222  -0.085   5.071   2.031
 1634SOL    HW2 5223   0.018   4.951   2.075
 1635SOL     OW 5224   0.088   5.525   2.789
 1635SOL    HW1 5225   0.046   5.439   2.762
 1635SOL    HW2 5226   0.182   5.528   2.755
 1636SOL     OW 5227   0.504   5.292   2.772
 1636SOL    HW1 5228   0.570   5.366   2.781
 1636SOL    HW2 5229   0.548   5.213   2.730
 1637SOL     OW 5230   1.002   4.520   3.100
 1637SOL    HW1 5231   1.043   4.488   3.186
 1637SOL    HW2 5232   0.906   4.493   3.097
 1638SOL     OW 5233   0.040   4.268   2.976
 1638SOL    HW1 5234   0.125   4.235   2.935
 1638SOL    HW2 5235   0.053   4.283   3.074
 1639SOL     OW 5236   0.189   4.244   3.584
 1639SOL    HW1 5237   0.248   4.204   3.514
 1639SOL    HW2 5238   0.131   4.315   3.543
 1640SOL     OW 5239   1.369   4.674   3.522
 1640SOL    HW1 5240   1.408   4.763   3.542
 1640SOL    HW2 5241   1.379   4.654   3.425
 1641SOL     OW 5242   0.815   4.296   2.187
 1641SOL    HW1 5243   0.822   4.207   2.141
 1641SOL    HW2 5244   0.721   4.330   2.179
 1642SOL     OW 5245   1.657   4.328   3.068
 1642SOL    HW1 5246   1.619   4.259   3.130
 1642SOL    HW2 5247   1.739   4.292   3.024
 1643SOL     OW 5248   0.252   5.288   3.606
 1643SOL    HW1 5249   0.222   5.345   3.682
 1643SOL    HW2 5250   0.245   5.191   3.632
 1644SOL     OW 5251   0.671   4.188   3.131
 1644SOL    HW1 5252   0.637   4.099   3.101
 1644SOL    HW2 5253   0.697   4.242   3.051
 1645SOL     OW 5254   0.930   5.402   3.327
 1645SOL    HW1 5255   0.906   5.384   3.232
 1645SOL    HW2 5256   0.960   5.496   3.337
 1646SOL     OW 5257   0.473   4.224   2.053
 1646SOL    HW1 5258   0.534   4.304   2.057
 1646SOL    HW2 5259   0.378   4.255   2.060
 1647SOL     OW 5260   0.159   4.861   3.328
 1647SOL    HW1 5261   0.181   4.800   3.404
 1647SOL    HW2 5262   0.169   4.812   3.242
 1648SOL     OW 5263   1.347   4.783   3.096
 1648SOL    HW1 5264   1.371   4.720   3.022
 1648SOL    HW2 5265   1.257   4.823   3.078
 1649SOL     OW 5266   1.302   4.579   2.171
 1649SOL    HW1 5267   1.216   4.548   2.213
 1649SOL    HW2 5268   1.298   4.565   2.072
 1650SOL     OW 5269   1.759   5.471   3.016
 1650SOL    HW1 5270   1.820   5.501   2.943
 1650SOL    HW2 5271   1.721   5.382   2.994
 1651SOL     OW 5272   1.252   5.455   2.990
 1651SOL    HW1 5273   1.336   5.460   2.936
 1651SOL    HW2 5274   1.229   5.359   3.008
 1652SOL     OW 5275   0.083   4.982   2.884
 1652SOL    HW1 5276   0.078   4.981   2.984
 1652SOL    HW2 5277   0.000   4.941   2.846
 1653SOL     OW 5278   0.688   5.386   3.578
 1653SOL    HW1 5279   0.632   5.467   3.587
 1653SOL    HW2 5280   0.740   5.390   3.492
 1654SOL     OW 5281   1.726   3.859   2.385
 1654SOL    HW1 5282   1.799   3.842   2.318
 1654SOL    HW2 5283   1.695   3.772   2.423
 1655SOL     OW 5284   1.388   5.297   2.339
 1655SOL    HW1 5285   1.455   5.309   2.265
 1655SOL    HW2 5286   1.348   5.386   2.362
 1656SOL     OW 5287   0.130   5.518   3.713
 1656SOL    HW1 5288   0.089   5.444   3.766
 1656SOL    HW2 5289   0.194   5.569   3.771
 1657SOL     OW 5290   1.280   4.651   2.534
 1657SOL    HW1 5291   1.340   4.570   2.536
 1657SOL    HW2 5292   1.320   4.720   2.474
 1658SOL     OW 5293   0.830   4.997   3.284
 1658SOL    HW1 5294   0.825   5.030   3.379
 1658SOL    HW2 5295   0.744   5.016   3.238
 1659SOL     OW 5296   0.672   5.340   2.016
 1659SOL    HW1 5297   0.681   5.350   1.917
 1659SOL    HW2 5298   0.632   5.251   2.037
 1660SOL     OW 5299   1.650   5.444   3.256
 1660SOL    HW1 5300   1.703   5.454   3.172
 1660SOL    HW2 5301   1.623   5.534   3.290
 1661SOL     OW 5302   1.841   3.899   2.825
 1661SOL    HW1 5303   1.880   3.814   2.789
 1661SOL    HW2 5304   1.743   3.901   2.806
 1662SOL     OW 5305   0.263   4.050   2.582
 1662SOL    HW1 5306   0.184   4.101   2.548
 1662SOL    HW2 5307   0.254   4.035   2.680
 1663SOL     OW 5308   1.194   5.336   1.893
 1663SOL    HW1 5309   1.200   5.243   1.930
 1663SOL    HW2 5310   1.135   5.336   1.813
 1664SOL     OW 5311   0.822   4.726   3.234
 1664SOL    HW1 5312   0.862   4.725   3.142
 1664SOL    HW2 5313   0.832   4.818   3.274
 1665SOL     OW 5314   0.916   4.634   2.153
 1665SOL    HW1 5315   0.979   4.672   2.085
 1665SOL    HW2 5316   0.956   4.551   2.192
 1666SOL     OW 5317   1.504   5.331   1.906
 1666SOL    HW1 5318   1.412   5.368   1.913
 1666SOL    HW2 5319   1.542   5.351   1.816
 1667SOL     OW 5320   0.372   5.012   3.352
 1667SOL    HW1 5321   0.359   5.105   3.318
 1667SOL    HW2 5322   0.288   4.960   3.339
 1668SOL     OW 5323   1.614   5.016   3.151
 1668SOL    HW1 5324   1.674   5.019   3.231
 1668SOL    HW2 5325   1.539   5.080   3.164
 1669SOL     OW 5326   1.039   4.822   2.558
 1669SOL    HW1 5327   0.969   4.775   2.612
 1669SOL    HW2 5328   1.098   4.754   2.515
 1670SOL     OW 5329   1.014   3.960   2.833
 1670SOL    HW1 5330   1.006   3.924   2.740
 1670SOL    HW2 5331   1.012   3.884   2.898
 1671SOL     OW 5332   0.590   5.211   2.353
 1671SOL    HW1 5333   0.632   5.153   2.283
 1671SOL    HW2 5334   0.546   5.290   2.309
 1672SOL     OW 5335   1.709   4.109   3.243
 1672SOL    HW1 5336   1.782   4.178   3.247
 1672SOL    HW2 5337   1.737   4.034   3.184
 1673SOL     OW 5338   0.255   5.072   2.152
 1673SOL    HW1 5339   0.159   5.073   2.125
 1673SOL    HW2 5340   0.267   5.125   2.236
 1674SOL     OW 5341   0.105   4.737   3.588
 1674SOL    HW1 5342   0.028   4.704   3.642
 1674SOL    HW2 5343   0.190   4.707   3.630
 1675SOL     OW 5344   0.672   3.927   3.351
 1675SOL    HW1 5345   0.762   3.911   3.311
 1675SOL    HW2 5346   0.680   3.932   3.450
 1676SOL     OW 5347   0.075   4.069   1.895
 1676SOL    HW1 5348  -0.017   4.041   1.866
 1676SOL    HW2 5349   0.106   4.146   1.839
 1677SOL     OW 5350   1.440   4.580   3.260
 1677SOL    HW1 5351   1.383   4.632   3.197
 1677SOL    HW2 5352   1.536   4.592   3.236
 1678SOL     OW 5353   0.072   3.890   2.180
 1678SOL    HW1 5354   0.055   3.973   2.126
 1678SOL    HW2 5355   0.162   3.853   2.158
 1679SOL     OW 5356   1.183   5.059   1.981
 1679SOL    HW1 5357   1.084   5.048   1.983
 1679SOL    HW2 5358   1.217   5.074   2.074
 1680SOL     OW 5359   0.613   4.566   3.293
 1680SOL    HW1 5360   0.669   4.647   3.276
 1680SOL    HW2 5361   0.672   4.486   3.296
 1681SOL     OW 5362   1.493   5.491   2.821
 1681SOL    HW1 5363   1.526   5.555   2.752
 1681SOL    HW2 5364   1.559   5.485   2.896
 1682SOL     OW 5365   0.716   4.289   3.570
 1682SOL    HW1 5366   0.735   4.354   3.644
 1682SOL    HW2 5367   0.776   4.209   3.579
 1683SOL     OW 5368   1.450   4.944   3.495
 1683SOL    HW1 5369   1.441   4.934   3.594
 1683SOL    HW2 5370   1.546   4.937   3.469
 1684SOL     OW 5371   0.390   5.465   3.422
 1684SOL    HW1 5372   0.299   5.506   3.420
 1684SOL    HW2 5373   0.383   5.371   3.454
 1685SOL     OW 5374   1.674   4.607   3.116
 1685SOL    HW1 5375   1.647   4.518   3.079
 1685SOL    HW2 5376   1.675   4.675   3.043
 1686SOL     OW 5377   1.225   4.049   2.311
 1686SOL    HW1 5378   1.290   3.975   2.300
 1686SOL    HW2 5379   1.245   4.099   2.395
 1687SOL     OW 5380   0.594   4.469   2.514
 1687SOL    HW1 5381   0.644   4.554   2.495
 1687SOL    HW2 5382   0.506   4.471   2.466
 1688SOL     OW 5383   1.777   4.066   3.504
 1688SOL    HW1 5384   1.760   4.097   3.410
 1688SOL    HW2 5385   1.693   4.029   3.542
 1689SOL     OW 5386   1.730   4.658   3.379
 1689SOL    HW1 5387   1.768   4.749   3.394
 1689SOL    HW2 5388   1.722   4.641   3.280
 1690SOL     OW 5389   0.661   5.514   2.815
 1690SOL    HW1 5390   0.615   5.602   2.802
 1690SOL    HW2 5391   0.760   5.526   2.808
 1691SOL     OW 5392   0.859   4.680   2.723
 1691SOL    HW1 5393   0.913   4.611   2.771
 1691SOL    HW2 5394   0.827   4.749   2.789
 1692SOL     OW 5395   1.083   4.708   1.949
 1692SOL    HW1 5396   1.060   4.761   1.867
 1692SOL    HW2 5397   1.164   4.652   1.930
 1693SOL     OW 5398   1.861   5.293   2.713
 1693SOL    HW1 5399   1.790   5.281   2.643
 1693SOL    HW2 5400   1.862   5.214   2.773
 1694SOL     OW 5401   0.221   5.038   3.706
 1694SOL    HW1 5402   0.156   4.965   3.685
 1694SOL    HW2 5403   0.225   5.052   3.804
 1695SOL     OW 5404   0.079   4.964   2.515
 1695SOL    HW1 5405   0.078   4.917   2.603
 1695SOL    HW2 5406   0.161   4.936   2.464
 1696SOL     OW 5407   0.672   5.115   3.486
 1696SOL    HW1 5408   0.594   5.065   3.524
 1696SOL    HW2 5409   0.669   5.210   3.517
 1697SOL     OW 5410   1.824   3.916   3.089
 1697SOL    HW1 5411   1.820   3.826   3.133
 1697SOL    HW2 5412   1.827   3.905   2.990
 1698SOL     OW 5413   0.428   4.148   2.382
 1698SOL    HW1 5414   0.458   4.076   2.320
 1698SOL    HW2 5415   0.389   4.108   2.465
 1699SOL     OW 5416   1.705   5.211   2.966
 1699SOL    HW1 5417   1.612   5.186   2.939
 1699SOL    HW2 5418   1.731   5.161   3.048
 1700SOL     OW 5419   0.812   5.310   2.549
 1700SOL    HW1 5420   0.844   5.320   2.455
 1700SOL    HW2 5421   0.733   5.248   2.551
 1701SOL     OW 5422   1.424   3.938   2.974
 1701SOL    HW1 5423   1.476   3.873   3.029
 1701SOL    HW2 5424   1.375   4.001   3.035
 1702SOL     OW 5425   1.001   3.758   3.016
 1702SOL    HW1 5426   0.938   3.686   2.985
 1702SOL    HW2 5427   1.094   3.722   3.016
 1703SOL     OW 5428   0.770   5.054   2.163
 1703SOL    HW1 5429   0.724   4.967   2.180
 1703SOL    HW2 5430   0.861   5.051   2.204
 1704SOL     OW 5431   0.618   5.291   3.146
 1704SOL    HW1 5432   0.613   5.373   3.203
 1704SOL    HW2 5433   0.707   5.288   3.101
 1705SOL     OW 5434   1.352   3.776   2.030
 1705SOL    HW1 5435   1.387   3.735   1.946
 1705SOL    HW2 5436   1.262   3.738   2.050
 1706SOL     OW 5437   1.300   4.177   2.553
 1706SOL    HW1 5438   1.241   4.257   2.557
 1706SOL    HW2 5439   1.315   4.142   2.646
 1707SOL     OW 5440   1.593   3.945   2.744
 1707SOL    HW1 5441   1.509   3.944   2.798
 1707SOL    HW2 5442   1.595   4.028   2.688
 1708SOL     OW 5443   0.039   4.801   2.162
 1708SOL    HW1 5444   0.138   4.790   2.153
 1708SOL    HW2 5445  -0.001   4.715   2.194
 1709SOL     OW 5446   0.875   5.370   2.199
 1709SOL    HW1 5447   0.798   5.335   2.145
 1709SOL    HW2 5448   0.843   5.441   2.261
 1710SOL     OW 5449   0.230   4.352   3.837
 1710SOL    HW1 5450   0.137   4.350   3.874
 1710SOL    HW2 5451   0.231   4.313   3.745
 1711SOL     OW 5452   0.225   3.999   4.720
 1711SOL    HW1 5453   0.260   3.982   4.812
 1711SOL    HW2 5454   0.137   3.954   4.708
 1712SOL     OW 5455   0.019   4.092   4.371
 1712SOL    HW1 5456  -0.063   4.135   4.410
 1712SOL    HW2 5457  -0.009   4.019   4.308
 1713SOL     OW 5458   0.569   4.999   4.889
 1713SOL    HW1 5459   0.476   4.992   4.852
 1713SOL    HW2 5460   0.580   5.088   4.933
 1714SOL     OW 5461   1.555   5.235   4.427
 1714SOL    HW1 5462   1.498   5.219   4.508
 1714SOL    HW2 5463   1.496   5.245   4.347
 1715SOL     OW 5464   1.135   4.427   4.441
 1715SOL    HW1 5465   1.192   4.505   4.416
 1715SOL    HW2 5466   1.075   4.453   4.517
 1716SOL     OW 5467   1.755   4.331   3.955
 1716SOL    HW1 5468   1.743   4.318   3.856
 1716SOL    HW2 5469   1.725   4.250   4.004
 1717SOL     OW 5470   0.768   4.868   4.747
 1717SOL    HW1 5471   0.690   4.885   4.807
 1717SOL    HW2 5472   0.802   4.955   4.711
 1718SOL     OW 5473   0.850   4.522   5.547
 1718SOL    HW1 5474   0.846   4.598   5.612
 1718SOL    HW2 5475   0.872   4.558   5.456
 1719SOL     OW 5476   0.685   4.736   4.389
 1719SOL    HW1 5477   0.754   4.720   4.459
 1719SOL    HW2 5478   0.612   4.793   4.427
 1720SOL     OW 5479   0.686   4.885   5.527
 1720SOL    HW1 5480   0.746   4.964   5.541
 1720SOL    HW2 5481   0.600   4.916   5.486
 1721SOL     OW 5482   0.335   5.159   4.785
 1721SOL    HW1 5483   0.257   5.128   4.732
 1721SOL    HW2 5484   0.393   5.217   4.728
 1722SOL     OW 5485   1.460   5.229   5.063
 1722SOL    HW1 5486   1.484   5.323   5.089
 1722SOL    HW2 5487   1.444   5.175   5.145
 1723SOL     OW 5488   0.438   4.116   5.223
 1723SOL    HW1 5489   0.520   4.060   5.232
 1723SOL    HW2 5490   0.357   4.058   5.227
 1724SOL     OW 5491   1.603   4.171   4.461
 1724SOL    HW1 5492   1.529   4.217   4.411
 1724SOL    HW2 5493   1.654   4.239   4.514
 1725SOL     OW 5494   0.231   5.437   4.207
 1725SOL    HW1 5495   0.265   5.514   4.261
 1725SOL    HW2 5496   0.275   5.437   4.117
 1726SOL     OW 5497   1.127   5.065   5.414
 1726SOL    HW1 5498   1.174   5.065   5.502
 1726SOL    HW2 5499   1.079   4.978   5.403
 1727SOL     OW 5500   0.230   5.158   4.262
 1727SOL    HW1 5501   0.204   5.254   4.262
 1727SOL    HW2 5502   0.159   5.104   4.307
 1728SOL     OW 5503   0.240   4.815   4.610
 1728SOL    HW1 5504   0.254   4.731   4.662
 1728SOL    HW2 5505   0.185   4.879   4.665
 1729SOL     OW 5506   0.620   5.510   5.163
 1729SOL    HW1 5507   0.528   5.493   5.198
 1729SOL    HW2 5508   0.648   5.602   5.189
 1730SOL     OW 5509   0.606   4.688   3.847
 1730SOL    HW1 5510   0.613   4.772   3.793
 1730SOL    HW2 5511   0.652   4.701   3.935
 1731SOL     OW 5512   1.594   3.838   5.204
 1731SOL    HW1 5513   1.576   3.905   5.132
 1731SOL    HW2 5514   1.591   3.884   5.293
 1732SOL     OW 5515   0.122   4.367   4.287
 1732SOL    HW1 5516   0.077   4.279   4.304
 1732SOL    HW2 5517   0.121   4.421   4.371
 1733SOL     OW 5518   1.842   5.491   4.083
 1733SOL    HW1 5519   1.896   5.462   4.163
 1733SOL    HW2 5520   1.872   5.581   4.054
 1734SOL     OW 5521   0.027   5.320   3.841
 1734SOL    HW1 5522   0.008   5.224   3.862
 1734SOL    HW2 5523  -0.006   5.378   3.916
 1735SOL     OW 5524   1.689   4.646   4.336
 1735SOL    HW1 5525   1.784   4.617   4.344
 1735SOL    HW2 5526   1.681   4.711   4.261
 1736SOL     OW 5527   1.641   4.832   4.156
 1736SOL    HW1 5528   1.727   4.834   4.104
 1736SOL    HW2 5529   1.655   4.879   4.244
 1737SOL     OW 5530   0.113   4.461   5.321
 1737SOL    HW1 5531   0.201   4.448   5.366
 1737SOL    HW2 5532   0.100   4.558   5.299
 1738SOL     OW 5533   0.613   5.089   4.450
 1738SOL    HW1 5534   0.564   5.002   4.459
 1738SOL    HW2 5535   0.590   5.132   4.363
 1739SOL     OW 5536   1.293   4.952   5.147
 1739SOL    HW1 5537   1.330   4.879   5.089
 1739SOL    HW2 5538   1.345   4.957   5.232
 1740SOL     OW 5539   0.809   3.728   4.226
 1740SOL    HW1 5540   0.849   3.819   4.217
 1740SOL    HW2 5541   0.709   3.736   4.232
 1741SOL     OW 5542   1.525   4.723   3.914
 1741SOL    HW1 5543   1.462   4.647   3.927
 1741SOL    HW2 5544   1.573   4.741   4.000
 1742SOL     OW 5545   1.187   5.516   5.340
 1742SOL    HW1 5546   1.211   5.576   5.264
 1742SOL    HW2 5547   1.194   5.421   5.310
 1743SOL     OW 5548   0.317   3.975   5.525
 1743SOL    HW1 5549   0.388   4.046   5.531
 1743SOL    HW2 5550   0.229   4.014   5.553
 1744SOL     OW 5551   1.466   5.141   4.677
 1744SOL    HW1 5552   1.407   5.147   4.757
 1744SOL    HW2 5553   1.451   5.053   4.631
 1745SOL     OW 5554   1.667   5.438   4.296
 1745SOL    HW1 5555   1.626   5.415   4.208
 1745SOL    HW2 5556   1.649   5.364   4.361
 1746SOL     OW 5557   0.598   4.453   3.994
 1746SOL    HW1 5558   0.622   4.522   3.926
 1746SOL    HW2 5559   0.520   4.486   4.048
 1747SOL     OW 5560   1.281   4.069   4.668
 1747SOL    HW1 5561   1.195   4.019   4.655
 1747SOL    HW2 5562   1.343   4.015   4.724
 1748SOL     OW 5563   1.576   5.386   4.031
 1748SOL    HW1 5564   1.665   5.432   4.034
 1748SOL    HW2 5565   1.555   5.362   3.936
 1749SOL     OW 5566   0.807   4.329   5.189
 1749SOL    HW1 5567   0.760   4.326   5.278
 1749SOL    HW2 5568   0.756   4.274   5.123
 1750SOL     OW 5569   1.394   4.193   5.398
 1750SOL    HW1 5570   1.374   4.236   5.486
 1750SOL    HW2 5571   1.472   4.131   5.407
 1751SOL     OW 5572   0.973   4.614   5.296
 1751SOL    HW1 5573   1.019   4.530   5.267
 1751SOL    HW2 5574   0.917   4.648   5.221
 1752SOL     OW 5575   0.991   4.134   4.966
 1752SOL    HW1 5576   0.914   4.168   5.020
 1752SOL    HW2 5577   0.957   4.083   4.887
 1753SOL     OW 5578   1.041   4.425   4.153
 1753SOL    HW1 5579   1.067   4.421   4.249
 1753SOL    HW2 5580   0.956   4.374   4.139
 1754SOL     OW 5581   0.076   4.535   4.513
 1754SOL    HW1 5582   0.175   4.523   4.522
 1754SOL    HW2 5583   0.052   4.630   4.534
 1755SOL     OW 5584   0.130   5.545   5.295
 1755SOL    HW1 5585   0.120   5.530   5.394
 1755SOL    HW2 5586   0.044   5.581   5.259
 1756SOL     OW 5587   0.865   4.072   3.919
 1756SOL    HW1 5588   0.924   4.135   3.870
 1756SOL    HW2 5589   0.884   3.978   3.890
 1757SOL     OW 5590   1.719   4.309   5.555
 1757SOL    HW1 5591   1.693   4.398   5.519
 1757SOL    HW2 5592   1.717   4.241   5.482
 1758SOL     OW 5593   1.362   4.868   4.269
 1758SOL    HW1 5594   1.445   4.839   4.221
 1758SOL    HW2 5595   1.313   4.935   4.213
 1759SOL     OW 5596   0.550   3.920   4.609
 1759SOL    HW1 5597   0.545   3.915   4.709
 1759SOL    HW2 5598   0.552   4.016   4.580
 1760SOL     OW 5599   1.008   5.180   4.201
 1760SOL    HW1 5600   0.962   5.252   4.149
 1760SOL    HW2 5601   1.004   5.200   4.299
 1761SOL     OW 5602   0.351   5.525   4.577
 1761SOL    HW1 5603   0.401   5.439   4.583
 1761SOL    HW2 5604   0.416   5.602   4.574
 1762SOL     OW 5605   1.795   4.790   4.597
 1762SOL    HW1 5606   1.733   4.775   4.521
 1762SOL    HW2 5607   1.743   4.801   4.682
 1763SOL     OW 5608   1.227   5.274   5.230
 1763SOL    HW1 5609   1.233   5.197   5.294
 1763SOL    HW2 5610   1.175   5.248   5.150
 1764SOL     OW 5611   0.321   4.667   3.966
 1764SOL    HW1 5612   0.403   4.706   3.924
 1764SOL    HW2 5613   0.294   4.585   3.917
 1765SOL     OW 5614   1.458   4.459   4.452
 1765SOL    HW1 5615   1.453   4.394   4.527
 1765SOL    HW2 5616   1.538   4.518   4.465
 1766SOL     OW 5617   0.461   4.990   5.451
 1766SOL    HW1 5618   0.411   4.991   5.365
 1766SOL    HW2 5619   0.398   4.972   5.527
 1767SOL     OW 5620   1.111   5.500   3.961
 1767SOL    HW1 5621   1.051   5.438   4.011
 1767SOL    HW2 5622   1.142   5.456   3.876
 1768SOL     OW 5623   0.202   4.009   5.222
 1768SOL    HW1 5624   0.122   4.069   5.209
 1768SOL    HW2 5625   0.192   3.960   5.308
 1769SOL     OW 5626   1.632   5.101   3.805
 1769SOL    HW1 5627   1.600   5.195   3.795
 1769SOL    HW2 5628   1.556   5.038   3.793
 1770SOL     OW 5629   0.464   5.467   4.047
 1770SOL    HW1 5630   0.497   5.506   4.133
 1770SOL    HW2 5631   0.540   5.460   3.982
 1771SOL     OW 5632   1.400   3.831   4.150
 1771SOL    HW1 5633   1.376   3.794   4.060
 1771SOL    HW2 5634   1.499   3.847   4.154
 1772SOL     OW 5635   0.249   5.509   4.965
 1772SOL    HW1 5636   0.306   5.444   5.015
 1772SOL    HW2 5637   0.233   5.476   4.872
 1773SOL     OW 5638   0.940   5.422   4.628
 1773SOL    HW1 5639   1.020   5.365   4.649
 1773SOL    HW2 5640   0.891   5.382   4.551
 1774SOL     OW 5641   0.382   4.424   4.204
 1774SOL    HW1 5642   0.427   4.334   4.201
 1774SOL    HW2 5643   0.288   4.413   4.237
 1775SOL     OW 5644   1.547   3.946   5.453
 1775SOL    HW1 5645   1.542   3.983   5.545
 1775SOL    HW2 5646   1.475   3.877   5.441
 1776SOL     OW 5647   0.614   3.846   3.841
 1776SOL    HW1 5648   0.712   3.824   3.848
 1776SOL    HW2 5649   0.583   3.829   3.748
 1777SOL     OW 5650   0.781   3.988   5.473
 1777SOL    HW1 5651   0.848   3.927   5.516
 1777SOL    HW2 5652   0.708   4.007   5.538
 1778SOL     OW 5653   0.888   5.238   4.919
 1778SOL    HW1 5654   0.865   5.213   4.825
 1778SOL    HW2 5655   0.949   5.169   4.958
 1779SOL     OW 5656   1.351   4.314   5.157
 1779SOL    HW1 5657   1.379   4.271   5.242
 1779SOL    HW2 5658   1.376   4.410   5.158
 1780SOL     OW 5659   0.803   5.126   4.648
 1780SOL    HW1 5660   0.893   5.140   4.606
 1780SOL    HW2 5661   0.732   5.128   4.577
 1781SOL     OW 5662   0.922   4.227   4.623
 1781SOL    HW1 5663   0.897   4.218   4.527
 1781SOL    HW2 5664   0.970   4.145   4.654
 1782SOL     OW 5665   0.539   3.788   4.236
 1782SOL    HW1 5666   0.458   3.789   4.294
 1782SOL    HW2 5667   0.542   3.871   4.181
 1783SOL     OW 5668   1.434   4.912   3.765
 1783SOL    HW1 5669   1.466   4.836   3.822
 1783SOL    HW2 5670   1.342   4.939   3.795
 1784SOL     OW 5671   0.297   3.759   3.895
 1784SOL    HW1 5672   0.346   3.843   3.874
 1784SOL    HW2 5673   0.359   3.694   3.940
 1785SOL     OW 5674   0.935   3.960   4.204
 1785SOL    HW1 5675   0.887   4.001   4.126
 1785SOL    HW2 5676   1.034   3.958   4.185
 1786SOL     OW 5677   1.076   4.407   5.188
 1786SOL    HW1 5678   0.996   4.346   5.191
 1786SOL    HW2 5679   1.157   4.354   5.164
 1787SOL     OW 5680   1.227   5.294   4.517
 1787SOL    HW1 5681   1.248   5.368   4.452
 1787SOL    HW2 5682   1.295   5.294   4.590
 1788SOL     OW 5683   0.459   4.876   4.465
 1788SOL    HW1 5684   0.388   4.849   4.530
 1788SOL    HW2 5685   0.433   4.848   4.372
 1789SOL     OW 5686   1.271   5.521   4.315
 1789SOL    HW1 5687   1.315   5.585   4.251
 1789SOL    HW2 5688   1.221   5.573   4.385
 1790SOL     OW 5689   1.032   4.273   3.740
 1790SOL    HW1 5690   0.991   4.355   3.701
 1790SOL    HW2 5691   1.096   4.299   3.813
 1791SOL     OW 5692   0.078   4.280   5.110
 1791SOL    HW1 5693   0.170   4.279   5.069
 1791SOL    HW2 5694   0.072   4.354   5.177
 1792SOL     OW 5695   0.561   3.946   4.871
 1792SOL    HW1 5696   0.599   3.862   4.908
 1792SOL    HW2 5697   0.473   3.965   4.915
 1793SOL     OW 5698   0.866   4.178   4.366
 1793SOL    HW1 5699   0.834   4.250   4.304
 1793SOL    HW2 5700   0.890   4.097   4.313
 1794SOL     OW 5701   1.017   3.763   4.477
 1794SOL    HW1 5702   0.945   3.768   4.408
 1794SOL    HW2 5703   0.993   3.694   4.546
 1795SOL     OW 5704   1.429   4.897   4.591
 1795SOL    HW1 5705   1.374   4.813   4.584
 1795SOL    HW2 5706   1.455   4.926   4.499
 1796SOL     OW 5707   1.466   4.314   4.716
 1796SOL    HW1 5708   1.436   4.219   4.723
 1796SOL    HW2 5709   1.539   4.330   4.782
 1797SOL     OW 5710   1.857   4.557   4.101
 1797SOL    HW1 5711   1.899   4.493   4.165
 1797SOL    HW2 5712   1.819   4.506   4.023
 1798SOL     OW 5713   0.488   5.109   3.898
 1798SOL    HW1 5714   0.401   5.094   3.945
 1798SOL    HW2 5715   0.471   5.135   3.803
 1799SOL     OW 5716   1.664   5.004   4.381
 1799SOL    HW1 5717   1.763   5.012   4.395
 1799SOL    HW2 5718   1.619   5.088   4.412
 1800SOL     OW 5719   1.390   4.299   3.802
 1800SOL    HW1 5720   1.336   4.278   3.883
 1800SOL    HW2 5721   1.481   4.258   3.811
 1801SOL     OW 5722   0.527   3.980   4.052
 1801SOL    HW1 5723   0.554   3.921   3.977
 1801SOL    HW2 5724   0.527   4.075   4.021
 1802SOL     OW 5725   1.754   4.947   5.312
 1802SOL    HW1 5726   1.845   4.908   5.299
 1802SOL    HW2 5727   1.762   5.043   5.336
 1803SOL     OW 5728   1.064   5.071   5.064
 1803SOL    HW1 5729   0.984   5.048   5.119
 1803SOL    HW2 5730   1.147   5.045   5.113
 1804SOL     OW 5731   1.592   5.353   5.349
 1804SOL    HW1 5732   1.619   5.387   5.259
 1804SOL    HW2 5733   1.671   5.315   5.395
 1805SOL     OW 5734   1.111   4.919   4.824
 1805SOL    HW1 5735   1.071   4.963   4.905
 1805SOL    HW2 5736   1.070   4.956   4.741
 1806SOL     OW 5737   1.638   4.823   4.803
 1806SOL    HW1 5738   1.643   4.904   4.862
 1806SOL    HW2 5739   1.552   4.825   4.752
 1807SOL     OW 5740   0.915   3.813   5.126
 1807SOL    HW1 5741   0.940   3.793   5.031
 1807SOL    HW2 5742   0.987   3.869   5.168
 1808SOL     OW 5743   0.980   4.840   5.443
 1808SOL    HW1 5744   0.881   4.846   5.453
 1808SOL    HW2 5745   1.003   4.760   5.387
 1809SOL     OW 5746   0.705   4.774   4.092
 1809SOL    HW1 5747   0.691   4.781   4.191
 1809SOL    HW2 5748   0.789   4.723   4.074
 1810SOL     OW 5749   0.410   4.537   4.975
 1810SOL    HW1 5750   0.496   4.549   5.025
 1810SOL    HW2 5751   0.368   4.450   5.002
 1811SOL     OW 5752   1.274   4.110   4.986
 1811SOL    HW1 5753   1.295   4.184   5.050
 1811SOL    HW2 5754   1.185   4.127   4.943
 1812SOL     OW 5755   0.064   5.288   5.055
 1812SOL    HW1 5756   0.018   5.370   5.021
 1812SOL    HW2 5757   0.162   5.307   5.064
 1813SOL     OW 5758   0.367   4.824   4.225
 1813SOL    HW1 5759   0.360   4.907   4.169
 1813SOL    HW2 5760   0.371   4.744   4.165
 1814SOL     OW 5761   0.566   4.261   4.589
 1814SOL    HW1 5762   0.578   4.327   4.515
 1814SOL    HW2 5763   0.612   4.295   4.672
 1815SOL     OW 5764   1.252   5.072   4.112
 1815SOL    HW1 5765   1.302   5.149   4.152
 1815SOL    HW2 5766   1.157   5.074   4.144
 1816SOL     OW 5767   1.272   5.169   4.866
 1816SOL    HW1 5768   1.319   5.182   4.953
 1816SOL    HW2 5769   1.206   5.095   4.875
 1817SOL     OW 5770   1.582   4.363   4.196
 1817SOL    HW1 5771   1.551   4.424   4.269
 1817SOL    HW2 5772   1.632   4.415   4.127
 1818SOL     OW 5773   0.354   5.234   5.053
 1818SOL    HW1 5774   0.333   5.190   4.966
 1818SOL    HW2 5775   0.451   5.260   5.056
 1819SOL     OW 5776   0.402   4.475   5.322
 1819SOL    HW1 5777   0.470   4.530   5.275
 1819SOL    HW2 5778   0.442   4.387   5.349
 1820SOL     OW 5779   1.587   4.503   5.394
 1820SOL    HW1 5780   1.495   4.541   5.389
 1820SOL    HW2 5781   1.647   4.550   5.329
 1821SOL     OW 5782   1.013   3.829   5.494
 1821SOL    HW1 5783   1.019   3.914   5.442
 1821SOL    HW2 5784   1.045   3.753   5.437
 1822SOL     OW 5785   0.504   3.774   5.464
 1822SOL    HW1 5786   0.462   3.717   5.394
 1822SOL    HW2 5787   0.438   3.843   5.496
 1823SOL     OW 5788   0.573   4.594   4.753
 1823SOL    HW1 5789   0.617   4.683   4.744
 1823SOL    HW2 5790   0.510   4.594   4.830
 1824SOL     OW 5791   1.360   4.586   4.769
 1824SOL    HW1 5792   1.285   4.586   4.703
 1824SOL    HW2 5793   1.397   4.494   4.778
 1825SOL     OW 5794   1.209   4.249   3.999
 1825SOL    HW1 5795   1.222   4.165   4.053
 1825SOL    HW2 5796   1.180   4.323   4.059
 1826SOL     OW 5797   0.307   3.937   4.955
 1826SOL    HW1 5798   0.284   3.974   5.045
 1826SOL    HW2 5799   0.277   3.842   4.949
 1827SOL     OW 5800   0.037   5.034   5.006
 1827SOL    HW1 5801   0.090   4.985   5.074
 1827SOL    HW2 5802   0.059   5.132   5.011
 1828SOL     OW 5803   0.732   4.358   4.788
 1828SOL    HW1 5804   0.791   4.332   4.712
 1828SOL    HW2 5805   0.704   4.454   4.777
 1829SOL     OW 5806   1.728   4.659   5.578
 1829SOL    HW1 5807   1.682   4.652   5.489
 1829SOL    HW2 5808   1.666   4.703   5.644
 1830SOL     OW 5809   0.307   3.787   4.342
 1830SOL    HW1 5810   0.296   3.881   4.375
 1830SOL    HW2 5811   0.302   3.724   4.419
 1831SOL     OW 5812   1.622   4.091   4.098
 1831SOL    HW1 5813   1.624   4.015   4.162
 1831SOL    HW2 5814   1.574   4.168   4.138
 1832SOL     OW 5815   1.023   4.490   4.690
 1832SOL    HW1 5816   1.038   4.511   4.786
 1832SOL    HW2 5817   0.993   4.395   4.681
 1833SOL     OW 5818   0.980   5.297   5.424
 1833SOL    HW1 5819   0.960   5.341   5.336
 1833SOL    HW2 5820   1.019   5.206   5.408
 1834SOL     OW 5821   1.859   5.242   5.329
 1834SOL    HW1 5822   1.873   5.269   5.234
 1834SOL    HW2 5823   1.942   5.264   5.382
 1835SOL     OW 5824   0.350   4.622   5.528
 1835SOL    HW1 5825   0.426   4.666   5.576
 1835SOL    HW2 5826   0.385   4.575   5.446
 1836SOL     OW 5827   1.540   3.998   3.849
 1836SOL    HW1 5828   1.479   3.923   3.872
 1836SOL    HW2 5829   1.562   4.050   3.932
 1837SOL     OW 5830   1.303   4.562   3.766
 1837SOL    HW1 5831   1.337   4.469   3.781
 1837SOL    HW2 5832   1.321   4.589   3.671
 1838SOL     OW 5833   1.068   5.057   4.573
 1838SOL    HW1 5834   1.075   4.973   4.518
 1838SOL    HW2 5835   1.130   5.126   4.537
 1839SOL     OW 5836   0.319   4.534   4.673
 1839SOL    HW1 5837   0.412   4.570   4.678
 1839SOL    HW2 5838   0.313   4.449   4.725
 1840SOL     OW 5839   0.339   4.233   4.730
 1840SOL    HW1 5840   0.287   4.150   4.713
 1840SOL    HW2 5841   0.416   4.238   4.666
 1841SOL     OW 5842   1.138   4.104   5.402
 1841SOL    HW1 5843   1.093   4.167   5.466
 1841SOL    HW2 5844   1.231   4.135   5.385
 1842SOL     OW 5845   1.160   3.931   5.201
 1842SOL    HW1 5846   1.160   3.995   5.278
 1842SOL    HW2 5847   1.188   3.979   5.118
 1843SOL     OW 5848   0.008   5.050   3.924
 1843SOL    HW1 5849  -0.085   5.071   3.893
 1843SOL    HW2 5850   0.018   4.951   3.937
 1844SOL     OW 5851   0.088   5.525   4.651
 1844SOL    HW1 5852   0.046   5.439   4.624
 1844SOL    HW2 5853   0.182   5.528   4.617
 1845SOL     OW 5854   0.504   5.292   4.634
 1845SOL    HW1 5855   0.570   5.366   4.643
 1845SOL    HW2 5856   0.548   5.213   4.592
 1846SOL     OW 5857   1.002   4.520   4.962
 1846SOL    HW1 5858   1.043   4.488   5.048
 1846SOL    HW2 5859   0.906   4.493   4.959
 1847SOL     OW 5860   0.040   4.268   4.838
 1847SOL    HW1 5861   0.125   4.235   4.797
 1847SOL    HW2 5862   0.053   4.283   4.936
 1848SOL     OW 5863   0.189   4.244   5.446
 1848SOL    HW1 5864   0.248   4.204   5.376
 1848SOL    HW2 5865   0.131   4.315   5.405
 1849SOL     OW 5866   1.369   4.674   5.384
 1849SOL    HW1 5867   1.408   4.763   5.404
 1849SOL    HW2 5868   1.379   4.654   5.287
 1850SOL     OW 5869   0.815   4.296   4.049
 1850SOL    HW1 5870   0.822   4.207   4.003
 1850SOL    HW2 5871   0.721   4.330   4.041
 1851SOL     OW 5872   1.657   4.328   4.930
 1851SOL    HW1 5873   1.619   4.259   4.992
 1851SOL    HW2 5874   1.739   4.292   4.886
 1852SOL     OW 5875   0.252   5.288   5.468
 1852SOL    HW1 5876   0.222   5.345   5.544
 1852SOL    HW2 5877   0.245   5.191   5.494
 1853SOL     OW 5878   0.671   4.188   4.993
 1853SOL    HW1 5879   0.637   4.099   4.963
 1853SOL    HW2 5880   0.697   4.242   4.913
 1854SOL     OW 5881   0.930   5.402   5.189
 1854SOL    HW1 5882   0.906   5.384   5.094
 1854SOL    HW2 5883   0.960   5.496   5.199
 1855SOL     OW 5884   0.473   4.224   3.915
 1855SOL    HW1 5885   0.534   4.304   3.919
 1855SOL    HW2 5886   0.378   4.255   3.922
 1856SOL     OW 5887   0.159   4.861   5.190
 1856SOL    HW1 5888   0.181   4.800   5.266
 1856SOL    HW2 5889   0.169   4.812   5.104
 1857SOL     OW 5890   1.347   4.783   4.958
 1857SOL    HW1 5891   1.371   4.720   4.884
 1857SOL    HW2 5892   1.257   4.823   4.940
 1858SOL     OW 5893   1.302   4.579   4.033
 1858SOL    HW1 5894   1.216   4.548   4.075
 1858SOL    HW2 5895   1.298   4.565   3.934
 1859SOL     OW 5896   1.759   5.471   4.878
 1859SOL    HW1 5897   1.820   5.501   4.805
 1859SOL    HW2 5898   1.721   5.382   4.856
 1860SOL     OW 5899   1.252   5.455   4.852
 1860SOL    HW1 5900   1.336   5.460   4.798
 1860SOL    HW2 5901   1.229   5.359   4.870
 1861SOL     OW 5902   0.083   4.982   4.746
 1861SOL    HW1 5903   0.078   4.981   4.846
 1861SOL    HW2 5904   0.000   4.941   4.708
 1862SOL     OW 5905   0.688   5.386   5.440
 1862SOL    HW1 5906   0.632   5.467   5.449
 1862SOL    HW2 5907   0.740   5.390   5.354
 1863SOL     OW 5908   1.726   3.859   4.247
 1863SOL    HW1 5909   1.799   3.842   4.180
 1863SOL    HW2 5910   1.695   3.772   4.285
 1864SOL     OW 5911   1.388   5.297   4.201
 1864SOL    HW1 5912   1.455   5.309   4.127
 1864SOL    HW2 5913   1.348   5.386   4.224
 1865SOL     OW 5914   0.130   5.518   5.575
 1865SOL    HW1 5915   0.089   5.444   5.628
 1865SOL    HW2 5916   0.194   5.569   5.633
 1866SOL     OW 5917   1.280   4.651   4.396
 1866SOL    HW1 5918   1.340   4.570   4.398
 1866SOL    HW2 5919   1.320   4.720   4.336
 1867SOL     OW 5920   0.830   4.997   5.146
 1867SOL    HW1 5921   0.825   5.030   5.241
 1867SOL    HW2 5922   0.744   5.016   5.100
 1868SOL     OW 5923   0.672   5.340   3.878
 1868SOL    HW1 5924   0.681   5.350   3.779
 1868SOL    HW2 5925   0.632   5.251   3.899
 1869SOL     OW 5926   1.650   5.444   5.118
 1869SOL    HW1 5927   1.703   5.454   5.034
 1869SOL    HW2 5928   1.623   5.534   5.152
 1870SOL     OW 5929   1.841   3.899   4.687
 1870SOL    HW1 5930   1.880   3.814   4.651
 1870SOL    HW2 5931   1.743   3.901   4.668
 1871SOL     OW 5932   0.263   4.050   4.444
 1871SOL    HW1 5933   0.184   4.101   4.410
 1871SOL    HW2 5934   0.254   4.035   4.542
 1872SOL     OW 5935   1.194   5.336   3.755
 1872SOL    HW1 5936   1.200   5.243   3.792
 1872SOL    HW2 5937   1.135   5.336   3.675
 1873SOL     OW 5938   0.822   4.726   5.096
 1873SOL    HW1 5939   0.862   4.725   5.004
 1873SOL    HW2 5940   0.832   4.818   5.136
 1874SOL     OW 5941   0.916   4.634   4.015
 1874SOL    HW1 5942   0.979   4.672   3.947
 1874SOL    HW2 5943   0.956   4.551   4.054
 1875SOL     OW 5944   1.504   5.331   3.768
 1875SOL    HW1 5945   1.412   5.368   3.775
 1875SOL    HW2 5946   1.542   5.351   3.678
 1876SOL     OW 5947   0.372   5.012   5.214
 1876SOL    HW1 5948   0.359   5.105   5.180
 1876SOL    HW2 5949   0.288   4.960   5.201
 1877SOL     OW 5950   1.614   5.016   5.013
 1877SOL    HW1 5951   1.674   5.019   5.093
 1877SOL    HW2 5952   1.539   5.080   5.026
 1878SOL     OW 5953   1.039   4.822   4.420
 1878SOL    HW1 5954   0.969   4.775   4.474
 1878SOL    HW2 5955   1.098   4.754   4.377
 1879SOL     OW 5956   1.014   3.960   4.695
 1879SOL    HW1 5957   1.006   3.924   4.602
 1879SOL    HW2 5958   1.012   3.884   4.760
 1880SOL     OW 5959   0.590   5.211   4.215
 1880SOL    HW1 5960   0.632   5.153   4.145
 1880SOL    HW2 5961   0.546   5.290   4.171
 1881SOL     OW 5962   1.709   4.109   5.105
 1881SOL    HW1 5963   1.782   4.178   5.109
 1881SOL    HW2 5964   1.737   4.034   5.046
 1882SOL     OW 5965   0.255   5.072   4.014
 1882SOL    HW1 5966   0.159   5.073   3.987
 1882SOL    HW2 5967   0.267   5.125   4.098
 1883SOL     OW 5968   0.105   4.737   5.450
 1883SOL    HW1 5969   0.028   4.704   5.504
 1883SOL    HW2 5970   0.190   4.707   5.492
 1884SOL     OW 5971   0.672   3.927   5.213
 1884SOL    HW1 5972   0.762   3.911   5.173
 1884SOL    HW2 5973   0.680   3.932   5.312
 1885SOL     OW 5974   0.075   4.069   3.757
 1885SOL    HW1 5975  -0.017   4.041   3.728
 1885SOL    HW2 5976   0.106   4.146   3.701
 1886SOL     OW 5977   1.440   4.580   5.122
 1886SOL    HW1 5978   1.383   4.632   5.059
 1886SOL    HW2 5979   1.536   4.592   5.098
 1887SOL     OW 5980   0.072   3.890   4.042
 1887SOL    HW1 5981   0.055   3.973   3.988
 1887SOL    HW2 5982   0.162   3.853   4.020
 1888SOL     OW 5983   1.183   5.059   3.843
 1888SOL    HW1 5984   1.084   5.048   3.845
 1888SOL    HW2 5985   1.217   5.074   3.936
 1889SOL     OW 5986   0.613   4.566   5.155
 1889SOL    HW1 5987   0.669   4.647   5.138
 1889SOL    HW2 5988   0.672   4.486   5.158
 1890SOL     OW 5989   1.493   5.491   4.683
 1890SOL    HW1 5990   1.526   5.555   4.614
 1890SOL    HW2 5991   1.559   5.485   4.758
 1891SOL     OW 5992   0.716   4.289   5.432
 1891SOL    HW1 5993   0.735   4.354   5.506
 1891SOL    HW2 5994   0.776   4.209   5.441
 1892SOL     OW 5995   1.450   4.944   5.357
 1892SOL    HW1 5996   1.441   4.934   5.456
 1892SOL    HW2 5997   1.546   4.937   5.331
 1893SOL     OW 5998   0.390   5.465   5.284
 1893SOL    HW1 5999   0.299   5.506   5.282
 1893SOL    HW2 6000   0.383   5.371   5.316
 1894SOL     OW 6001   1.674   4.607   4.978
 1894SOL    HW1 6002   1.647   4.518   4.941
 1894SOL    HW2 6003   1.675   4.675   4.905
 1895SOL     OW 6004   1.225   4.049   4.173
 1895SOL    HW1 6005   1.290   3.975   4.162
 1895SOL    HW2 6006   1.245   4.099   4.257
 1896SOL     OW 6007   0.594   4.469   4.376
 1896SOL    HW1 6008   0.644   4.554   4.357
 1896SOL    HW2 6009   0.506   4.471   4.328
 1897SOL     OW 6010   1.777   4.066   5.366
 1897SOL    HW1 6011   1.760   4.097   5.272
 1897SOL    HW2 6012   1.693   4.029   5.404
 1898SOL     OW 6013   1.730   4.658   5.241
 1898SOL    HW1 6014   1.768   4.749   5.256
 1898SOL    HW2 6015   1.722   4.641   5.142
 1899SOL     OW 6016   0.859   5.098   3.740
 1899SOL    HW1 6017   0.813   5.113   3.828
 1899SOL    HW2 6018   0.903   5.183   3.710
 1900SOL     OW 6019   0.661   5.514   4.677
 1900SOL    HW1 6020   0.615   5.602   4.664
 1900SOL    HW2 6021   0.760   5.526   4.670
 1901SOL     OW 6022   0.859   4.680   4.585
 1901SOL    HW1 6023   0.913   4.611   4.633
 1901SOL    HW2 6024   0.827   4.749   4.651
 1902SOL     OW 6025   1.083   4.708   3.811
 1902SOL    HW1 6026   1.060   4.761   3.729
 1902SOL    HW2 6027   1.164   4.652   3.792
 1903SOL     OW 6028   1.861   5.293   4.575
 1903SOL    HW1 6029   1.790   5.281   4.505
 1903SOL    HW2 6030   1.862   5.214   4.635
 1904SOL     OW 6031   0.221   5.038   5.568
 1904SOL    HW1 6032   0.156   4.965   5.547
 1904SOL    HW2 6033   0.225   5.052   5.666
 1905SOL     OW 6034   0.079   4.964   4.377
 1905SOL    HW1 6035   0.078   4.917   4.465
 1905SOL    HW2 6036   0.161   4.936   4.326
 1906SOL     OW 6037   0.672   5.115   5.348
 1906SOL    HW1 6038   0.594   5.065   5.386
 1906SOL    HW2 6039   0.669   5.210   5.379
 1907SOL     OW 6040   1.824   3.916   4.951
 1907SOL    HW1 6041   1.820   3.826   4.995
 1907SOL    HW2 6042   1.827   3.905   4.852
 1908SOL     OW 6043   0.428   4.148   4.244
 1908SOL    HW1 6044   0.458   4.076   4.182
 1908SOL    HW2 6045   0.389   4.108   4.327
 1909SOL     OW 6046   1.705   5.211   4.828
 1909SOL    HW1 6047   1.612   5.186   4.801
 1909SOL    HW2 6048   1.731   5.161   4.910
 1910SOL     OW 6049   0.317   4.271   5.004
 1910SOL    HW1 6050   0.355   4.212   5.076
 1910SOL    HW2 6051   0.357   4.245   4.916
 1911SOL     OW 6052   0.812   5.310   4.411
 1911SOL    HW1 6053   0.844   5.320   4.317
 1911SOL    HW2 6054   0.733   5.248   4.413
 1912SOL     OW 6055   1.424   3.938   4.836
 1912SOL    HW1 6056   1.476   3.873   4.891
 1912SOL    HW2 6057   1.375   4.001   4.897
 1913SOL     OW 6058   1.001   3.758   4.878
 1913SOL    HW1 6059   0.938   3.686   4.847
 1913SOL    HW2 6060   1.094   3.722   4.878
 1914SOL     OW 6061   0.770   5.054   4.025
 1914SOL    HW1 6062   0.724   4.967   4.042
 1914SOL    HW2 6063   0.861   5.051   4.066
 1915SOL     OW 6064   0.618   5.291   5.008
 1915SOL    HW1 6065   0.613   5.373   5.065
 1915SOL    HW2 6066   0.707   5.288   4.963
 1916SOL     OW 6067   1.352   3.776   3.892
 1916SOL    HW1 6068   1.387   3.735   3.808
 1916SOL    HW2 6069   1.262   3.738   3.912
 1917SOL     OW 6070   1.300   4.177   4.415
 1917SOL    HW1 6071   1.241   4.257   4.419
 1917SOL    HW2 6072   1.315   4.142   4.508
 1918SOL     OW 6073   1.593   3.945   4.606
 1918SOL    HW1 6074   1.509   3.944   4.660
 1918SOL    HW2 6075   1.595   4.028   4.550
 1919SOL     OW 6076   0.039   4.801   4.024
 1919SOL    HW1 6077   0.138   4.790   4.015
 1919SOL    HW2 6078  -0.001   4.715   4.056
 1920SOL     OW 6079   0.875   5.370   4.061
 1920SOL    HW1 6080   0.798   5.335   4.007
 1920SOL    HW2 6081   0.843   5.441   4.123
 1921SOL     OW 6082   2.092   0.628   0.113
 1921SOL    HW1 6083   1.999   0.626   0.150
 1921SOL    HW2 6084   2.093   0.589   0.021
 1922SOL     OW 6085   2.087   0.275   0.996
 1922SOL    HW1 6086   2.122   0.258   1.088
 1922SOL    HW2 6087   1.999   0.230   0.984
 1923SOL     OW 6088   1.881   0.368   0.647
 1923SOL    HW1 6089   1.799   0.411   0.686
 1923SOL    HW2 6090   1.853   0.295   0.584
 1924SOL     OW 6091   2.431   1.275   1.165
 1924SOL    HW1 6092   2.338   1.268   1.128
 1924SOL    HW2 6093   2.442   1.364   1.209
 1925SOL     OW 6094   3.417   1.511   0.703
 1925SOL    HW1 6095   3.360   1.495   0.784
 1925SOL    HW2 6096   3.358   1.521   0.623
 1926SOL     OW 6097   2.997   0.703   0.717
 1926SOL    HW1 6098   3.054   0.781   0.692
 1926SOL    HW2 6099   2.937   0.729   0.793
 1927SOL     OW 6100   3.617   0.607   0.231
 1927SOL    HW1 6101   3.605   0.594   0.132
 1927SOL    HW2 6102   3.587   0.526   0.280
 1928SOL     OW 6103   2.630   1.144   1.023
 1928SOL    HW1 6104   2.552   1.161   1.083
 1928SOL    HW2 6105   2.664   1.231   0.987
 1929SOL     OW 6106   2.712   0.798   1.823
 1929SOL    HW1 6107   2.708   0.874   1.888
 1929SOL    HW2 6108   2.734   0.834   1.732
 1930SOL     OW 6109   2.547   1.012   0.665
 1930SOL    HW1 6110   2.616   0.996   0.735
 1930SOL    HW2 6111   2.474   1.069   0.703
 1931SOL     OW 6112   2.548   1.161   1.803
 1931SOL    HW1 6113   2.608   1.240   1.817
 1931SOL    HW2 6114   2.462   1.192   1.762
 1932SOL     OW 6115   2.197   1.435   1.061
 1932SOL    HW1 6116   2.119   1.404   1.008
 1932SOL    HW2 6117   2.255   1.493   1.004
 1933SOL     OW 6118   3.322   1.505   1.339
 1933SOL    HW1 6119   3.346   1.599   1.365
 1933SOL    HW2 6120   3.306   1.451   1.421
 1934SOL     OW 6121   2.300   0.392   1.499
 1934SOL    HW1 6122   2.382   0.336   1.508
 1934SOL    HW2 6123   2.219   0.334   1.503
 1935SOL     OW 6124   3.465   0.447   0.737
 1935SOL    HW1 6125   3.391   0.493   0.687
 1935SOL    HW2 6126   3.516   0.515   0.790
 1936SOL     OW 6127   2.093   1.713   0.483
 1936SOL    HW1 6128   2.127   1.790   0.537
 1936SOL    HW2 6129   2.137   1.713   0.393
 1937SOL     OW 6130   2.989   1.341   1.690
 1937SOL    HW1 6131   3.036   1.341   1.778
 1937SOL    HW2 6132   2.941   1.254   1.679
 1938SOL     OW 6133   2.092   1.434   0.538
 1938SOL    HW1 6134   2.066   1.530   0.538
 1938SOL    HW2 6135   2.021   1.380   0.583
 1939SOL     OW 6136   2.102   1.091   0.886
 1939SOL    HW1 6137   2.116   1.007   0.938
 1939SOL    HW2 6138   2.047   1.155   0.941
 1940SOL     OW 6139   2.482   1.786   1.439
 1940SOL    HW1 6140   2.390   1.769   1.474
 1940SOL    HW2 6141   2.510   1.878   1.465
 1941SOL     OW 6142   2.468   0.964   0.123
 1941SOL    HW1 6143   2.475   1.048   0.069
 1941SOL    HW2 6144   2.514   0.977   0.211
 1942SOL     OW 6145   3.456   0.114   1.480
 1942SOL    HW1 6146   3.438   0.181   1.408
 1942SOL    HW2 6147   3.453   0.160   1.569
 1943SOL     OW 6148   1.984   0.643   0.563
 1943SOL    HW1 6149   1.939   0.555   0.580
 1943SOL    HW2 6150   1.983   0.697   0.647
 1944SOL     OW 6151   3.704   1.767   0.359
 1944SOL    HW1 6152   3.758   1.738   0.439
 1944SOL    HW2 6153   3.734   1.857   0.330
 1945SOL     OW 6154   1.889   1.596   0.117
 1945SOL    HW1 6155   1.870   1.500   0.138
 1945SOL    HW2 6156   1.856   1.654   0.192
 1946SOL     OW 6157   3.551   0.922   0.612
 1946SOL    HW1 6158   3.646   0.893   0.620
 1946SOL    HW2 6159   3.543   0.987   0.537
 1947SOL     OW 6160   3.503   1.108   0.432
 1947SOL    HW1 6161   3.589   1.110   0.380
 1947SOL    HW2 6162   3.517   1.155   0.520
 1948SOL     OW 6163   1.975   0.737   1.597
 1948SOL    HW1 6164   2.063   0.724   1.642
 1948SOL    HW2 6165   1.962   0.834   1.575
 1949SOL     OW 6166   2.475   1.365   0.726
 1949SOL    HW1 6167   2.426   1.278   0.735
 1949SOL    HW2 6168   2.452   1.408   0.639
 1950SOL     OW 6169   3.155   1.228   1.423
 1950SOL    HW1 6170   3.192   1.155   1.365
 1950SOL    HW2 6171   3.207   1.233   1.508
 1951SOL     OW 6172   2.671   0.004   0.502
 1951SOL    HW1 6173   2.711   0.095   0.493
 1951SOL    HW2 6174   2.571   0.012   0.508
 1952SOL     OW 6175   2.059   0.976   1.264
 1952SOL    HW1 6176   2.148   0.931   1.250
 1952SOL    HW2 6177   1.986   0.911   1.245
 1953SOL     OW 6178   3.387   0.999   0.190
 1953SOL    HW1 6179   3.324   0.923   0.203
 1953SOL    HW2 6180   3.435   1.017   0.276
 1954SOL     OW 6181   3.049   1.792   1.616
 1954SOL    HW1 6182   3.073   1.852   1.540
 1954SOL    HW2 6183   3.056   1.697   1.586
 1955SOL     OW 6184   2.179   0.251   1.801
 1955SOL    HW1 6185   2.250   0.322   1.807
 1955SOL    HW2 6186   2.091   0.290   1.829
 1956SOL     OW 6187   3.328   1.417   0.953
 1956SOL    HW1 6188   3.269   1.423   1.033
 1956SOL    HW2 6189   3.313   1.329   0.907
 1957SOL     OW 6190   3.529   1.714   0.572
 1957SOL    HW1 6191   3.488   1.691   0.484
 1957SOL    HW2 6192   3.511   1.640   0.637
 1958SOL     OW 6193   2.460   0.729   0.270
 1958SOL    HW1 6194   2.484   0.798   0.202
 1958SOL    HW2 6195   2.382   0.762   0.324
 1959SOL     OW 6196   3.143   0.345   0.944
 1959SOL    HW1 6197   3.057   0.295   0.931
 1959SOL    HW2 6198   3.205   0.291   1.000
 1960SOL     OW 6199   3.438   1.662   0.307
 1960SOL    HW1 6200   3.527   1.708   0.310
 1960SOL    HW2 6201   3.417   1.638   0.212
 1961SOL     OW 6202   2.669   0.605   1.465
 1961SOL    HW1 6203   2.622   0.602   1.554
 1961SOL    HW2 6204   2.618   0.550   1.399
 1962SOL     OW 6205   3.256   0.469   1.674
 1962SOL    HW1 6206   3.236   0.512   1.762
 1962SOL    HW2 6207   3.334   0.407   1.683
 1963SOL     OW 6208   2.835   0.890   1.572
 1963SOL    HW1 6209   2.881   0.806   1.543
 1963SOL    HW2 6210   2.779   0.924   1.497
 1964SOL     OW 6211   2.853   0.410   1.242
 1964SOL    HW1 6212   2.776   0.444   1.296
 1964SOL    HW2 6213   2.819   0.359   1.163
 1965SOL     OW 6214   2.903   0.701   0.429
 1965SOL    HW1 6215   2.929   0.697   0.525
 1965SOL    HW2 6216   2.818   0.650   0.415
 1966SOL     OW 6217   1.938   0.811   0.789
 1966SOL    HW1 6218   2.037   0.799   0.798
 1966SOL    HW2 6219   1.914   0.906   0.810
 1967SOL     OW 6220   1.992   1.821   1.571
 1967SOL    HW1 6221   1.982   1.806   1.670
 1967SOL    HW2 6222   1.906   1.857   1.535
 1968SOL     OW 6223   2.727   0.348   0.195
 1968SOL    HW1 6224   2.786   0.411   0.146
 1968SOL    HW2 6225   2.746   0.254   0.166
 1969SOL     OW 6226   3.581   0.585   1.831
 1969SOL    HW1 6227   3.555   0.674   1.795
 1969SOL    HW2 6228   3.579   0.517   1.758
 1970SOL     OW 6229   3.224   1.144   0.545
 1970SOL    HW1 6230   3.307   1.115   0.497
 1970SOL    HW2 6231   3.175   1.211   0.489
 1971SOL     OW 6232   2.412   0.196   0.885
 1971SOL    HW1 6233   2.407   0.191   0.985
 1971SOL    HW2 6234   2.414   0.292   0.856
 1972SOL     OW 6235   2.870   1.456   0.477
 1972SOL    HW1 6236   2.824   1.528   0.425
 1972SOL    HW2 6237   2.866   1.476   0.575
 1973SOL     OW 6238   2.213   1.801   0.853
 1973SOL    HW1 6239   2.263   1.715   0.859
 1973SOL    HW2 6240   2.278   1.878   0.850
 1974SOL     OW 6241   3.657   1.066   0.873
 1974SOL    HW1 6242   3.595   1.051   0.797
 1974SOL    HW2 6243   3.605   1.077   0.958
 1975SOL     OW 6244   3.089   1.550   1.506
 1975SOL    HW1 6245   3.095   1.473   1.570
 1975SOL    HW2 6246   3.037   1.524   1.426
 1976SOL     OW 6247   2.183   0.943   0.242
 1976SOL    HW1 6248   2.265   0.982   0.200
 1976SOL    HW2 6249   2.156   0.861   0.193
 1977SOL     OW 6250   3.320   0.735   0.728
 1977SOL    HW1 6251   3.315   0.670   0.803
 1977SOL    HW2 6252   3.400   0.794   0.741
 1978SOL     OW 6253   2.323   1.266   1.727
 1978SOL    HW1 6254   2.273   1.267   1.641
 1978SOL    HW2 6255   2.260   1.248   1.803
 1979SOL     OW 6256   2.973   1.776   0.237
 1979SOL    HW1 6257   2.913   1.714   0.287
 1979SOL    HW2 6258   3.004   1.732   0.152
 1980SOL     OW 6259   2.064   0.285   1.498
 1980SOL    HW1 6260   1.984   0.345   1.485
 1980SOL    HW2 6261   2.054   0.236   1.584
 1981SOL     OW 6262   3.494   1.377   0.081
 1981SOL    HW1 6263   3.462   1.471   0.071
 1981SOL    HW2 6264   3.418   1.314   0.069
 1982SOL     OW 6265   2.326   1.743   0.323
 1982SOL    HW1 6266   2.359   1.782   0.409
 1982SOL    HW2 6267   2.402   1.736   0.258
 1983SOL     OW 6268   3.262   0.107   0.426
 1983SOL    HW1 6269   3.238   0.070   0.336
 1983SOL    HW2 6270   3.361   0.123   0.430
 1984SOL     OW 6271   2.111   1.785   1.241
 1984SOL    HW1 6272   2.168   1.720   1.291
 1984SOL    HW2 6273   2.095   1.752   1.148
 1985SOL     OW 6274   2.802   1.698   0.904
 1985SOL    HW1 6275   2.882   1.641   0.925
 1985SOL    HW2 6276   2.753   1.658   0.827
 1986SOL     OW 6277   2.244   0.700   0.480
 1986SOL    HW1 6278   2.289   0.610   0.477
 1986SOL    HW2 6279   2.150   0.689   0.513
 1987SOL     OW 6280   3.409   0.222   1.729
 1987SOL    HW1 6281   3.404   0.259   1.821
 1987SOL    HW2 6282   3.337   0.153   1.717
 1988SOL     OW 6283   2.476   0.122   0.117
 1988SOL    HW1 6284   2.574   0.100   0.124
 1988SOL    HW2 6285   2.445   0.105   0.024
 1989SOL     OW 6286   2.643   0.264   1.749
 1989SOL    HW1 6287   2.710   0.203   1.792
 1989SOL    HW2 6288   2.570   0.283   1.814
 1990SOL     OW 6289   2.750   1.514   1.195
 1990SOL    HW1 6290   2.727   1.489   1.101
 1990SOL    HW2 6291   2.811   1.445   1.234
 1991SOL     OW 6292   3.213   0.590   1.433
 1991SOL    HW1 6293   3.241   0.547   1.518
 1991SOL    HW2 6294   3.238   0.686   1.434
 1992SOL     OW 6295   2.665   1.402   0.924
 1992SOL    HW1 6296   2.755   1.416   0.882
 1992SOL    HW2 6297   2.594   1.404   0.853
 1993SOL     OW 6298   2.784   0.503   0.899
 1993SOL    HW1 6299   2.759   0.494   0.803
 1993SOL    HW2 6300   2.832   0.421   0.930
 1994SOL     OW 6301   2.401   0.064   0.512
 1994SOL    HW1 6302   2.320   0.065   0.570
 1994SOL    HW2 6303   2.404   0.147   0.457
 1995SOL     OW 6304   3.296   1.188   0.041
 1995SOL    HW1 6305   3.328   1.112   0.098
 1995SOL    HW2 6306   3.204   1.215   0.071
 1996SOL     OW 6307   2.159   0.035   0.171
 1996SOL    HW1 6308   2.208   0.119   0.150
 1996SOL    HW2 6309   2.221  -0.030   0.216
 1997SOL     OW 6310   2.797   0.236   0.480
 1997SOL    HW1 6311   2.749   0.277   0.402
 1997SOL    HW2 6312   2.896   0.234   0.461
 1998SOL     OW 6313   2.938   0.683   1.464
 1998SOL    HW1 6314   2.858   0.622   1.467
 1998SOL    HW2 6315   3.019   0.630   1.440
 1999SOL     OW 6316   3.089   1.570   0.793
 1999SOL    HW1 6317   3.110   1.644   0.728
 1999SOL    HW2 6318   3.157   1.570   0.866
 2000SOL     OW 6319   2.321   1.152   0.741
 2000SOL    HW1 6320   2.250   1.125   0.806
 2000SOL    HW2 6321   2.295   1.124   0.648
 2001SOL     OW 6322   3.133   1.797   0.591
 2001SOL    HW1 6323   3.177   1.861   0.527
 2001SOL    HW2 6324   3.083   1.849   0.661
 2002SOL     OW 6325   2.894   0.549   0.016
 2002SOL    HW1 6326   2.853   0.631  -0.023
 2002SOL    HW2 6327   2.958   0.575   0.089
 2003SOL     OW 6328   1.940   0.556   1.386
 2003SOL    HW1 6329   2.032   0.555   1.345
 2003SOL    HW2 6330   1.934   0.630   1.453
 2004SOL     OW 6331   2.423   0.222   1.147
 2004SOL    HW1 6332   2.461   0.138   1.184
 2004SOL    HW2 6333   2.335   0.241   1.191
 2005SOL     OW 6334   2.728   0.454   0.642
 2005SOL    HW1 6335   2.696   0.526   0.580
 2005SOL    HW2 6336   2.752   0.373   0.589
 2006SOL     OW 6337   2.879   0.039   0.753
 2006SOL    HW1 6338   2.807   0.044   0.684
 2006SOL    HW2 6339   2.855  -0.030   0.822
 2007SOL     OW 6340   3.291   1.173   0.867
 2007SOL    HW1 6341   3.236   1.089   0.860
 2007SOL    HW2 6342   3.317   1.202   0.775
 2008SOL     OW 6343   3.328   0.590   0.992
 2008SOL    HW1 6344   3.298   0.495   0.999
 2008SOL    HW2 6345   3.401   0.606   1.058
 2009SOL     OW 6346   3.719   0.833   0.377
 2009SOL    HW1 6347   3.761   0.769   0.441
 2009SOL    HW2 6348   3.681   0.782   0.299
 2010SOL     OW 6349   2.350   1.385   0.174
 2010SOL    HW1 6350   2.263   1.370   0.221
 2010SOL    HW2 6351   2.333   1.411   0.079
 2011SOL     OW 6352   3.526   1.280   0.657
 2011SOL    HW1 6353   3.625   1.288   0.671
 2011SOL    HW2 6354   3.481   1.364   0.688
 2012SOL     OW 6355   3.252   0.575   0.078
 2012SOL    HW1 6356   3.198   0.554   0.159
 2012SOL    HW2 6357   3.343   0.534   0.087
 2013SOL     OW 6358   2.389   0.256   0.328
 2013SOL    HW1 6359   2.416   0.197   0.253
 2013SOL    HW2 6360   2.389   0.351   0.297
 2014SOL     OW 6361   3.616   1.223   1.588
 2014SOL    HW1 6362   3.707   1.184   1.575
 2014SOL    HW2 6363   3.624   1.319   1.612
 2015SOL     OW 6364   2.926   1.347   1.340
 2015SOL    HW1 6365   2.846   1.324   1.395
 2015SOL    HW2 6366   3.009   1.321   1.389
 2016SOL     OW 6367   3.454   1.629   1.625
 2016SOL    HW1 6368   3.481   1.663   1.535
 2016SOL    HW2 6369   3.533   1.591   1.671
 2017SOL     OW 6370   2.973   1.195   1.100
 2017SOL    HW1 6371   2.933   1.239   1.181
 2017SOL    HW2 6372   2.932   1.232   1.017
 2018SOL     OW 6373   3.500   1.099   1.079
 2018SOL    HW1 6374   3.505   1.180   1.138
 2018SOL    HW2 6375   3.414   1.101   1.028
 2019SOL     OW 6376   2.777   0.089   1.402
 2019SOL    HW1 6377   2.802   0.069   1.307
 2019SOL    HW2 6378   2.849   0.145   1.444
 2020SOL     OW 6379   2.842   1.116   1.719
 2020SOL    HW1 6380   2.743   1.122   1.729
 2020SOL    HW2 6381   2.865   1.036   1.663
 2021SOL     OW 6382   2.567   1.050   0.368
 2021SOL    HW1 6383   2.553   1.057   0.467
 2021SOL    HW2 6384   2.651   0.999   0.350
 2022SOL     OW 6385   2.272   0.813   1.251
 2022SOL    HW1 6386   2.358   0.825   1.301
 2022SOL    HW2 6387   2.230   0.726   1.278
 2023SOL     OW 6388   3.136   0.386   1.262
 2023SOL    HW1 6389   3.157   0.460   1.326
 2023SOL    HW2 6390   3.047   0.403   1.219
 2024SOL     OW 6391   1.926   1.564   1.331
 2024SOL    HW1 6392   1.880   1.646   1.297
 2024SOL    HW2 6393   2.024   1.583   1.340
 2025SOL     OW 6394   2.229   1.100   0.501
 2025SOL    HW1 6395   2.222   1.183   0.445
 2025SOL    HW2 6396   2.233   1.020   0.441
 2026SOL     OW 6397   2.428   0.537   0.865
 2026SOL    HW1 6398   2.440   0.603   0.791
 2026SOL    HW2 6399   2.474   0.571   0.948
 2027SOL     OW 6400   3.114   1.348   0.388
 2027SOL    HW1 6401   3.164   1.425   0.428
 2027SOL    HW2 6402   3.019   1.350   0.420
 2028SOL     OW 6403   3.134   1.445   1.142
 2028SOL    HW1 6404   3.181   1.458   1.229
 2028SOL    HW2 6405   3.068   1.371   1.151
 2029SOL     OW 6406   3.444   0.639   0.472
 2029SOL    HW1 6407   3.413   0.700   0.545
 2029SOL    HW2 6408   3.494   0.691   0.403
 2030SOL     OW 6409   2.216   1.510   1.329
 2030SOL    HW1 6410   2.195   1.466   1.242
 2030SOL    HW2 6411   2.313   1.536   1.332
 2031SOL     OW 6412   2.264   0.751   1.598
 2031SOL    HW1 6413   2.332   0.806   1.551
 2031SOL    HW2 6414   2.304   0.663   1.625
 2032SOL     OW 6415   3.449   0.779   1.670
 2032SOL    HW1 6416   3.357   0.817   1.665
 2032SOL    HW2 6417   3.509   0.826   1.605
 2033SOL     OW 6418   2.875   0.105   1.770
 2033SOL    HW1 6419   2.881   0.190   1.718
 2033SOL    HW2 6420   2.907   0.029   1.713
 2034SOL     OW 6421   2.366   0.050   1.740
 2034SOL    HW1 6422   2.324  -0.007   1.670
 2034SOL    HW2 6423   2.300   0.119   1.772
 2035SOL     OW 6424   2.435   0.870   1.029
 2035SOL    HW1 6425   2.479   0.959   1.020
 2035SOL    HW2 6426   2.372   0.870   1.106
 2036SOL     OW 6427   3.222   0.862   1.045
 2036SOL    HW1 6428   3.147   0.862   0.979
 2036SOL    HW2 6429   3.259   0.770   1.054
 2037SOL     OW 6430   3.071   0.525   0.275
 2037SOL    HW1 6431   3.084   0.441   0.329
 2037SOL    HW2 6432   3.042   0.599   0.335
 2038SOL     OW 6433   2.169   0.213   1.231
 2038SOL    HW1 6434   2.146   0.250   1.321
 2038SOL    HW2 6435   2.139   0.118   1.225
 2039SOL     OW 6436   1.899   1.310   1.282
 2039SOL    HW1 6437   1.952   1.261   1.350
 2039SOL    HW2 6438   1.921   1.408   1.287
 2040SOL     OW 6439   2.594   0.634   1.064
 2040SOL    HW1 6440   2.653   0.608   0.988
 2040SOL    HW2 6441   2.566   0.730   1.053
 2041SOL     OW 6442   3.590   0.935   1.854
 2041SOL    HW1 6443   3.544   0.928   1.765
 2041SOL    HW2 6444   3.528   0.979   1.920
 2042SOL     OW 6445   2.169   0.063   0.618
 2042SOL    HW1 6446   2.158   0.157   0.651
 2042SOL    HW2 6447   2.164   0.000   0.695
 2043SOL     OW 6448   3.484   0.367   0.374
 2043SOL    HW1 6449   3.486   0.291   0.438
 2043SOL    HW2 6450   3.436   0.444   0.414
 2044SOL     OW 6451   2.885   0.766   0.966
 2044SOL    HW1 6452   2.900   0.787   1.062
 2044SOL    HW2 6453   2.855   0.671   0.957
 2045SOL     OW 6454   2.842   1.573   1.700
 2045SOL    HW1 6455   2.822   1.617   1.612
 2045SOL    HW2 6456   2.881   1.482   1.684
 2046SOL     OW 6457   3.721   1.518   1.605
 2046SOL    HW1 6458   3.735   1.545   1.510
 2046SOL    HW2 6459   3.804   1.540   1.658
 2047SOL     OW 6460   2.212   0.898   1.804
 2047SOL    HW1 6461   2.288   0.942   1.852
 2047SOL    HW2 6462   2.247   0.851   1.722
 2048SOL     OW 6463   3.402   0.274   0.125
 2048SOL    HW1 6464   3.341   0.199   0.148
 2048SOL    HW2 6465   3.424   0.326   0.208
 2049SOL     OW 6466   3.165   0.838   0.042
 2049SOL    HW1 6467   3.199   0.745   0.057
 2049SOL    HW2 6468   3.183   0.865  -0.053
 2050SOL     OW 6469   2.930   1.333   0.849
 2050SOL    HW1 6470   2.937   1.249   0.794
 2050SOL    HW2 6471   2.992   1.402   0.813
 2051SOL     OW 6472   2.181   0.810   0.949
 2051SOL    HW1 6473   2.274   0.846   0.954
 2051SOL    HW2 6474   2.175   0.725   1.001
 2052SOL     OW 6475   2.201   0.509   1.006
 2052SOL    HW1 6476   2.149   0.426   0.989
 2052SOL    HW2 6477   2.278   0.514   0.942
 2053SOL     OW 6478   3.000   0.380   1.678
 2053SOL    HW1 6479   2.955   0.443   1.742
 2053SOL    HW2 6480   3.093   0.411   1.661
 2054SOL     OW 6481   3.022   0.207   1.477
 2054SOL    HW1 6482   3.022   0.271   1.554
 2054SOL    HW2 6483   3.050   0.255   1.394
 2055SOL     OW 6484   1.870   1.326   0.200
 2055SOL    HW1 6485   1.777   1.347   0.169
 2055SOL    HW2 6486   1.880   1.227   0.213
 2056SOL     OW 6487   1.950   1.801   0.927
 2056SOL    HW1 6488   1.908   1.715   0.900
 2056SOL    HW2 6489   2.044   1.804   0.893
 2057SOL     OW 6490   2.366   1.568   0.910
 2057SOL    HW1 6491   2.432   1.642   0.919
 2057SOL    HW2 6492   2.410   1.489   0.868
 2058SOL     OW 6493   2.864   0.796   1.238
 2058SOL    HW1 6494   2.905   0.764   1.324
 2058SOL    HW2 6495   2.768   0.769   1.235
 2059SOL     OW 6496   1.902   0.544   1.114
 2059SOL    HW1 6497   1.987   0.511   1.073
 2059SOL    HW2 6498   1.915   0.559   1.212
 2060SOL     OW 6499   2.051   0.520   1.722
 2060SOL    HW1 6500   2.110   0.480   1.652
 2060SOL    HW2 6501   1.993   0.591   1.681
 2061SOL     OW 6502   3.231   0.950   1.660
 2061SOL    HW1 6503   3.270   1.039   1.680
 2061SOL    HW2 6504   3.241   0.930   1.563
 2062SOL     OW 6505   2.677   0.572   0.325
 2062SOL    HW1 6506   2.684   0.483   0.279
 2062SOL    HW2 6507   2.583   0.606   0.317
 2063SOL     OW 6508   3.519   0.604   1.206
 2063SOL    HW1 6509   3.481   0.535   1.268
 2063SOL    HW2 6510   3.601   0.568   1.162
 2064SOL     OW 6511   2.114   1.564   1.744
 2064SOL    HW1 6512   2.084   1.621   1.820
 2064SOL    HW2 6513   2.107   1.467   1.770
 2065SOL     OW 6514   2.533   0.464   1.269
 2065SOL    HW1 6515   2.499   0.375   1.239
 2065SOL    HW2 6516   2.559   0.518   1.189
 2066SOL     OW 6517   2.792   1.678   1.465
 2066SOL    HW1 6518   2.768   1.660   1.370
 2066SOL    HW2 6519   2.822   1.772   1.475
 2067SOL     OW 6520   2.335   0.500   0.191
 2067SOL    HW1 6521   2.396   0.580   0.195
 2067SOL    HW2 6522   2.240   0.531   0.198
 2068SOL     OW 6523   2.021   1.137   1.466
 2068SOL    HW1 6524   2.043   1.076   1.542
 2068SOL    HW2 6525   2.031   1.088   1.380
 2069SOL     OW 6526   3.209   1.059   1.234
 2069SOL    HW1 6527   3.233   0.996   1.160
 2069SOL    HW2 6528   3.119   1.099   1.216
 2070SOL     OW 6529   3.164   0.855   0.309
 2070SOL    HW1 6530   3.078   0.824   0.351
 2070SOL    HW2 6531   3.160   0.841   0.210
 2071SOL     OW 6532   3.621   1.747   1.154
 2071SOL    HW1 6533   3.682   1.777   1.081
 2071SOL    HW2 6534   3.583   1.658   1.132
 2072SOL     OW 6535   3.114   1.731   1.128
 2072SOL    HW1 6536   3.198   1.736   1.074
 2072SOL    HW2 6537   3.091   1.635   1.146
 2073SOL     OW 6538   1.945   1.258   1.022
 2073SOL    HW1 6539   1.940   1.257   1.122
 2073SOL    HW2 6540   1.862   1.217   0.984
 2074SOL     OW 6541   2.550   1.662   1.716
 2074SOL    HW1 6542   2.494   1.743   1.725
 2074SOL    HW2 6543   2.602   1.666   1.630
 2075SOL     OW 6544   2.765   0.086   0.133
 2075SOL    HW1 6545   2.816   0.087   0.047
 2075SOL    HW2 6546   2.821   0.044   0.204
 2076SOL     OW 6547   3.588   0.135   0.523
 2076SOL    HW1 6548   3.661   0.118   0.456
 2076SOL    HW2 6549   3.557   0.048   0.561
 2077SOL     OW 6550   3.250   1.573   0.477
 2077SOL    HW1 6551   3.317   1.585   0.403
 2077SOL    HW2 6552   3.210   1.662   0.500
 2078SOL     OW 6553   1.992   1.794   1.851
 2078SOL    HW1 6554   1.951   1.720   1.904
 2078SOL    HW2 6555   2.056   1.845   1.909
 2079SOL     OW 6556   3.142   0.927   0.672
 2079SOL    HW1 6557   3.202   0.846   0.674
 2079SOL    HW2 6558   3.182   0.996   0.612
 2080SOL     OW 6559   2.692   1.273   1.422
 2080SOL    HW1 6560   2.687   1.306   1.517
 2080SOL    HW2 6561   2.606   1.292   1.376
 2081SOL     OW 6562   2.534   1.616   0.154
 2081SOL    HW1 6563   2.543   1.626   0.055
 2081SOL    HW2 6564   2.494   1.527   0.175
 2082SOL     OW 6565   3.512   1.720   1.394
 2082SOL    HW1 6566   3.565   1.730   1.310
 2082SOL    HW2 6567   3.485   1.810   1.428
 2083SOL     OW 6568   3.703   0.175   0.963
 2083SOL    HW1 6569   3.742   0.090   0.927
 2083SOL    HW2 6570   3.605   0.177   0.944
 2084SOL     OW 6571   2.125   0.326   0.720
 2084SOL    HW1 6572   2.046   0.377   0.686
 2084SOL    HW2 6573   2.116   0.311   0.818
 2085SOL     OW 6574   3.056   1.612   0.031
 2085SOL    HW1 6575   3.062   1.519   0.068
 2085SOL    HW2 6576   2.997   1.612  -0.049
 2086SOL     OW 6577   2.684   1.002   1.372
 2086SOL    HW1 6578   2.724   1.001   1.280
 2086SOL    HW2 6579   2.694   1.094   1.412
 2087SOL     OW 6580   2.778   0.910   0.291
 2087SOL    HW1 6581   2.841   0.948   0.223
 2087SOL    HW2 6582   2.818   0.827   0.330
 2088SOL     OW 6583   3.366   1.607   0.044
 2088SOL    HW1 6584   3.274   1.644   0.051
 2088SOL    HW2 6585   3.404   1.627  -0.046
 2089SOL     OW 6586   2.234   1.288   1.490
 2089SOL    HW1 6587   2.221   1.381   1.456
 2089SOL    HW2 6588   2.150   1.236   1.477
 2090SOL     OW 6589   3.476   1.292   1.289
 2090SOL    HW1 6590   3.536   1.295   1.369
 2090SOL    HW2 6591   3.401   1.356   1.302
 2091SOL     OW 6592   2.901   1.098   0.696
 2091SOL    HW1 6593   2.831   1.051   0.750
 2091SOL    HW2 6594   2.960   1.030   0.653
 2092SOL     OW 6595   2.876   0.236   0.971
 2092SOL    HW1 6596   2.868   0.200   0.878
 2092SOL    HW2 6597   2.874   0.160   1.036
 2093SOL     OW 6598   2.452   1.487   0.491
 2093SOL    HW1 6599   2.494   1.429   0.421
 2093SOL    HW2 6600   2.408   1.566   0.447
 2094SOL     OW 6601   3.571   0.385   1.381
 2094SOL    HW1 6602   3.644   0.454   1.385
 2094SOL    HW2 6603   3.599   0.310   1.322
 2095SOL     OW 6604   2.117   1.348   0.290
 2095SOL    HW1 6605   2.021   1.349   0.263
 2095SOL    HW2 6606   2.129   1.401   0.374
 2096SOL     OW 6607   1.967   1.013   1.726
 2096SOL    HW1 6608   1.890   0.980   1.780
 2096SOL    HW2 6609   2.052   0.983   1.768
 2097SOL     OW 6610   2.534   0.203   1.489
 2097SOL    HW1 6611   2.624   0.187   1.449
 2097SOL    HW2 6612   2.542   0.208   1.588
 2098SOL     OW 6613   1.937   0.345   0.033
 2098SOL    HW1 6614   1.845   0.317   0.004
 2098SOL    HW2 6615   1.968   0.422  -0.023
 2099SOL     OW 6616   3.302   0.856   1.398
 2099SOL    HW1 6617   3.245   0.908   1.335
 2099SOL    HW2 6618   3.398   0.868   1.374
 2100SOL     OW 6619   1.934   0.166   0.318
 2100SOL    HW1 6620   1.917   0.249   0.264
 2100SOL    HW2 6621   2.024   0.129   0.296
 2101SOL     OW 6622   3.045   1.335   0.119
 2101SOL    HW1 6623   2.946   1.324   0.121
 2101SOL    HW2 6624   3.079   1.350   0.212
 2102SOL     OW 6625   2.475   0.842   1.431
 2102SOL    HW1 6626   2.531   0.923   1.414
 2102SOL    HW2 6627   2.534   0.762   1.434
 2103SOL     OW 6628   3.355   1.767   0.959
 2103SOL    HW1 6629   3.388   1.831   0.890
 2103SOL    HW2 6630   3.421   1.761   1.034
 2104SOL     OW 6631   2.578   0.565   1.708
 2104SOL    HW1 6632   2.597   0.630   1.782
 2104SOL    HW2 6633   2.638   0.485   1.717
 2105SOL     OW 6634   3.312   1.220   1.633
 2105SOL    HW1 6635   3.303   1.210   1.732
 2105SOL    HW2 6636   3.408   1.213   1.607
 2106SOL     OW 6637   2.252   1.741   1.560
 2106SOL    HW1 6638   2.161   1.782   1.558
 2106SOL    HW2 6639   2.245   1.647   1.592
 2107SOL     OW 6640   3.536   0.883   1.254
 2107SOL    HW1 6641   3.509   0.794   1.217
 2107SOL    HW2 6642   3.537   0.951   1.181
 2108SOL     OW 6643   3.087   0.325   0.449
 2108SOL    HW1 6644   3.152   0.251   0.438
 2108SOL    HW2 6645   3.107   0.375   0.533
 2109SOL     OW 6646   2.456   0.745   0.652
 2109SOL    HW1 6647   2.506   0.830   0.633
 2109SOL    HW2 6648   2.368   0.747   0.604
 2110SOL     OW 6649   3.639   0.342   1.642
 2110SOL    HW1 6650   3.622   0.373   1.548
 2110SOL    HW2 6651   3.555   0.305   1.680
 2111SOL     OW 6652   3.592   0.934   1.517
 2111SOL    HW1 6653   3.630   1.025   1.532
 2111SOL    HW2 6654   3.584   0.917   1.418
 2112SOL     OW 6655   2.721   1.374   0.016
 2112SOL    HW1 6656   2.675   1.389   0.104
 2112SOL    HW2 6657   2.765   1.459  -0.014
 2113SOL     OW 6658   2.523   1.790   0.953
 2113SOL    HW1 6659   2.477   1.878   0.940
 2113SOL    HW2 6660   2.622   1.802   0.946
 2114SOL     OW 6661   2.721   0.956   0.861
 2114SOL    HW1 6662   2.775   0.887   0.909
 2114SOL    HW2 6663   2.689   1.025   0.927
 2115SOL     OW 6664   2.945   0.984   0.087
 2115SOL    HW1 6665   2.922   1.037   0.005
 2115SOL    HW2 6666   3.026   0.928   0.068
 2116SOL     OW 6667   3.723   1.569   0.851
 2116SOL    HW1 6668   3.652   1.557   0.781
 2116SOL    HW2 6669   3.724   1.490   0.911
 2117SOL     OW 6670   2.083   1.314   1.844
 2117SOL    HW1 6671   2.018   1.241   1.823
 2117SOL    HW2 6672   2.087   1.328   1.942
 2118SOL     OW 6673   1.941   1.240   0.653
 2118SOL    HW1 6674   1.940   1.193   0.741
 2118SOL    HW2 6675   2.023   1.212   0.602
 2119SOL     OW 6676   2.534   1.391   1.624
 2119SOL    HW1 6677   2.456   1.341   1.662
 2119SOL    HW2 6678   2.531   1.486   1.655
 2120SOL     OW 6679   3.686   0.192   1.227
 2120SOL    HW1 6680   3.682   0.102   1.271
 2120SOL    HW2 6681   3.689   0.181   1.128
 2121SOL     OW 6682   2.290   0.424   0.520
 2121SOL    HW1 6683   2.320   0.352   0.458
 2121SOL    HW2 6684   2.251   0.384   0.603
 2122SOL     OW 6685   3.567   1.487   1.104
 2122SOL    HW1 6686   3.474   1.462   1.077
 2122SOL    HW2 6687   3.593   1.437   1.186
 2123SOL     OW 6688   2.179   0.547   1.280
 2123SOL    HW1 6689   2.217   0.488   1.352
 2123SOL    HW2 6690   2.219   0.521   1.192
 2124SOL     OW 6691   2.674   1.586   0.687
 2124SOL    HW1 6692   2.706   1.596   0.593
 2124SOL    HW2 6693   2.595   1.524   0.689
 2125SOL     OW 6694   3.286   0.214   1.112
 2125SOL    HW1 6695   3.338   0.149   1.167
 2125SOL    HW2 6696   3.237   0.277   1.173
 2126SOL     OW 6697   2.863   0.034   1.154
 2126SOL    HW1 6698   2.800  -0.038   1.123
 2126SOL    HW2 6699   2.956  -0.002   1.154
 2127SOL     OW 6700   2.632   1.330   0.301
 2127SOL    HW1 6701   2.586   1.243   0.318
 2127SOL    HW2 6702   2.723   1.327   0.342
 2128SOL     OW 6703   2.480   1.567   1.284
 2128SOL    HW1 6704   2.475   1.649   1.341
 2128SOL    HW2 6705   2.569   1.564   1.239
 2129SOL     OW 6706   3.214   0.052   0.168
 2129SOL    HW1 6707   3.249   0.011   0.084
 2129SOL    HW2 6708   3.124   0.014   0.188
 2130SOL     OW 6709   3.162   0.453   0.691
 2130SOL    HW1 6710   3.103   0.533   0.695
 2130SOL    HW2 6711   3.177   0.418   0.784
 2131SOL     OW 6712   3.455   0.221   0.882
 2131SOL    HW1 6713   3.371   0.220   0.936
 2131SOL    HW2 6714   3.457   0.304   0.826
 2132SOL     OW 6715   1.901   1.077   0.300
 2132SOL    HW1 6716   2.000   1.066   0.291
 2132SOL    HW2 6717   1.861   0.991   0.332
 2133SOL     OW 6718   2.737   1.646   0.337
 2133SOL    HW1 6719   2.660   1.611   0.283
 2133SOL    HW2 6720   2.705   1.717   0.399
 2134SOL     OW 6721   2.092   0.628   1.975
 2134SOL    HW1 6722   1.999   0.626   2.012
 2134SOL    HW2 6723   2.093   0.589   1.883
 2135SOL     OW 6724   2.087   0.275   2.858
 2135SOL    HW1 6725   2.122   0.258   2.950
 2135SOL    HW2 6726   1.999   0.230   2.846
 2136SOL     OW 6727   1.881   0.368   2.509
 2136SOL    HW1 6728   1.799   0.411   2.548
 2136SOL    HW2 6729   1.853   0.295   2.446
 2137SOL     OW 6730   2.431   1.275   3.027
 2137SOL    HW1 6731   2.338   1.268   2.990
 2137SOL    HW2 6732   2.442   1.364   3.071
 2138SOL     OW 6733   3.417   1.511   2.565
 2138SOL    HW1 6734   3.360   1.495   2.646
 2138SOL    HW2 6735   3.358   1.521   2.485
 2139SOL     OW 6736   2.997   0.703   2.579
 2139SOL    HW1 6737   3.054   0.781   2.554
 2139SOL    HW2 6738   2.937   0.729   2.655
 2140SOL     OW 6739   3.617   0.607   2.093
 2140SOL    HW1 6740   3.605   0.594   1.994
 2140SOL    HW2 6741   3.587   0.526   2.142
 2141SOL     OW 6742   2.630   1.144   2.885
 2141SOL    HW1 6743   2.552   1.161   2.945
 2141SOL    HW2 6744   2.664   1.231   2.849
 2142SOL     OW 6745   2.712   0.798   3.685
 2142SOL    HW1 6746   2.708   0.874   3.750
 2142SOL    HW2 6747   2.734   0.834   3.594
 2143SOL     OW 6748   2.547   1.012   2.527
 2143SOL    HW1 6749   2.616   0.996   2.597
 2143SOL    HW2 6750   2.474   1.069   2.565
 2144SOL     OW 6751   2.548   1.161   3.665
 2144SOL    HW1 6752   2.608   1.240   3.679
 2144SOL    HW2 6753   2.462   1.192   3.624
 2145SOL     OW 6754   2.197   1.435   2.923
 2145SOL    HW1 6755   2.119   1.404   2.870
 2145SOL    HW2 6756   2.255   1.493   2.866
 2146SOL     OW 6757   3.322   1.505   3.201
 2146SOL    HW1 6758   3.346   1.599   3.227
 2146SOL    HW2 6759   3.306   1.451   3.283
 2147SOL     OW 6760   2.300   0.392   3.361
 2147SOL    HW1 6761   2.382   0.336   3.370
 2147SOL    HW2 6762   2.219   0.334   3.365
 2148SOL     OW 6763   3.465   0.447   2.599
 2148SOL    HW1 6764   3.391   0.493   2.549
 2148SOL    HW2 6765   3.516   0.515   2.652
 2149SOL     OW 6766   2.093   1.713   2.345
 2149SOL    HW1 6767   2.127   1.790   2.399
 2149SOL    HW2 6768   2.137   1.713   2.255
 2150SOL     OW 6769   2.989   1.341   3.552
 2150SOL    HW1 6770   3.036   1.341   3.640
 2150SOL    HW2 6771   2.941   1.254   3.541
 2151SOL     OW 6772   2.092   1.434   2.400
 2151SOL    HW1 6773   2.066   1.530   2.400
 2151SOL    HW2 6774   2.021   1.380   2.445
 2152SOL     OW 6775   2.102   1.091   2.748
 2152SOL    HW1 6776   2.116   1.007   2.800
 2152SOL    HW2 6777   2.047   1.155   2.803
 2153SOL     OW 6778   2.468   0.964   1.985
 2153SOL    HW1 6779   2.475   1.048   1.931
 2153SOL    HW2 6780   2.514   0.977   2.073
 2154SOL     OW 6781   3.456   0.114   3.342
 2154SOL    HW1 6782   3.438   0.181   3.270
 2154SOL    HW2 6783   3.453   0.160   3.431
 2155SOL     OW 6784   1.984   0.643   2.425
 2155SOL    HW1 6785   1.939   0.555   2.442
 2155SOL    HW2 6786   1.983   0.697   2.509
 2156SOL     OW 6787   3.704   1.767   2.221
 2156SOL    HW1 6788   3.758   1.738   2.301
 2156SOL    HW2 6789   3.734   1.857   2.192
 2157SOL     OW 6790   1.889   1.596   1.979
 2157SOL    HW1 6791   1.870   1.500   2.000
 2157SOL    HW2 6792   1.856   1.654   2.054
 2158SOL     OW 6793   3.551   0.922   2.474
 2158SOL    HW1 6794   3.646   0.893   2.482
 2158SOL    HW2 6795   3.543   0.987   2.399
 2159SOL     OW 6796   3.503   1.108   2.294
 2159SOL    HW1 6797   3.589   1.110   2.242
 2159SOL    HW2 6798   3.517   1.155   2.382
 2160SOL     OW 6799   1.975   0.737   3.459
 2160SOL    HW1 6800   2.063   0.724   3.504
 2160SOL    HW2 6801   1.962   0.834   3.437
 2161SOL     OW 6802   2.475   1.365   2.588
 2161SOL    HW1 6803   2.426   1.278   2.597
 2161SOL    HW2 6804   2.452   1.408   2.501
 2162SOL     OW 6805   3.155   1.228   3.285
 2162SOL    HW1 6806   3.192   1.155   3.227
 2162SOL    HW2 6807   3.207   1.233   3.370
 2163SOL     OW 6808   2.671   0.004   2.364
 2163SOL    HW1 6809   2.711   0.095   2.355
 2163SOL    HW2 6810   2.571   0.012   2.370
 2164SOL     OW 6811   2.059   0.976   3.126
 2164SOL    HW1 6812   2.148   0.931   3.112
 2164SOL    HW2 6813   1.986   0.911   3.107
 2165SOL     OW 6814   3.387   0.999   2.052
 2165SOL    HW1 6815   3.324   0.923   2.065
 2165SOL    HW2 6816   3.435   1.017   2.138
 2166SOL     OW 6817   3.049   1.792   3.478
 2166SOL    HW1 6818   3.073   1.852   3.402
 2166SOL    HW2 6819   3.056   1.697   3.448
 2167SOL     OW 6820   2.179   0.251   3.663
 2167SOL    HW1 6821   2.250   0.322   3.669
 2167SOL    HW2 6822   2.091   0.290   3.691
 2168SOL     OW 6823   3.328   1.417   2.815
 2168SOL    HW1 6824   3.269   1.423   2.895
 2168SOL    HW2 6825   3.313   1.329   2.769
 2169SOL     OW 6826   3.529   1.714   2.434
 2169SOL    HW1 6827   3.488   1.691   2.346
 2169SOL    HW2 6828   3.511   1.640   2.499
 2170SOL     OW 6829   2.460   0.729   2.132
 2170SOL    HW1 6830   2.484   0.798   2.064
 2170SOL    HW2 6831   2.382   0.762   2.186
 2171SOL     OW 6832   3.143   0.345   2.806
 2171SOL    HW1 6833   3.057   0.295   2.793
 2171SOL    HW2 6834   3.205   0.291   2.862
 2172SOL     OW 6835   3.438   1.662   2.169
 2172SOL    HW1 6836   3.527   1.708   2.172
 2172SOL    HW2 6837   3.417   1.638   2.074
 2173SOL     OW 6838   2.669   0.605   3.327
 2173SOL    HW1 6839   2.622   0.602   3.416
 2173SOL    HW2 6840   2.618   0.550   3.261
 2174SOL     OW 6841   3.256   0.469   3.536
 2174SOL    HW1 6842   3.236   0.512   3.624
 2174SOL    HW2 6843   3.334   0.407   3.545
 2175SOL     OW 6844   2.835   0.890   3.434
 2175SOL    HW1 6845   2.881   0.806   3.405
 2175SOL    HW2 6846   2.779   0.924   3.359
 2176SOL     OW 6847   2.853   0.410   3.104
 2176SOL    HW1 6848   2.776   0.444   3.158
 2176SOL    HW2 6849   2.819   0.359   3.025
 2177SOL     OW 6850   2.903   0.701   2.291
 2177SOL    HW1 6851   2.929   0.697   2.387
 2177SOL    HW2 6852   2.818   0.650   2.277
 2178SOL     OW 6853   1.938   0.811   2.651
 2178SOL    HW1 6854   2.037   0.799   2.660
 2178SOL    HW2 6855   1.914   0.906   2.672
 2179SOL     OW 6856   1.992   1.821   3.433
 2179SOL    HW1 6857   1.982   1.806   3.532
 2179SOL    HW2 6858   1.906   1.857   3.397
 2180SOL     OW 6859   2.727   0.348   2.057
 2180SOL    HW1 6860   2.786   0.411   2.008
 2180SOL    HW2 6861   2.746   0.254   2.028
 2181SOL     OW 6862   3.581   0.585   3.693
 2181SOL    HW1 6863   3.555   0.674   3.657
 2181SOL    HW2 6864   3.579   0.517   3.620
 2182SOL     OW 6865   3.224   1.144   2.407
 2182SOL    HW1 6866   3.307   1.115   2.359
 2182SOL    HW2 6867   3.175   1.211   2.351
 2183SOL     OW 6868   2.412   0.196   2.747
 2183SOL    HW1 6869   2.407   0.191   2.847
 2183SOL    HW2 6870   2.414   0.292   2.718
 2184SOL     OW 6871   2.870   1.456   2.339
 2184SOL    HW1 6872   2.824   1.528   2.287
 2184SOL    HW2 6873   2.866   1.476   2.437
 2185SOL     OW 6874   2.213   1.801   2.715
 2185SOL    HW1 6875   2.263   1.715   2.721
 2185SOL    HW2 6876   2.278   1.878   2.712
 2186SOL     OW 6877   3.657   1.066   2.735
 2186SOL    HW1 6878   3.595   1.051   2.659
 2186SOL    HW2 6879   3.605   1.077   2.820
 2187SOL     OW 6880   3.089   1.550   3.368
 2187SOL    HW1 6881   3.095   1.473   3.432
 2187SOL    HW2 6882   3.037   1.524   3.288
 2188SOL     OW 6883   2.183   0.943   2.104
 2188SOL    HW1 6884   2.265   0.982   2.062
 2188SOL    HW2 6885   2.156   0.861   2.055
 2189SOL     OW 6886   3.320   0.735   2.590
 2189SOL    HW1 6887   3.315   0.670   2.665
 2189SOL    HW2 6888   3.400   0.794   2.603
 2190SOL     OW 6889   2.323   1.266   3.589
 2190SOL    HW1 6890   2.273   1.267   3.503
 2190SOL    HW2 6891   2.260   1.248   3.665
 2191SOL     OW 6892   2.973   1.776   2.099
 2191SOL    HW1 6893   2.913   1.714   2.149
 2191SOL    HW2 6894   3.004   1.732   2.014
 2192SOL     OW 6895   2.064   0.285   3.360
 2192SOL    HW1 6896   1.984   0.345   3.347
 2192SOL    HW2 6897   2.054   0.236   3.446
 2193SOL     OW 6898   3.494   1.377   1.943
 2193SOL    HW1 6899   3.462   1.471   1.933
 2193SOL    HW2 6900   3.418   1.314   1.931
 2194SOL     OW 6901   2.326   1.743   2.185
 2194SOL    HW1 6902   2.359   1.782   2.271
 2194SOL    HW2 6903   2.402   1.736   2.120
 2195SOL     OW 6904   3.262   0.107   2.288
 2195SOL    HW1 6905   3.238   0.070   2.198
 2195SOL    HW2 6906   3.361   0.123   2.292
 2196SOL     OW 6907   2.111   1.785   3.103
 2196SOL    HW1 6908   2.168   1.720   3.153
 2196SOL    HW2 6909   2.095   1.752   3.010
 2197SOL     OW 6910   2.802   1.698   2.766
 2197SOL    HW1 6911   2.882   1.641   2.787
 2197SOL    HW2 6912   2.753   1.658   2.689
 2198SOL     OW 6913   2.244   0.700   2.342
 2198SOL    HW1 6914   2.289   0.610   2.339
 2198SOL    HW2 6915   2.150   0.689   2.375
 2199SOL     OW 6916   3.409   0.222   3.591
 2199SOL    HW1 6917   3.404   0.259   3.683
 2199SOL    HW2 6918   3.337   0.153   3.579
 2200SOL     OW 6919   2.476   0.122   1.979
 2200SOL    HW1 6920   2.574   0.100   1.986
 2200SOL    HW2 6921   2.445   0.105   1.886
 2201SOL     OW 6922   2.643   0.264   3.611
 2201SOL    HW1 6923   2.710   0.203   3.654
 2201SOL    HW2 6924   2.570   0.283   3.676
 2202SOL     OW 6925   2.750   1.514   3.057
 2202SOL    HW1 6926   2.727   1.489   2.963
 2202SOL    HW2 6927   2.811   1.445   3.096
 2203SOL     OW 6928   3.213   0.590   3.295
 2203SOL    HW1 6929   3.241   0.547   3.380
 2203SOL    HW2 6930   3.238   0.686   3.296
 2204SOL     OW 6931   2.665   1.402   2.786
 2204SOL    HW1 6932   2.755   1.416   2.744
 2204SOL    HW2 6933   2.594   1.404   2.715
 2205SOL     OW 6934   2.784   0.503   2.761
 2205SOL    HW1 6935   2.759   0.494   2.665
 2205SOL    HW2 6936   2.832   0.421   2.792
 2206SOL     OW 6937   2.401   0.064   2.374
 2206SOL    HW1 6938   2.320   0.065   2.432
 2206SOL    HW2 6939   2.404   0.147   2.319
 2207SOL     OW 6940   3.296   1.188   1.903
 2207SOL    HW1 6941   3.328   1.112   1.960
 2207SOL    HW2 6942   3.204   1.215   1.933
 2208SOL     OW 6943   2.159   0.035   2.033
 2208SOL    HW1 6944   2.208   0.119   2.012
 2208SOL    HW2 6945   2.221  -0.030   2.078
 2209SOL     OW 6946   2.797   0.236   2.342
 2209SOL    HW1 6947   2.749   0.277   2.264
 2209SOL    HW2 6948   2.896   0.234   2.323
 2210SOL     OW 6949   2.938   0.683   3.326
 2210SOL    HW1 6950   2.858   0.622   3.329
 2210SOL    HW2 6951   3.019   0.630   3.302
 2211SOL     OW 6952   3.089   1.570   2.655
 2211SOL    HW1 6953   3.110   1.644   2.590
 2211SOL    HW2 6954   3.157   1.570   2.728
 2212SOL     OW 6955   2.321   1.152   2.603
 2212SOL    HW1 6956   2.250   1.125   2.668
 2212SOL    HW2 6957   2.295   1.124   2.510
 2213SOL     OW 6958   3.133   1.797   2.453
 2213SOL    HW1 6959   3.177   1.861   2.389
 2213SOL    HW2 6960   3.083   1.849   2.523
 2214SOL     OW 6961   2.894   0.549   1.878
 2214SOL    HW1 6962   2.853   0.631   1.839
 2214SOL    HW2 6963   2.958   0.575   1.951
 2215SOL     OW 6964   1.940   0.556   3.248
 2215SOL    HW1 6965   2.032   0.555   3.207
 2215SOL    HW2 6966   1.934   0.630   3.315
 2216SOL     OW 6967   2.423   0.222   3.009
 2216SOL    HW1 6968   2.461   0.138   3.046
 2216SOL    HW2 6969   2.335   0.241   3.053
 2217SOL     OW 6970   2.728   0.454   2.504
 2217SOL    HW1 6971   2.696   0.526   2.442
 2217SOL    HW2 6972   2.752   0.373   2.451
 2218SOL     OW 6973   2.879   0.039   2.615
 2218SOL    HW1 6974   2.807   0.044   2.546
 2218SOL    HW2 6975   2.855  -0.030   2.684
 2219SOL     OW 6976   3.291   1.173   2.729
 2219SOL    HW1 6977   3.236   1.089   2.722
 2219SOL    HW2 6978   3.317   1.202   2.637
 2220SOL     OW 6979   3.328   0.590   2.854
 2220SOL    HW1 6980   3.298   0.495   2.861
 2220SOL    HW2 6981   3.401   0.606   2.920
 2221SOL     OW 6982   3.719   0.833   2.239
 2221SOL    HW1 6983   3.761   0.769   2.303
 2221SOL    HW2 6984   3.681   0.782   2.161
 2222SOL     OW 6985   2.350   1.385   2.036
 2222SOL    HW1 6986   2.263   1.370   2.083
 2222SOL    HW2 6987   2.333   1.411   1.941
 2223SOL     OW 6988   3.526   1.280   2.519
 2223SOL    HW1 6989   3.625   1.288   2.533
 2223SOL    HW2 6990   3.481   1.364   2.550
 2224SOL     OW 6991   3.252   0.575   1.940
 2224SOL    HW1 6992   3.198   0.554   2.021
 2224SOL    HW2 6993   3.343   0.534   1.949
 2225SOL     OW 6994   2.389   0.256   2.190
 2225SOL    HW1 6995   2.416   0.197   2.115
 2225SOL    HW2 6996   2.389   0.351   2.159
 2226SOL     OW 6997   3.616   1.223   3.450
 2226SOL    HW1 6998   3.707   1.184   3.437
 2226SOL    HW2 6999   3.624   1.319   3.474
 2227SOL     OW 7000   2.926   1.347   3.202
 2227SOL    HW1 7001   2.846   1.324   3.257
 2227SOL    HW2 7002   3.009   1.321   3.251
 2228SOL     OW 7003   3.454   1.629   3.487
 2228SOL    HW1 7004   3.481   1.663   3.397
 2228SOL    HW2 7005   3.533   1.591   3.533
 2229SOL     OW 7006   2.973   1.195   2.962
 2229SOL    HW1 7007   2.933   1.239   3.043
 2229SOL    HW2 7008   2.932   1.232   2.879
 2230SOL     OW 7009   3.500   1.099   2.941
 2230SOL    HW1 7010   3.505   1.180   3.000
 2230SOL    HW2 7011   3.414   1.101   2.890
 2231SOL     OW 7012   2.777   0.089   3.264
 2231SOL    HW1 7013   2.802   0.069   3.169
 2231SOL    HW2 7014   2.849   0.145   3.306
 2232SOL     OW 7015   2.842   1.116   3.581
 2232SOL    HW1 7016   2.743   1.122   3.591
 2232SOL    HW2 7017   2.865   1.036   3.525
 2233SOL     OW 7018   2.567   1.050   2.230
 2233SOL    HW1 7019   2.553   1.057   2.329
 2233SOL    HW2 7020   2.651   0.999   2.212
 2234SOL     OW 7021   2.272   0.813   3.113
 2234SOL    HW1 7022   2.358   0.825   3.163
 2234SOL    HW2 7023   2.230   0.726   3.140
 2235SOL     OW 7024   3.136   0.386   3.124
 2235SOL    HW1 7025   3.157   0.460   3.188
 2235SOL    HW2 7026   3.047   0.403   3.081
 2236SOL     OW 7027   1.926   1.564   3.193
 2236SOL    HW1 7028   1.880   1.646   3.159
 2236SOL    HW2 7029   2.024   1.583   3.202
 2237SOL     OW 7030   2.229   1.100   2.363
 2237SOL    HW1 7031   2.222   1.183   2.307
 2237SOL    HW2 7032   2.233   1.020   2.303
 2238SOL     OW 7033   2.428   0.537   2.727
 2238SOL    HW1 7034   2.440   0.603   2.653
 2238SOL    HW2 7035   2.474   0.571   2.810
 2239SOL     OW 7036   3.114   1.348   2.250
 2239SOL    HW1 7037   3.164   1.425   2.290
 2239SOL    HW2 7038   3.019   1.350   2.282
 2240SOL     OW 7039   3.134   1.445   3.004
 2240SOL    HW1 7040   3.181   1.458   3.091
 2240SOL    HW2 7041   3.068   1.371   3.013
 2241SOL     OW 7042   3.444   0.639   2.334
 2241SOL    HW1 7043   3.413   0.700   2.407
 2241SOL    HW2 7044   3.494   0.691   2.265
 2242SOL     OW 7045   2.216   1.510   3.191
 2242SOL    HW1 7046   2.195   1.466   3.104
 2242SOL    HW2 7047   2.313   1.536   3.194
 2243SOL     OW 7048   2.264   0.751   3.460
 2243SOL    HW1 7049   2.332   0.806   3.413
 2243SOL    HW2 7050   2.304   0.663   3.487
 2244SOL     OW 7051   3.449   0.779   3.532
 2244SOL    HW1 7052   3.357   0.817   3.527
 2244SOL    HW2 7053   3.509   0.826   3.467
 2245SOL     OW 7054   2.875   0.105   3.632
 2245SOL    HW1 7055   2.881   0.190   3.580
 2245SOL    HW2 7056   2.907   0.029   3.575
 2246SOL     OW 7057   2.366   0.050   3.602
 2246SOL    HW1 7058   2.324  -0.007   3.532
 2246SOL    HW2 7059   2.300   0.119   3.634
 2247SOL     OW 7060   2.435   0.870   2.891
 2247SOL    HW1 7061   2.479   0.959   2.882
 2247SOL    HW2 7062   2.372   0.870   2.968
 2248SOL     OW 7063   3.222   0.862   2.907
 2248SOL    HW1 7064   3.147   0.862   2.841
 2248SOL    HW2 7065   3.259   0.770   2.916
 2249SOL     OW 7066   3.071   0.525   2.137
 2249SOL    HW1 7067   3.084   0.441   2.191
 2249SOL    HW2 7068   3.042   0.599   2.197
 2250SOL     OW 7069   2.169   0.213   3.093
 2250SOL    HW1 7070   2.146   0.250   3.183
 2250SOL    HW2 7071   2.139   0.118   3.087
 2251SOL     OW 7072   1.899   1.310   3.144
 2251SOL    HW1 7073   1.952   1.261   3.212
 2251SOL    HW2 7074   1.921   1.408   3.149
 2252SOL     OW 7075   2.594   0.634   2.926
 2252SOL    HW1 7076   2.653   0.608   2.850
 2252SOL    HW2 7077   2.566   0.730   2.915
 2253SOL     OW 7078   3.590   0.935   3.716
 2253SOL    HW1 7079   3.544   0.928   3.627
 2253SOL    HW2 7080   3.528   0.979   3.782
 2254SOL     OW 7081   2.169   0.063   2.480
 2254SOL    HW1 7082   2.158   0.157   2.513
 2254SOL    HW2 7083   2.164   0.000   2.557
 2255SOL     OW 7084   3.484   0.367   2.236
 2255SOL    HW1 7085   3.486   0.291   2.300
 2255SOL    HW2 7086   3.436   0.444   2.276
 2256SOL     OW 7087   2.885   0.766   2.828
 2256SOL    HW1 7088   2.900   0.787   2.924
 2256SOL    HW2 7089   2.855   0.671   2.819
 2257SOL     OW 7090   2.842   1.573   3.562
 2257SOL    HW1 7091   2.822   1.617   3.474
 2257SOL    HW2 7092   2.881   1.482   3.546
 2258SOL     OW 7093   3.721   1.518   3.467
 2258SOL    HW1 7094   3.735   1.545   3.372
 2258SOL    HW2 7095   3.804   1.540   3.520
 2259SOL     OW 7096   2.212   0.898   3.666
 2259SOL    HW1 7097   2.288   0.942   3.714
 2259SOL    HW2 7098   2.247   0.851   3.584
 2260SOL     OW 7099   3.402   0.274   1.987
 2260SOL    HW1 7100   3.341   0.199   2.010
 2260SOL    HW2 7101   3.424   0.326   2.070
 2261SOL     OW 7102   3.165   0.838   1.904
 2261SOL    HW1 7103   3.199   0.745   1.919
 2261SOL    HW2 7104   3.183   0.865   1.809
 2262SOL     OW 7105   2.930   1.333   2.711
 2262SOL    HW1 7106   2.937   1.249   2.656
 2262SOL    HW2 7107   2.992   1.402   2.675
 2263SOL     OW 7108   2.181   0.810   2.811
 2263SOL    HW1 7109   2.274   0.846   2.816
 2263SOL    HW2 7110   2.175   0.725   2.863
 2264SOL     OW 7111   2.201   0.509   2.868
 2264SOL    HW1 7112   2.149   0.426   2.851
 2264SOL    HW2 7113   2.278   0.514   2.804
 2265SOL     OW 7114   3.000   0.380   3.540
 2265SOL    HW1 7115   2.955   0.443   3.604
 2265SOL    HW2 7116   3.093   0.411   3.523
 2266SOL     OW 7117   3.022   0.207   3.339
 2266SOL    HW1 7118   3.022   0.271   3.416
 2266SOL    HW2 7119   3.050   0.255   3.256
 2267SOL     OW 7120   1.870   1.326   2.062
 2267SOL    HW1 7121   1.777   1.347   2.031
 2267SOL    HW2 7122   1.880   1.227   2.075
 2268SOL     OW 7123   1.950   1.801   2.789
 2268SOL    HW1 7124   1.908   1.715   2.762
 2268SOL    HW2 7125   2.044   1.804   2.755
 2269SOL     OW 7126   2.366   1.568   2.772
 2269SOL    HW1 7127   2.432   1.642   2.781
 2269SOL    HW2 7128   2.410   1.489   2.730
 2270SOL     OW 7129   2.864   0.796   3.100
 2270SOL    HW1 7130   2.905   0.764   3.186
 2270SOL    HW2 7131   2.768   0.769   3.097
 2271SOL     OW 7132   1.902   0.544   2.976
 2271SOL    HW1 7133   1.987   0.511   2.935
 2271SOL    HW2 7134   1.915   0.559   3.074
 2272SOL     OW 7135   2.051   0.520   3.584
 2272SOL    HW1 7136   2.110   0.480   3.514
 2272SOL    HW2 7137   1.993   0.591   3.543
 2273SOL     OW 7138   3.231   0.950   3.522
 2273SOL    HW1 7139   3.270   1.039   3.542
 2273SOL    HW2 7140   3.241   0.930   3.425
 2274SOL     OW 7141   2.677   0.572   2.187
 2274SOL    HW1 7142   2.684   0.483   2.141
 2274SOL    HW2 7143   2.583   0.606   2.179
 2275SOL     OW 7144   3.519   0.604   3.068
 2275SOL    HW1 7145   3.481   0.535   3.130
 2275SOL    HW2 7146   3.601   0.568   3.024
 2276SOL     OW 7147   2.114   1.564   3.606
 2276SOL    HW1 7148   2.084   1.621   3.682
 2276SOL    HW2 7149   2.107   1.467   3.632
 2277SOL     OW 7150   2.533   0.464   3.131
 2277SOL    HW1 7151   2.499   0.375   3.101
 2277SOL    HW2 7152   2.559   0.518   3.051
 2278SOL     OW 7153   2.335   0.500   2.053
 2278SOL    HW1 7154   2.396   0.580   2.057
 2278SOL    HW2 7155   2.240   0.531   2.060
 2279SOL     OW 7156   2.021   1.137   3.328
 2279SOL    HW1 7157   2.043   1.076   3.404
 2279SOL    HW2 7158   2.031   1.088   3.242
 2280SOL     OW 7159   3.209   1.059   3.096
 2280SOL    HW1 7160   3.233   0.996   3.022
 2280SOL    HW2 7161   3.119   1.099   3.078
 2281SOL     OW 7162   3.164   0.855   2.171
 2281SOL    HW1 7163   3.078   0.824   2.213
 2281SOL    HW2 7164   3.160   0.841   2.072
 2282SOL     OW 7165   3.621   1.747   3.016
 2282SOL    HW1 7166   3.682   1.777   2.943
 2282SOL    HW2 7167   3.583   1.658   2.994
 2283SOL     OW 7168   3.114   1.731   2.990
 2283SOL    HW1 7169   3.198   1.736   2.936
 2283SOL    HW2 7170   3.091   1.635   3.008
 2284SOL     OW 7171   1.945   1.258   2.884
 2284SOL    HW1 7172   1.940   1.257   2.984
 2284SOL    HW2 7173   1.862   1.217   2.846
 2285SOL     OW 7174   3.588   0.135   2.385
 2285SOL    HW1 7175   3.661   0.118   2.318
 2285SOL    HW2 7176   3.557   0.048   2.423
 2286SOL     OW 7177   3.250   1.573   2.339
 2286SOL    HW1 7178   3.317   1.585   2.265
 2286SOL    HW2 7179   3.210   1.662   2.362
 2287SOL     OW 7180   3.142   0.927   2.534
 2287SOL    HW1 7181   3.202   0.846   2.536
 2287SOL    HW2 7182   3.182   0.996   2.474
 2288SOL     OW 7183   2.692   1.273   3.284
 2288SOL    HW1 7184   2.687   1.306   3.379
 2288SOL    HW2 7185   2.606   1.292   3.238
 2289SOL     OW 7186   2.534   1.616   2.016
 2289SOL    HW1 7187   2.543   1.626   1.917
 2289SOL    HW2 7188   2.494   1.527   2.037
 2290SOL     OW 7189   3.512   1.720   3.256
 2290SOL    HW1 7190   3.565   1.730   3.172
 2290SOL    HW2 7191   3.485   1.810   3.290
 2291SOL     OW 7192   3.703   0.175   2.825
 2291SOL    HW1 7193   3.742   0.090   2.789
 2291SOL    HW2 7194   3.605   0.177   2.806
 2292SOL     OW 7195   2.125   0.326   2.582
 2292SOL    HW1 7196   2.046   0.377   2.548
 2292SOL    HW2 7197   2.116   0.311   2.680
 2293SOL     OW 7198   3.056   1.612   1.893
 2293SOL    HW1 7199   3.062   1.519   1.930
 2293SOL    HW2 7200   2.997   1.612   1.813
 2294SOL     OW 7201   2.684   1.002   3.234
 2294SOL    HW1 7202   2.724   1.001   3.142
 2294SOL    HW2 7203   2.694   1.094   3.274
 2295SOL     OW 7204   2.778   0.910   2.153
 2295SOL    HW1 7205   2.841   0.948   2.085
 2295SOL    HW2 7206   2.818   0.827   2.192
 2296SOL     OW 7207   3.366   1.607   1.906
 2296SOL    HW1 7208   3.274   1.644   1.913
 2296SOL    HW2 7209   3.404   1.627   1.816
 2297SOL     OW 7210   2.234   1.288   3.352
 2297SOL    HW1 7211   2.221   1.381   3.318
 2297SOL    HW2 7212   2.150   1.236   3.339
 2298SOL     OW 7213   3.476   1.292   3.151
 2298SOL    HW1 7214   3.536   1.295   3.231
 2298SOL    HW2 7215   3.401   1.356   3.164
 2299SOL     OW 7216   2.901   1.098   2.558
 2299SOL    HW1 7217   2.831   1.051   2.612
 2299SOL    HW2 7218   2.960   1.030   2.515
 2300SOL     OW 7219   2.876   0.236   2.833
 2300SOL    HW1 7220   2.868   0.200   2.740
 2300SOL    HW2 7221   2.874   0.160   2.898
 2301SOL     OW 7222   2.452   1.487   2.353
 2301SOL    HW1 7223   2.494   1.429   2.283
 2301SOL    HW2 7224   2.408   1.566   2.309
 2302SOL     OW 7225   3.571   0.385   3.243
 2302SOL    HW1 7226   3.644   0.454   3.247
 2302SOL    HW2 7227   3.599   0.310   3.184
 2303SOL     OW 7228   2.117   1.348   2.152
 2303SOL    HW1 7229   2.021   1.349   2.125
 2303SOL    HW2 7230   2.129   1.401   2.236
 2304SOL     OW 7231   1.967   1.013   3.588
 2304SOL    HW1 7232   1.890   0.980   3.642
 2304SOL    HW2 7233   2.052   0.983   3.630
 2305SOL     OW 7234   2.534   0.203   3.351
 2305SOL    HW1 7235   2.624   0.187   3.311
 2305SOL    HW2 7236   2.542   0.208   3.450
 2306SOL     OW 7237   1.937   0.345   1.895
 2306SOL    HW1 7238   1.845   0.317   1.866
 2306SOL    HW2 7239   1.968   0.422   1.839
 2307SOL     OW 7240   3.302   0.856   3.260
 2307SOL    HW1 7241   3.245   0.908   3.197
 2307SOL    HW2 7242   3.398   0.868   3.236
 2308SOL     OW 7243   1.934   0.166   2.180
 2308SOL    HW1 7244   1.917   0.249   2.126
 2308SOL    HW2 7245   2.024   0.129   2.158
 2309SOL     OW 7246   3.045   1.335   1.981
 2309SOL    HW1 7247   2.946   1.324   1.983
 2309SOL    HW2 7248   3.079   1.350   2.074
 2310SOL     OW 7249   2.475   0.842   3.293
 2310SOL    HW1 7250   2.531   0.923   3.276
 2310SOL    HW2 7251   2.534   0.762   3.296
 2311SOL     OW 7252   3.355   1.767   2.821
 2311SOL    HW1 7253   3.388   1.831   2.752
 2311SOL    HW2 7254   3.421   1.761   2.896
 2312SOL     OW 7255   2.578   0.565   3.570
 2312SOL    HW1 7256   2.597   0.630   3.644
 2312SOL    HW2 7257   2.638   0.485   3.579
 2313SOL     OW 7258   3.312   1.220   3.495
 2313SOL    HW1 7259   3.303   1.210   3.594
 2313SOL    HW2 7260   3.408   1.213   3.469
 2314SOL     OW 7261   2.252   1.741   3.422
 2314SOL    HW1 7262   2.161   1.782   3.420
 2314SOL    HW2 7263   2.245   1.647   3.454
 2315SOL     OW 7264   3.536   0.883   3.116
 2315SOL    HW1 7265   3.509   0.794   3.079
 2315SOL    HW2 7266   3.537   0.951   3.043
 2316SOL     OW 7267   3.087   0.325   2.311
 2316SOL    HW1 7268   3.152   0.251   2.300
 2316SOL    HW2 7269   3.107   0.375   2.395
 2317SOL     OW 7270   2.456   0.745   2.514
 2317SOL    HW1 7271   2.506   0.830   2.495
 2317SOL    HW2 7272   2.368   0.747   2.466
 2318SOL     OW 7273   3.639   0.342   3.504
 2318SOL    HW1 7274   3.622   0.373   3.410
 2318SOL    HW2 7275   3.555   0.305   3.542
 2319SOL     OW 7276   3.592   0.934   3.379
 2319SOL    HW1 7277   3.630   1.025   3.394
 2319SOL    HW2 7278   3.584   0.917   3.280
 2320SOL     OW 7279   2.721   1.374   1.878
 2320SOL    HW1 7280   2.675   1.389   1.966
 2320SOL    HW2 7281   2.765   1.459   1.848
 2321SOL     OW 7282   2.523   1.790   2.815
 2321SOL    HW1 7283   2.477   1.878   2.802
 2321SOL    HW2 7284   2.622   1.802   2.808
 2322SOL     OW 7285   2.721   0.956   2.723
 2322SOL    HW1 7286   2.775   0.887   2.771
 2322SOL    HW2 7287   2.689   1.025   2.789
 2323SOL     OW 7288   2.945   0.984   1.949
 2323SOL    HW1 7289   2.922   1.037   1.867
 2323SOL    HW2 7290   3.026   0.928   1.930
 2324SOL     OW 7291   3.723   1.569   2.713
 2324SOL    HW1 7292   3.652   1.557   2.643
 2324SOL    HW2 7293   3.724   1.490   2.773
 2325SOL     OW 7294   2.083   1.314   3.706
 2325SOL    HW1 7295   2.018   1.241   3.685
 2325SOL    HW2 7296   2.087   1.328   3.804
 2326SOL     OW 7297   1.941   1.240   2.515
 2326SOL    HW1 7298   1.940   1.193   2.603
 2326SOL    HW2 7299   2.023   1.212   2.464
 2327SOL     OW 7300   2.534   1.391   3.486
 2327SOL    HW1 7301   2.456   1.341   3.524
 2327SOL    HW2 7302   2.531   1.486   3.517
 2328SOL     OW 7303   3.686   0.192   3.089
 2328SOL    HW1 7304   3.682   0.102   3.133
 2328SOL    HW2 7305   3.689   0.181   2.990
 2329SOL     OW 7306   2.290   0.424   2.382
 2329SOL    HW1 7307   2.320   0.352   2.320
 2329SOL    HW2 7308   2.251   0.384   2.465
 2330SOL     OW 7309   3.567   1.487   2.966
 2330SOL    HW1 7310   3.474   1.462   2.939
 2330SOL    HW2 7311   3.593   1.437   3.048
 2331SOL     OW 7312   2.179   0.547   3.142
 2331SOL    HW1 7313   2.217   0.488   3.214
 2331SOL    HW2 7314   2.219   0.521   3.054
 2332SOL     OW 7315   2.674   1.586   2.549
 2332SOL    HW1 7316   2.706   1.596   2.455
 2332SOL    HW2 7317   2.595   1.524   2.551
 2333SOL     OW 7318   3.286   0.214   2.974
 2333SOL    HW1 7319   3.338   0.149   3.029
 2333SOL    HW2 7320   3.237   0.277   3.035
 2334SOL     OW 7321   2.863   0.034   3.016
 2334SOL    HW1 7322   2.800  -0.038   2.985
 2334SOL    HW2 7323   2.956  -0.002   3.016
 2335SOL     OW 7324   2.632   1.330   2.163
 2335SOL    HW1 7325   2.586   1.243   2.180
 2335SOL    HW2 7326   2.723   1.327   2.204
 2336SOL     OW 7327   2.480   1.567   3.146
 2336SOL    HW1 7328   2.475   1.649   3.203
 2336SOL    HW2 7329   2.569   1.564   3.101
 2337SOL     OW 7330   3.214   0.052   2.030
 2337SOL    HW1 7331   3.249   0.011   1.946
 2337SOL    HW2 7332   3.124   0.014   2.050
 2338SOL     OW 7333   3.162   0.453   2.553
 2338SOL    HW1 7334   3.103   0.533   2.557
 2338SOL    HW2 7335   3.177   0.418   2.646
 2339SOL     OW 7336   3.455   0.221   2.744
 2339SOL    HW1 7337   3.371   0.220   2.798
 2339SOL    HW2 7338   3.457   0.304   2.688
 2340SOL     OW 7339   1.901   1.077   2.162
 2340SOL    HW1 7340   2.000   1.066   2.153
 2340SOL    HW2 7341   1.861   0.991   2.194
 2341SOL     OW 7342   2.737   1.646   2.199
 2341SOL    HW1 7343   2.660   1.611   2.145
 2341SOL    HW2 7344   2.705   1.717   2.261
 2342SOL     OW 7345   2.092   0.628   3.837
 2342SOL    HW1 7346   1.999   0.626   3.874
 2342SOL    HW2 7347   2.093   0.589   3.745
 2343SOL     OW 7348   2.087   0.275   4.720
 2343SOL    HW1 7349   2.122   0.258   4.812
 2343SOL    HW2 7350   1.999   0.230   4.708
 2344SOL     OW 7351   1.881   0.368   4.371
 2344SOL    HW1 7352   1.799   0.411   4.410
 2344SOL    HW2 7353   1.853   0.295   4.308
 2345SOL     OW 7354   2.431   1.275   4.889
 2345SOL    HW1 7355   2.338   1.268   4.852
 2345SOL    HW2 7356   2.442   1.364   4.933
 2346SOL     OW 7357   3.417   1.511   4.427
 2346SOL    HW1 7358   3.360   1.495   4.508
 2346SOL    HW2 7359   3.358   1.521   4.347
 2347SOL     OW 7360   2.997   0.703   4.441
 2347SOL    HW1 7361   3.054   0.781   4.416
 2347SOL    HW2 7362   2.937   0.729   4.517
 2348SOL     OW 7363   3.617   0.607   3.955
 2348SOL    HW1 7364   3.605   0.594   3.856
 2348SOL    HW2 7365   3.587   0.526   4.004
 2349SOL     OW 7366   2.630   1.144   4.747
 2349SOL    HW1 7367   2.552   1.161   4.807
 2349SOL    HW2 7368   2.664   1.231   4.711
 2350SOL     OW 7369   2.712   0.798   5.547
 2350SOL    HW1 7370   2.708   0.874   5.612
 2350SOL    HW2 7371   2.734   0.834   5.456
 2351SOL     OW 7372   2.547   1.012   4.389
 2351SOL    HW1 7373   2.616   0.996   4.459
 2351SOL    HW2 7374   2.474   1.069   4.427
 2352SOL     OW 7375   2.548   1.161   5.527
 2352SOL    HW1 7376   2.608   1.240   5.541
 2352SOL    HW2 7377   2.462   1.192   5.486
 2353SOL     OW 7378   2.197   1.435   4.785
 2353SOL    HW1 7379   2.119   1.404   4.732
 2353SOL    HW2 7380   2.255   1.493   4.728
 2354SOL     OW 7381   3.322   1.505   5.063
 2354SOL    HW1 7382   3.346   1.599   5.089
 2354SOL    HW2 7383   3.306   1.451   5.145
 2355SOL     OW 7384   2.300   0.392   5.223
 2355SOL    HW1 7385   2.382   0.336   5.232
 2355SOL    HW2 7386   2.219   0.334   5.227
 2356SOL     OW 7387   3.465   0.447   4.461
 2356SOL    HW1 7388   3.391   0.493   4.411
 2356SOL    HW2 7389   3.516   0.515   4.514
 2357SOL     OW 7390   2.093   1.713   4.207
 2357SOL    HW1 7391   2.127   1.790   4.261
 2357SOL    HW2 7392   2.137   1.713   4.117
 2358SOL     OW 7393   2.989   1.341   5.414
 2358SOL    HW1 7394   3.036   1.341   5.502
 2358SOL    HW2 7395   2.941   1.254   5.403
 2359SOL     OW 7396   2.092   1.434   4.262
 2359SOL    HW1 7397   2.066   1.530   4.262
 2359SOL    HW2 7398   2.021   1.380   4.307
 2360SOL     OW 7399   2.102   1.091   4.610
 2360SOL    HW1 7400   2.116   1.007   4.662
 2360SOL    HW2 7401   2.047   1.155   4.665
 2361SOL     OW 7402   2.482   1.786   5.163
 2361SOL    HW1 7403   2.390   1.769   5.198
 2361SOL    HW2 7404   2.510   1.878   5.189
 2362SOL     OW 7405   2.468   0.964   3.847
 2362SOL    HW1 7406   2.475   1.048   3.793
 2362SOL    HW2 7407   2.514   0.977   3.935
 2363SOL     OW 7408   3.456   0.114   5.204
 2363SOL    HW1 7409   3.438   0.181   5.132
 2363SOL    HW2 7410   3.453   0.160   5.293
 2364SOL     OW 7411   1.984   0.643   4.287
 2364SOL    HW1 7412   1.939   0.555   4.304
 2364SOL    HW2 7413   1.983   0.697   4.371
 2365SOL     OW 7414   3.704   1.767   4.083
 2365SOL    HW1 7415   3.758   1.738   4.163
 2365SOL    HW2 7416   3.734   1.857   4.054
 2366SOL     OW 7417   1.889   1.596   3.841
 2366SOL    HW1 7418   1.870   1.500   3.862
 2366SOL    HW2 7419   1.856   1.654   3.916
 2367SOL     OW 7420   3.551   0.922   4.336
 2367SOL    HW1 7421   3.646   0.893   4.344
 2367SOL    HW2 7422   3.543   0.987   4.261
 2368SOL     OW 7423   3.503   1.108   4.156
 2368SOL    HW1 7424   3.589   1.110   4.104
 2368SOL    HW2 7425   3.517   1.155   4.244
 2369SOL     OW 7426   1.975   0.737   5.321
 2369SOL    HW1 7427   2.063   0.724   5.366
 2369SOL    HW2 7428   1.962   0.834   5.299
 2370SOL     OW 7429   2.475   1.365   4.450
 2370SOL    HW1 7430   2.426   1.278   4.459
 2370SOL    HW2 7431   2.452   1.408   4.363
 2371SOL     OW 7432   3.155   1.228   5.147
 2371SOL    HW1 7433   3.192   1.155   5.089
 2371SOL    HW2 7434   3.207   1.233   5.232
 2372SOL     OW 7435   2.671   0.004   4.226
 2372SOL    HW1 7436   2.711   0.095   4.217
 2372SOL    HW2 7437   2.571   0.012   4.232
 2373SOL     OW 7438   2.059   0.976   4.988
 2373SOL    HW1 7439   2.148   0.931   4.974
 2373SOL    HW2 7440   1.986   0.911   4.969
 2374SOL     OW 7441   3.387   0.999   3.914
 2374SOL    HW1 7442   3.324   0.923   3.927
 2374SOL    HW2 7443   3.435   1.017   4.000
 2375SOL     OW 7444   3.049   1.792   5.340
 2375SOL    HW1 7445   3.073   1.852   5.264
 2375SOL    HW2 7446   3.056   1.697   5.310
 2376SOL     OW 7447   2.179   0.251   5.525
 2376SOL    HW1 7448   2.250   0.322   5.531
 2376SOL    HW2 7449   2.091   0.290   5.553
 2377SOL     OW 7450   3.328   1.417   4.677
 2377SOL    HW1 7451   3.269   1.423   4.757
 2377SOL    HW2 7452   3.313   1.329   4.631
 2378SOL     OW 7453   3.529   1.714   4.296
 2378SOL    HW1 7454   3.488   1.691   4.208
 2378SOL    HW2 7455   3.511   1.640   4.361
 2379SOL     OW 7456   2.460   0.729   3.994
 2379SOL    HW1 7457   2.484   0.798   3.926
 2379SOL    HW2 7458   2.382   0.762   4.048
 2380SOL     OW 7459   3.143   0.345   4.668
 2380SOL    HW1 7460   3.057   0.295   4.655
 2380SOL    HW2 7461   3.205   0.291   4.724
 2381SOL     OW 7462   3.438   1.662   4.031
 2381SOL    HW1 7463   3.527   1.708   4.034
 2381SOL    HW2 7464   3.417   1.638   3.936
 2382SOL     OW 7465   2.669   0.605   5.189
 2382SOL    HW1 7466   2.622   0.602   5.278
 2382SOL    HW2 7467   2.618   0.550   5.123
 2383SOL     OW 7468   3.256   0.469   5.398
 2383SOL    HW1 7469   3.236   0.512   5.486
 2383SOL    HW2 7470   3.334   0.407   5.407
 2384SOL     OW 7471   2.835   0.890   5.296
 2384SOL    HW1 7472   2.881   0.806   5.267
 2384SOL    HW2 7473   2.779   0.924   5.221
 2385SOL     OW 7474   2.853   0.410   4.966
 2385SOL    HW1 7475   2.776   0.444   5.020
 2385SOL    HW2 7476   2.819   0.359   4.887
 2386SOL     OW 7477   1.938   0.811   4.513
 2386SOL    HW1 7478   2.037   0.799   4.522
 2386SOL    HW2 7479   1.914   0.906   4.534
 2387SOL     OW 7480   1.992   1.821   5.295
 2387SOL    HW1 7481   1.982   1.806   5.394
 2387SOL    HW2 7482   1.906   1.857   5.259
 2388SOL     OW 7483   2.727   0.348   3.919
 2388SOL    HW1 7484   2.786   0.411   3.870
 2388SOL    HW2 7485   2.746   0.254   3.890
 2389SOL     OW 7486   3.581   0.585   5.555
 2389SOL    HW1 7487   3.555   0.674   5.519
 2389SOL    HW2 7488   3.579   0.517   5.482
 2390SOL     OW 7489   3.224   1.144   4.269
 2390SOL    HW1 7490   3.307   1.115   4.221
 2390SOL    HW2 7491   3.175   1.211   4.213
 2391SOL     OW 7492   2.412   0.196   4.609
 2391SOL    HW1 7493   2.407   0.191   4.709
 2391SOL    HW2 7494   2.414   0.292   4.580
 2392SOL     OW 7495   2.870   1.456   4.201
 2392SOL    HW1 7496   2.824   1.528   4.149
 2392SOL    HW2 7497   2.866   1.476   4.299
 2393SOL     OW 7498   2.213   1.801   4.577
 2393SOL    HW1 7499   2.263   1.715   4.583
 2393SOL    HW2 7500   2.278   1.878   4.574
 2394SOL     OW 7501   3.657   1.066   4.597
 2394SOL    HW1 7502   3.595   1.051   4.521
 2394SOL    HW2 7503   3.605   1.077   4.682
 2395SOL     OW 7504   3.089   1.550   5.230
 2395SOL    HW1 7505   3.095   1.473   5.294
 2395SOL    HW2 7506   3.037   1.524   5.150
 2396SOL     OW 7507   2.183   0.943   3.966
 2396SOL    HW1 7508   2.265   0.982   3.924
 2396SOL    HW2 7509   2.156   0.861   3.917
 2397SOL     OW 7510   3.320   0.735   4.452
 2397SOL    HW1 7511   3.315   0.670   4.527
 2397SOL    HW2 7512   3.400   0.794   4.465
 2398SOL     OW 7513   2.323   1.266   5.451
 2398SOL    HW1 7514   2.273   1.267   5.365
 2398SOL    HW2 7515   2.260   1.248   5.527
 2399SOL     OW 7516   2.973   1.776   3.961
 2399SOL    HW1 7517   2.913   1.714   4.011
 2399SOL    HW2 7518   3.004   1.732   3.876
 2400SOL     OW 7519   2.064   0.285   5.222
 2400SOL    HW1 7520   1.984   0.345   5.209
 2400SOL    HW2 7521   2.054   0.236   5.308
 2401SOL     OW 7522   3.494   1.377   3.805
 2401SOL    HW1 7523   3.462   1.471   3.795
 2401SOL    HW2 7524   3.418   1.314   3.793
 2402SOL     OW 7525   2.326   1.743   4.047
 2402SOL    HW1 7526   2.359   1.782   4.133
 2402SOL    HW2 7527   2.402   1.736   3.982
 2403SOL     OW 7528   3.262   0.107   4.150
 2403SOL    HW1 7529   3.238   0.070   4.060
 2403SOL    HW2 7530   3.361   0.123   4.154
 2404SOL     OW 7531   2.111   1.785   4.965
 2404SOL    HW1 7532   2.168   1.720   5.015
 2404SOL    HW2 7533   2.095   1.752   4.872
 2405SOL     OW 7534   2.802   1.698   4.628
 2405SOL    HW1 7535   2.882   1.641   4.649
 2405SOL    HW2 7536   2.753   1.658   4.551
 2406SOL     OW 7537   2.244   0.700   4.204
 2406SOL    HW1 7538   2.289   0.610   4.201
 2406SOL    HW2 7539   2.150   0.689   4.237
 2407SOL     OW 7540   3.409   0.222   5.453
 2407SOL    HW1 7541   3.404   0.259   5.545
 2407SOL    HW2 7542   3.337   0.153   5.441
 2408SOL     OW 7543   2.476   0.122   3.841
 2408SOL    HW1 7544   2.574   0.100   3.848
 2408SOL    HW2 7545   2.445   0.105   3.748
 2409SOL     OW 7546   2.643   0.264   5.473
 2409SOL    HW1 7547   2.710   0.203   5.516
 2409SOL    HW2 7548   2.570   0.283   5.538
 2410SOL     OW 7549   2.750   1.514   4.919
 2410SOL    HW1 7550   2.727   1.489   4.825
 2410SOL    HW2 7551   2.811   1.445   4.958
 2411SOL     OW 7552   3.213   0.590   5.157
 2411SOL    HW1 7553   3.241   0.547   5.242
 2411SOL    HW2 7554   3.238   0.686   5.158
 2412SOL     OW 7555   2.665   1.402   4.648
 2412SOL    HW1 7556   2.755   1.416   4.606
 2412SOL    HW2 7557   2.594   1.404   4.577
 2413SOL     OW 7558   2.784   0.503   4.623
 2413SOL    HW1 7559   2.759   0.494   4.527
 2413SOL    HW2 7560   2.832   0.421   4.654
 2414SOL     OW 7561   2.401   0.064   4.236
 2414SOL    HW1 7562   2.320   0.065   4.294
 2414SOL    HW2 7563   2.404   0.147   4.181
 2415SOL     OW 7564   3.296   1.188   3.765
 2415SOL    HW1 7565   3.328   1.112   3.822
 2415SOL    HW2 7566   3.204   1.215   3.795
 2416SOL     OW 7567   2.159   0.035   3.895
 2416SOL    HW1 7568   2.208   0.119   3.874
 2416SOL    HW2 7569   2.221  -0.030   3.940
 2417SOL     OW 7570   2.797   0.236   4.204
 2417SOL    HW1 7571   2.749   0.277   4.126
 2417SOL    HW2 7572   2.896   0.234   4.185
 2418SOL     OW 7573   2.938   0.683   5.188
 2418SOL    HW1 7574   2.858   0.622   5.191
 2418SOL    HW2 7575   3.019   0.630   5.164
 2419SOL     OW 7576   3.089   1.570   4.517
 2419SOL    HW1 7577   3.110   1.644   4.452
 2419SOL    HW2 7578   3.157   1.570   4.590
 2420SOL     OW 7579   2.321   1.152   4.465
 2420SOL    HW1 7580   2.250   1.125   4.530
 2420SOL    HW2 7581   2.295   1.124   4.372
 2421SOL     OW 7582   3.133   1.797   4.315
 2421SOL    HW1 7583   3.177   1.861   4.251
 2421SOL    HW2 7584   3.083   1.849   4.385
 2422SOL     OW 7585   2.894   0.549   3.740
 2422SOL    HW1 7586   2.853   0.631   3.701
 2422SOL    HW2 7587   2.958   0.575   3.813
 2423SOL     OW 7588   1.940   0.556   5.110
 2423SOL    HW1 7589   2.032   0.555   5.069
 2423SOL    HW2 7590   1.934   0.630   5.177
 2424SOL     OW 7591   2.423   0.222   4.871
 2424SOL    HW1 7592   2.461   0.138   4.908
 2424SOL    HW2 7593   2.335   0.241   4.915
 2425SOL     OW 7594   2.728   0.454   4.366
 2425SOL    HW1 7595   2.696   0.526   4.304
 2425SOL    HW2 7596   2.752   0.373   4.313
 2426SOL     OW 7597   2.879   0.039   4.477
 2426SOL    HW1 7598   2.807   0.044   4.408
 2426SOL    HW2 7599   2.855  -0.030   4.546
 2427SOL     OW 7600   3.291   1.173   4.591
 2427SOL    HW1 7601   3.236   1.089   4.584
 2427SOL    HW2 7602   3.317   1.202   4.499
 2428SOL     OW 7603   3.328   0.590   4.716
 2428SOL    HW1 7604   3.298   0.495   4.723
 2428SOL    HW2 7605   3.401   0.606   4.782
 2429SOL     OW 7606   3.719   0.833   4.101
 2429SOL    HW1 7607   3.761   0.769   4.165
 2429SOL    HW2 7608   3.681   0.782   4.023
 2430SOL     OW 7609   2.350   1.385   3.898
 2430SOL    HW1 7610   2.263   1.370   3.945
 2430SOL    HW2 7611   2.333   1.411   3.803
 2431SOL     OW 7612   3.526   1.280   4.381
 2431SOL    HW1 7613   3.625   1.288   4.395
 2431SOL    HW2 7614   3.481   1.364   4.412
 2432SOL     OW 7615   3.252   0.575   3.802
 2432SOL    HW1 7616   3.198   0.554   3.883
 2432SOL    HW2 7617   3.343   0.534   3.811
 2433SOL     OW 7618   2.389   0.256   4.052
 2433SOL    HW1 7619   2.416   0.197   3.977
 2433SOL    HW2 7620   2.389   0.351   4.021
 2434SOL     OW 7621   3.616   1.223   5.312
 2434SOL    HW1 7622   3.707   1.184   5.299
 2434SOL    HW2 7623   3.624   1.319   5.336
 2435SOL     OW 7624   2.926   1.347   5.064
 2435SOL    HW1 7625   2.846   1.324   5.119
 2435SOL    HW2 7626   3.009   1.321   5.113
 2436SOL     OW 7627   3.454   1.629   5.349
 2436SOL    HW1 7628   3.481   1.663   5.259
 2436SOL    HW2 7629   3.533   1.591   5.395
 2437SOL     OW 7630   2.973   1.195   4.824
 2437SOL    HW1 7631   2.933   1.239   4.905
 2437SOL    HW2 7632   2.932   1.232   4.741
 2438SOL     OW 7633   3.500   1.099   4.803
 2438SOL    HW1 7634   3.505   1.180   4.862
 2438SOL    HW2 7635   3.414   1.101   4.752
 2439SOL     OW 7636   2.777   0.089   5.126
 2439SOL    HW1 7637   2.802   0.069   5.031
 2439SOL    HW2 7638   2.849   0.145   5.168
 2440SOL     OW 7639   2.842   1.116   5.443
 2440SOL    HW1 7640   2.743   1.122   5.453
 2440SOL    HW2 7641   2.865   1.036   5.387
 2441SOL     OW 7642   2.567   1.050   4.092
 2441SOL    HW1 7643   2.553   1.057   4.191
 2441SOL    HW2 7644   2.651   0.999   4.074
 2442SOL     OW 7645   2.272   0.813   4.975
 2442SOL    HW1 7646   2.358   0.825   5.025
 2442SOL    HW2 7647   2.230   0.726   5.002
 2443SOL     OW 7648   3.136   0.386   4.986
 2443SOL    HW1 7649   3.157   0.460   5.050
 2443SOL    HW2 7650   3.047   0.403   4.943
 2444SOL     OW 7651   1.926   1.564   5.055
 2444SOL    HW1 7652   1.880   1.646   5.021
 2444SOL    HW2 7653   2.024   1.583   5.064
 2445SOL     OW 7654   2.229   1.100   4.225
 2445SOL    HW1 7655   2.222   1.183   4.169
 2445SOL    HW2 7656   2.233   1.020   4.165
 2446SOL     OW 7657   2.428   0.537   4.589
 2446SOL    HW1 7658   2.440   0.603   4.515
 2446SOL    HW2 7659   2.474   0.571   4.672
 2447SOL     OW 7660   3.114   1.348   4.112
 2447SOL    HW1 7661   3.164   1.425   4.152
 2447SOL    HW2 7662   3.019   1.350   4.144
 2448SOL     OW 7663   3.134   1.445   4.866
 2448SOL    HW1 7664   3.181   1.458   4.953
 2448SOL    HW2 7665   3.068   1.371   4.875
 2449SOL     OW 7666   3.444   0.639   4.196
 2449SOL    HW1 7667   3.413   0.700   4.269
 2449SOL    HW2 7668   3.494   0.691   4.127
 2450SOL     OW 7669   2.216   1.510   5.053
 2450SOL    HW1 7670   2.195   1.466   4.966
 2450SOL    HW2 7671   2.313   1.536   5.056
 2451SOL     OW 7672   2.264   0.751   5.322
 2451SOL    HW1 7673   2.332   0.806   5.275
 2451SOL    HW2 7674   2.304   0.663   5.349
 2452SOL     OW 7675   3.449   0.779   5.394
 2452SOL    HW1 7676   3.357   0.817   5.389
 2452SOL    HW2 7677   3.509   0.826   5.329
 2453SOL     OW 7678   2.875   0.105   5.494
 2453SOL    HW1 7679   2.881   0.190   5.442
 2453SOL    HW2 7680   2.907   0.029   5.437
 2454SOL     OW 7681   2.366   0.050   5.464
 2454SOL    HW1 7682   2.324  -0.007   5.394
 2454SOL    HW2 7683   2.300   0.119   5.496
 2455SOL     OW 7684   2.435   0.870   4.753
 2455SOL    HW1 7685   2.479   0.959   4.744
 2455SOL    HW2 7686   2.372   0.870   4.830
 2456SOL     OW 7687   3.222   0.862   4.769
 2456SOL    HW1 7688   3.147   0.862   4.703
 2456SOL    HW2 7689   3.259   0.770   4.778
 2457SOL     OW 7690   3.071   0.525   3.999
 2457SOL    HW1 7691   3.084   0.441   4.053
 2457SOL    HW2 7692   3.042   0.599   4.059
 2458SOL     OW 7693   2.169   0.213   4.955
 2458SOL    HW1 7694   2.146   0.250   5.045
 2458SOL    HW2 7695   2.139   0.118   4.949
 2459SOL     OW 7696   1.899   1.310   5.006
 2459SOL    HW1 7697   1.952   1.261   5.074
 2459SOL    HW2 7698   1.921   1.408   5.011
 2460SOL     OW 7699   2.594   0.634   4.788
 2460SOL    HW1 7700   2.653   0.608   4.712
 2460SOL    HW2 7701   2.566   0.730   4.777
 2461SOL     OW 7702   3.590   0.935   5.578
 2461SOL    HW1 7703   3.544   0.928   5.489
 2461SOL    HW2 7704   3.528   0.979   5.644
 2462SOL     OW 7705   2.169   0.063   4.342
 2462SOL    HW1 7706   2.158   0.157   4.375
 2462SOL    HW2 7707   2.164   0.000   4.419
 2463SOL     OW 7708   3.484   0.367   4.098
 2463SOL    HW1 7709   3.486   0.291   4.162
 2463SOL    HW2 7710   3.436   0.444   4.138
 2464SOL     OW 7711   2.885   0.766   4.690
 2464SOL    HW1 7712   2.900   0.787   4.786
 2464SOL    HW2 7713   2.855   0.671   4.681
 2465SOL     OW 7714   2.842   1.573   5.424
 2465SOL    HW1 7715   2.822   1.617   5.336
 2465SOL    HW2 7716   2.881   1.482   5.408
 2466SOL     OW 7717   3.721   1.518   5.329
 2466SOL    HW1 7718   3.735   1.545   5.234
 2466SOL    HW2 7719   3.804   1.540   5.382
 2467SOL     OW 7720   2.212   0.898   5.528
 2467SOL    HW1 7721   2.288   0.942   5.576
 2467SOL    HW2 7722   2.247   0.851   5.446
 2468SOL     OW 7723   3.402   0.274   3.849
 2468SOL    HW1 7724   3.341   0.199   3.872
 2468SOL    HW2 7725   3.424   0.326   3.932
 2469SOL     OW 7726   3.165   0.838   3.766
 2469SOL    HW1 7727   3.199   0.745   3.781
 2469SOL    HW2 7728   3.183   0.865   3.671
 2470SOL     OW 7729   2.930   1.333   4.573
 2470SOL    HW1 7730   2.937   1.249   4.518
 2470SOL    HW2 7731   2.992   1.402   4.537
 2471SOL     OW 7732   2.181   0.810   4.673
 2471SOL    HW1 7733   2.274   0.846   4.678
 2471SOL    HW2 7734   2.175   0.725   4.725
 2472SOL     OW 7735   2.201   0.509   4.730
 2472SOL    HW1 7736   2.149   0.426   4.713
 2472SOL    HW2 7737   2.278   0.514   4.666
 2473SOL     OW 7738   3.000   0.380   5.402
 2473SOL    HW1 7739   2.955   0.443   5.466
 2473SOL    HW2 7740   3.093   0.411   5.385
 2474SOL     OW 7741   3.022   0.207   5.201
 2474SOL    HW1 7742   3.022   0.271   5.278
 2474SOL    HW2 7743   3.050   0.255   5.118
 2475SOL     OW 7744   1.870   1.326   3.924
 2475SOL    HW1 7745   1.777   1.347   3.893
 2475SOL    HW2 7746   1.880   1.227   3.937
 2476SOL     OW 7747   1.950   1.801   4.651
 2476SOL    HW1 7748   1.908   1.715   4.624
 2476SOL    HW2 7749   2.044   1.804   4.617
 2477SOL     OW 7750   2.366   1.568   4.634
 2477SOL    HW1 7751   2.432   1.642   4.643
 2477SOL    HW2 7752   2.410   1.489   4.592
 2478SOL     OW 7753   2.864   0.796   4.962
 2478SOL    HW1 7754   2.905   0.764   5.048
 2478SOL    HW2 7755   2.768   0.769   4.959
 2479SOL     OW 7756   1.902   0.544   4.838
 2479SOL    HW1 7757   1.987   0.511   4.797
 2479SOL    HW2 7758   1.915   0.559   4.936
 2480SOL     OW 7759   2.051   0.520   5.446
 2480SOL    HW1 7760   2.110   0.480   5.376
 2480SOL    HW2 7761   1.993   0.591   5.405
 2481SOL     OW 7762   3.231   0.950   5.384
 2481SOL    HW1 7763   3.270   1.039   5.404
 2481SOL    HW2 7764   3.241   0.930   5.287
 2482SOL     OW 7765   2.677   0.572   4.049
 2482SOL    HW1 7766   2.684   0.483   4.003
 2482SOL    HW2 7767   2.583   0.606   4.041
 2483SOL     OW 7768   3.519   0.604   4.930
 2483SOL    HW1 7769   3.481   0.535   4.992
 2483SOL    HW2 7770   3.601   0.568   4.886
 2484SOL     OW 7771   2.114   1.564   5.468
 2484SOL    HW1 7772   2.084   1.621   5.544
 2484SOL    HW2 7773   2.107   1.467   5.494
 2485SOL     OW 7774   2.533   0.464   4.993
 2485SOL    HW1 7775   2.499   0.375   4.963
 2485SOL    HW2 7776   2.559   0.518   4.913
 2486SOL     OW 7777   2.792   1.678   5.189
 2486SOL    HW1 7778   2.768   1.660   5.094
 2486SOL    HW2 7779   2.822   1.772   5.199
 2487SOL     OW 7780   2.335   0.500   3.915
 2487SOL    HW1 7781   2.396   0.580   3.919
 2487SOL    HW2 7782   2.240   0.531   3.922
 2488SOL     OW 7783   2.021   1.137   5.190
 2488SOL    HW1 7784   2.043   1.076   5.266
 2488SOL    HW2 7785   2.031   1.088   5.104
 2489SOL     OW 7786   3.209   1.059   4.958
 2489SOL    HW1 7787   3.233   0.996   4.884
 2489SOL    HW2 7788   3.119   1.099   4.940
 2490SOL     OW 7789   3.164   0.855   4.033
 2490SOL    HW1 7790   3.078   0.824   4.075
 2490SOL    HW2 7791   3.160   0.841   3.934
 2491SOL     OW 7792   3.621   1.747   4.878
 2491SOL    HW1 7793   3.682   1.777   4.805
 2491SOL    HW2 7794   3.583   1.658   4.856
 2492SOL     OW 7795   3.114   1.731   4.852
 2492SOL    HW1 7796   3.198   1.736   4.798
 2492SOL    HW2 7797   3.091   1.635   4.870
 2493SOL     OW 7798   1.945   1.258   4.746
 2493SOL    HW1 7799   1.940   1.257   4.846
 2493SOL    HW2 7800   1.862   1.217   4.708
 2494SOL     OW 7801   2.550   1.662   5.440
 2494SOL    HW1 7802   2.494   1.743   5.449
 2494SOL    HW2 7803   2.602   1.666   5.354
 2495SOL     OW 7804   3.588   0.135   4.247
 2495SOL    HW1 7805   3.661   0.118   4.180
 2495SOL    HW2 7806   3.557   0.048   4.285
 2496SOL     OW 7807   3.250   1.573   4.201
 2496SOL    HW1 7808   3.317   1.585   4.127
 2496SOL    HW2 7809   3.210   1.662   4.224
 2497SOL     OW 7810   1.992   1.794   5.575
 2497SOL    HW1 7811   1.951   1.720   5.628
 2497SOL    HW2 7812   2.056   1.845   5.633
 2498SOL     OW 7813   3.142   0.927   4.396
 2498SOL    HW1 7814   3.202   0.846   4.398
 2498SOL    HW2 7815   3.182   0.996   4.336
 2499SOL     OW 7816   2.692   1.273   5.146
 2499SOL    HW1 7817   2.687   1.306   5.241
 2499SOL    HW2 7818   2.606   1.292   5.100
 2500SOL     OW 7819   2.534   1.616   3.878
 2500SOL    HW1 7820   2.543   1.626   3.779
 2500SOL    HW2 7821   2.494   1.527   3.899
 2501SOL     OW 7822   3.512   1.720   5.118
 2501SOL    HW1 7823   3.565   1.730   5.034
 2501SOL    HW2 7824   3.485   1.810   5.152
 2502SOL     OW 7825   3.703   0.175   4.687
 2502SOL    HW1 7826   3.742   0.090   4.651
 2502SOL    HW2 7827   3.605   0.177   4.668
 2503SOL     OW 7828   2.125   0.326   4.444
 2503SOL    HW1 7829   2.046   0.377   4.410
 2503SOL    HW2 7830   2.116   0.311   4.542
 2504SOL     OW 7831   3.056   1.612   3.755
 2504SOL    HW1 7832   3.062   1.519   3.792
 2504SOL    HW2 7833   2.997   1.612   3.675
 2505SOL     OW 7834   2.684   1.002   5.096
 2505SOL    HW1 7835   2.724   1.001   5.004
 2505SOL    HW2 7836   2.694   1.094   5.136
 2506SOL     OW 7837   2.778   0.910   4.015
 2506SOL    HW1 7838   2.841   0.948   3.947
 2506SOL    HW2 7839   2.818   0.827   4.054
 2507SOL     OW 7840   3.366   1.607   3.768
 2507SOL    HW1 7841   3.274   1.644   3.775
 2507SOL    HW2 7842   3.404   1.627   3.678
 2508SOL     OW 7843   2.234   1.288   5.214
 2508SOL    HW1 7844   2.221   1.381   5.180
 2508SOL    HW2 7845   2.150   1.236   5.201
 2509SOL     OW 7846   3.476   1.292   5.013
 2509SOL    HW1 7847   3.536   1.295   5.093
 2509SOL    HW2 7848   3.401   1.356   5.026
 2510SOL     OW 7849   2.901   1.098   4.420
 2510SOL    HW1 7850   2.831   1.051   4.474
 2510SOL    HW2 7851   2.960   1.030   4.377
 2511SOL     OW 7852   2.876   0.236   4.695
 2511SOL    HW1 7853   2.868   0.200   4.602
 2511SOL    HW2 7854   2.874   0.160   4.760
 2512SOL     OW 7855   2.452   1.487   4.215
 2512SOL    HW1 7856   2.494   1.429   4.145
 2512SOL    HW2 7857   2.408   1.566   4.171
 2513SOL     OW 7858   3.571   0.385   5.105
 2513SOL    HW1 7859   3.644   0.454   5.109
 2513SOL    HW2 7860   3.599   0.310   5.046
 2514SOL     OW 7861   2.117   1.348   4.014
 2514SOL    HW1 7862   2.021   1.349   3.987
 2514SOL    HW2 7863   2.129   1.401   4.098
 2515SOL     OW 7864   1.967   1.013   5.450
 2515SOL    HW1 7865   1.890   0.980   5.504
 2515SOL    HW2 7866   2.052   0.983   5.492
 2516SOL     OW 7867   2.534   0.203   5.213
 2516SOL    HW1 7868   2.624   0.187   5.173
 2516SOL    HW2 7869   2.542   0.208   5.312
 2517SOL     OW 7870   1.937   0.345   3.757
 2517SOL    HW1 7871   1.845   0.317   3.728
 2517SOL    HW2 7872   1.968   0.422   3.701
 2518SOL     OW 7873   3.302   0.856   5.122
 2518SOL    HW1 7874   3.245   0.908   5.059
 2518SOL    HW2 7875   3.398   0.868   5.098
 2519SOL     OW 7876   1.934   0.166   4.042
 2519SOL    HW1 7877   1.917   0.249   3.988
 2519SOL    HW2 7878   2.024   0.129   4.020
 2520SOL     OW 7879   3.045   1.335   3.843
 2520SOL    HW1 7880   2.946   1.324   3.845
 2520SOL    HW2 7881   3.079   1.350   3.936
 2521SOL     OW 7882   3.355   1.767   4.683
 2521SOL    HW1 7883   3.388   1.831   4.614
 2521SOL    HW2 7884   3.421   1.761   4.758
 2522SOL     OW 7885   2.578   0.565   5.432
 2522SOL    HW1 7886   2.597   0.630   5.506
 2522SOL    HW2 7887   2.638   0.485   5.441
 2523SOL     OW 7888   3.312   1.220   5.357
 2523SOL    HW1 7889   3.303   1.210   5.456
 2523SOL    HW2 7890   3.408   1.213   5.331
 2524SOL     OW 7891   2.252   1.741   5.284
 2524SOL    HW1 7892   2.161   1.782   5.282
 2524SOL    HW2 7893   2.245   1.647   5.316
 2525SOL     OW 7894   3.536   0.883   4.978
 2525SOL    HW1 7895   3.509   0.794   4.941
 2525SOL    HW2 7896   3.537   0.951   4.905
 2526SOL     OW 7897   3.087   0.325   4.173
 2526SOL    HW1 7898   3.152   0.251   4.162
 2526SOL    HW2 7899   3.107   0.375   4.257
 2527SOL     OW 7900   2.456   0.745   4.376
 2527SOL    HW1 7901   2.506   0.830   4.357
 2527SOL    HW2 7902   2.368   0.747   4.328
 2528SOL     OW 7903   3.639   0.342   5.366
 2528SOL    HW1 7904   3.622   0.373   5.272
 2528SOL    HW2 7905   3.555   0.305   5.404
 2529SOL     OW 7906   3.592   0.934   5.241
 2529SOL    HW1 7907   3.630   1.025   5.256
 2529SOL    HW2 7908   3.584   0.917   5.142
 2530SOL     OW 7909   2.721   1.374   3.740
 2530SOL    HW1 7910   2.675   1.389   3.828
 2530SOL    HW2 7911   2.765   1.459   3.710
 2531SOL     OW 7912   2.523   1.790   4.677
 2531SOL    HW1 7913   2.477   1.878   4.664
 2531SOL    HW2 7914   2.622   1.802   4.670
 2532SOL     OW 7915   2.721   0.956   4.585
 2532SOL    HW1 7916   2.775   0.887   4.633
 2532SOL    HW2 7917   2.689   1.025   4.651
 2533SOL     OW 7918   2.945   0.984   3.811
 2533SOL    HW1 7919   2.922   1.037   3.729
 2533SOL    HW2 7920   3.026   0.928   3.792
 2534SOL     OW 7921   3.723   1.569   4.575
 2534SOL    HW1 7922   3.652   1.557   4.505
 2534SOL    HW2 7923   3.724   1.490   4.635
 2535SOL     OW 7924   2.083   1.314   5.568
 2535SOL    HW1 7925   2.018   1.241   5.547
 2535SOL    HW2 7926   2.087   1.328   5.666
 2536SOL     OW 7927   1.941   1.240   4.377
 2536SOL    HW1 7928   1.940   1.193   4.465
 2536SOL    HW2 7929   2.023   1.212   4.326
 2537SOL     OW 7930   2.534   1.391   5.348
 2537SOL    HW1 7931   2.456   1.341   5.386
 2537SOL    HW2 7932   2.531   1.486   5.379
 2538SOL     OW 7933   3.686   0.192   4.951
 2538SOL    HW1 7934   3.682   0.102   4.995
 2538SOL    HW2 7935   3.689   0.181   4.852
 2539SOL     OW 7936   2.290   0.424   4.244
 2539SOL    HW1 7937   2.320   0.352   4.182
 2539SOL    HW2 7938   2.251   0.384   4.327
 2540SOL     OW 7939   3.567   1.487   4.828
 2540SOL    HW1 7940   3.474   1.462   4.801
 2540SOL    HW2 7941   3.593   1.437   4.910
 2541SOL     OW 7942   2.179   0.547   5.004
 2541SOL    HW1 7943   2.217   0.488   5.076
 2541SOL    HW2 7944   2.219   0.521   4.916
 2542SOL     OW 7945   2.674   1.586   4.411
 2542SOL    HW1 7946   2.706   1.596   4.317
 2542SOL    HW2 7947   2.595   1.524   4.413
 2543SOL     OW 7948   3.286   0.214   4.836
 2543SOL    HW1 7949   3.338   0.149   4.891
 2543SOL    HW2 7950   3.237   0.277   4.897
 2544SOL     OW 7951   2.863   0.034   4.878
 2544SOL    HW1 7952   2.800  -0.038   4.847
 2544SOL    HW2 7953   2.956  -0.002   4.878
 2545SOL     OW 7954   2.632   1.330   4.025
 2545SOL    HW1 7955   2.586   1.243   4.042
 2545SOL    HW2 7956   2.723   1.327   4.066
 2546SOL     OW 7957   2.480   1.567   5.008
 2546SOL    HW1 7958   2.475   1.649   5.065
 2546SOL    HW2 7959   2.569   1.564   4.963
 2547SOL     OW 7960   3.214   0.052   3.892
 2547SOL    HW1 7961   3.249   0.011   3.808
 2547SOL    HW2 7962   3.124   0.014   3.912
 2548SOL     OW 7963   3.162   0.453   4.415
 2548SOL    HW1 7964   3.103   0.533   4.419
 2548SOL    HW2 7965   3.177   0.418   4.508
 2549SOL     OW 7966   3.455   0.221   4.606
 2549SOL    HW1 7967   3.371   0.220   4.660
 2549SOL    HW2 7968   3.457   0.304   4.550
 2550SOL     OW 7969   1.901   1.077   4.024
 2550SOL    HW1 7970   2.000   1.066   4.015
 2550SOL    HW2 7971   1.861   0.991   4.056
 2551SOL     OW 7972   2.737   1.646   4.061
 2551SOL    HW1 7973   2.660   1.611   4.007
 2551SOL    HW2 7974   2.705   1.717   4.123
 2552SOL     OW 7975   2.092   2.490   0.113
 2552SOL    HW1 7976   1.999   2.488   0.150
 2552SOL    HW2 7977   2.093   2.451   0.021
 2553SOL     OW 7978   2.087   2.137   0.996
 2553SOL    HW1 7979   2.122   2.120   1.088
 2553SOL    HW2 7980   1.999   2.092   0.984
 2554SOL     OW 7981   1.881   2.230   0.647
 2554SOL    HW1 7982   1.799   2.273   0.686
 2554SOL    HW2 7983   1.853   2.157   0.584
 2555SOL     OW 7984   2.431   3.137   1.165
 2555SOL    HW1 7985   2.338   3.130   1.128
 2555SOL    HW2 7986   2.442   3.226   1.209
 2556SOL     OW 7987   3.417   3.373   0.703
 2556SOL    HW1 7988   3.360   3.357   0.784
 2556SOL    HW2 7989   3.358   3.383   0.623
 2557SOL     OW 7990   2.997   2.565   0.717
 2557SOL    HW1 7991   3.054   2.643   0.692
 2557SOL    HW2 7992   2.937   2.591   0.793
 2558SOL     OW 7993   3.617   2.469   0.231
 2558SOL    HW1 7994   3.605   2.456   0.132
 2558SOL    HW2 7995   3.587   2.388   0.280
 2559SOL     OW 7996   2.630   3.006   1.023
 2559SOL    HW1 7997   2.552   3.023   1.083
 2559SOL    HW2 7998   2.664   3.093   0.987
 2560SOL     OW 7999   2.547   2.874   0.665
 2560SOL    HW1 8000   2.616   2.858   0.735
 2560SOL    HW2 8001   2.474   2.931   0.703
 2561SOL     OW 8002   2.197   3.297   1.061
 2561SOL    HW1 8003   2.119   3.266   1.008
 2561SOL    HW2 8004   2.255   3.355   1.004
 2562SOL     OW 8005   2.300   2.254   1.499
 2562SOL    HW1 8006   2.382   2.198   1.508
 2562SOL    HW2 8007   2.219   2.196   1.503
 2563SOL     OW 8008   3.465   2.309   0.737
 2563SOL    HW1 8009   3.391   2.355   0.687
 2563SOL    HW2 8010   3.516   2.377   0.790
 2564SOL     OW 8011   2.093   3.575   0.483
 2564SOL    HW1 8012   2.127   3.652   0.537
 2564SOL    HW2 8013   2.137   3.575   0.393
 2565SOL     OW 8014   2.092   3.296   0.538
 2565SOL    HW1 8015   2.066   3.392   0.538
 2565SOL    HW2 8016   2.021   3.242   0.583
 2566SOL     OW 8017   2.102   2.953   0.886
 2566SOL    HW1 8018   2.116   2.869   0.938
 2566SOL    HW2 8019   2.047   3.017   0.941
 2567SOL     OW 8020   2.482   3.648   1.439
 2567SOL    HW1 8021   2.390   3.631   1.474
 2567SOL    HW2 8022   2.510   3.740   1.465
 2568SOL     OW 8023   2.468   2.826   0.123
 2568SOL    HW1 8024   2.475   2.910   0.069
 2568SOL    HW2 8025   2.514   2.839   0.211
 2569SOL     OW 8026   3.456   1.976   1.480
 2569SOL    HW1 8027   3.438   2.043   1.408
 2569SOL    HW2 8028   3.453   2.022   1.569
 2570SOL     OW 8029   1.984   2.505   0.563
 2570SOL    HW1 8030   1.939   2.417   0.580
 2570SOL    HW2 8031   1.983   2.559   0.647
 2571SOL     OW 8032   3.704   3.629   0.359
 2571SOL    HW1 8033   3.758   3.600   0.439
 2571SOL    HW2 8034   3.734   3.719   0.330
 2572SOL     OW 8035   1.889   3.458   0.117
 2572SOL    HW1 8036   1.870   3.362   0.138
 2572SOL    HW2 8037   1.856   3.516   0.192
 2573SOL     OW 8038   3.551   2.784   0.612
 2573SOL    HW1 8039   3.646   2.755   0.620
 2573SOL    HW2 8040   3.543   2.849   0.537
 2574SOL     OW 8041   3.503   2.970   0.432
 2574SOL    HW1 8042   3.589   2.972   0.380
 2574SOL    HW2 8043   3.517   3.017   0.520
 2575SOL     OW 8044   1.975   2.599   1.597
 2575SOL    HW1 8045   2.063   2.586   1.642
 2575SOL    HW2 8046   1.962   2.696   1.575
 2576SOL     OW 8047   2.475   3.227   0.726
 2576SOL    HW1 8048   2.426   3.140   0.735
 2576SOL    HW2 8049   2.452   3.270   0.639
 2577SOL     OW 8050   3.155   3.090   1.423
 2577SOL    HW1 8051   3.192   3.017   1.365
 2577SOL    HW2 8052   3.207   3.095   1.508
 2578SOL     OW 8053   2.671   1.866   0.502
 2578SOL    HW1 8054   2.711   1.957   0.493
 2578SOL    HW2 8055   2.571   1.874   0.508
 2579SOL     OW 8056   2.059   2.838   1.264
 2579SOL    HW1 8057   2.148   2.793   1.250
 2579SOL    HW2 8058   1.986   2.773   1.245
 2580SOL     OW 8059   3.387   2.861   0.190
 2580SOL    HW1 8060   3.324   2.785   0.203
 2580SOL    HW2 8061   3.435   2.879   0.276
 2581SOL     OW 8062   2.179   2.113   1.801
 2581SOL    HW1 8063   2.250   2.184   1.807
 2581SOL    HW2 8064   2.091   2.152   1.829
 2582SOL     OW 8065   3.328   3.279   0.953
 2582SOL    HW1 8066   3.269   3.285   1.033
 2582SOL    HW2 8067   3.313   3.191   0.907
 2583SOL     OW 8068   3.529   3.576   0.572
 2583SOL    HW1 8069   3.488   3.553   0.484
 2583SOL    HW2 8070   3.511   3.502   0.637
 2584SOL     OW 8071   2.460   2.591   0.270
 2584SOL    HW1 8072   2.484   2.660   0.202
 2584SOL    HW2 8073   2.382   2.624   0.324
 2585SOL     OW 8074   3.143   2.207   0.944
 2585SOL    HW1 8075   3.057   2.157   0.931
 2585SOL    HW2 8076   3.205   2.153   1.000
 2586SOL     OW 8077   3.438   3.524   0.307
 2586SOL    HW1 8078   3.527   3.570   0.310
 2586SOL    HW2 8079   3.417   3.500   0.212
 2587SOL     OW 8080   2.669   2.467   1.465
 2587SOL    HW1 8081   2.622   2.464   1.554
 2587SOL    HW2 8082   2.618   2.412   1.399
 2588SOL     OW 8083   3.256   2.331   1.674
 2588SOL    HW1 8084   3.236   2.374   1.762
 2588SOL    HW2 8085   3.334   2.269   1.683
 2589SOL     OW 8086   2.835   2.752   1.572
 2589SOL    HW1 8087   2.881   2.668   1.543
 2589SOL    HW2 8088   2.779   2.786   1.497
 2590SOL     OW 8089   2.853   2.272   1.242
 2590SOL    HW1 8090   2.776   2.306   1.296
 2590SOL    HW2 8091   2.819   2.221   1.163
 2591SOL     OW 8092   2.903   2.563   0.429
 2591SOL    HW1 8093   2.929   2.559   0.525
 2591SOL    HW2 8094   2.818   2.512   0.415
 2592SOL     OW 8095   1.938   2.673   0.789
 2592SOL    HW1 8096   2.037   2.661   0.798
 2592SOL    HW2 8097   1.914   2.768   0.810
 2593SOL     OW 8098   1.992   3.683   1.571
 2593SOL    HW1 8099   1.982   3.668   1.670
 2593SOL    HW2 8100   1.906   3.719   1.535
 2594SOL     OW 8101   2.727   2.210   0.195
 2594SOL    HW1 8102   2.786   2.273   0.146
 2594SOL    HW2 8103   2.746   2.116   0.166
 2595SOL     OW 8104   3.581   2.447   1.831
 2595SOL    HW1 8105   3.555   2.536   1.795
 2595SOL    HW2 8106   3.579   2.379   1.758
 2596SOL     OW 8107   3.224   3.006   0.545
 2596SOL    HW1 8108   3.307   2.977   0.497
 2596SOL    HW2 8109   3.175   3.073   0.489
 2597SOL     OW 8110   2.412   2.058   0.885
 2597SOL    HW1 8111   2.407   2.053   0.985
 2597SOL    HW2 8112   2.414   2.154   0.856
 2598SOL     OW 8113   2.870   3.318   0.477
 2598SOL    HW1 8114   2.824   3.390   0.425
 2598SOL    HW2 8115   2.866   3.338   0.575
 2599SOL     OW 8116   2.213   3.663   0.853
 2599SOL    HW1 8117   2.263   3.577   0.859
 2599SOL    HW2 8118   2.278   3.740   0.850
 2600SOL     OW 8119   3.657   2.928   0.873
 2600SOL    HW1 8120   3.595   2.913   0.797
 2600SOL    HW2 8121   3.605   2.939   0.958
 2601SOL     OW 8122   2.183   2.805   0.242
 2601SOL    HW1 8123   2.265   2.844   0.200
 2601SOL    HW2 8124   2.156   2.723   0.193
 2602SOL     OW 8125   3.320   2.597   0.728
 2602SOL    HW1 8126   3.315   2.532   0.803
 2602SOL    HW2 8127   3.400   2.656   0.741
 2603SOL     OW 8128   2.323   3.128   1.727
 2603SOL    HW1 8129   2.273   3.129   1.641
 2603SOL    HW2 8130   2.260   3.110   1.803
 2604SOL     OW 8131   2.973   3.638   0.237
 2604SOL    HW1 8132   2.913   3.576   0.287
 2604SOL    HW2 8133   3.004   3.594   0.152
 2605SOL     OW 8134   2.064   2.147   1.498
 2605SOL    HW1 8135   1.984   2.207   1.485
 2605SOL    HW2 8136   2.054   2.098   1.584
 2606SOL     OW 8137   3.494   3.239   0.081
 2606SOL    HW1 8138   3.462   3.333   0.071
 2606SOL    HW2 8139   3.418   3.176   0.069
 2607SOL     OW 8140   2.326   3.605   0.323
 2607SOL    HW1 8141   2.359   3.644   0.409
 2607SOL    HW2 8142   2.402   3.598   0.258
 2608SOL     OW 8143   3.262   1.969   0.426
 2608SOL    HW1 8144   3.238   1.932   0.336
 2608SOL    HW2 8145   3.361   1.985   0.430
 2609SOL     OW 8146   2.111   3.647   1.241
 2609SOL    HW1 8147   2.168   3.582   1.291
 2609SOL    HW2 8148   2.095   3.614   1.148
 2610SOL     OW 8149   2.802   3.560   0.904
 2610SOL    HW1 8150   2.882   3.503   0.925
 2610SOL    HW2 8151   2.753   3.520   0.827
 2611SOL     OW 8152   2.244   2.562   0.480
 2611SOL    HW1 8153   2.289   2.472   0.477
 2611SOL    HW2 8154   2.150   2.551   0.513
 2612SOL     OW 8155   3.409   2.084   1.729
 2612SOL    HW1 8156   3.404   2.121   1.821
 2612SOL    HW2 8157   3.337   2.015   1.717
 2613SOL     OW 8158   2.476   1.984   0.117
 2613SOL    HW1 8159   2.574   1.962   0.124
 2613SOL    HW2 8160   2.445   1.967   0.024
 2614SOL     OW 8161   2.643   2.126   1.749
 2614SOL    HW1 8162   2.710   2.065   1.792
 2614SOL    HW2 8163   2.570   2.145   1.814
 2615SOL     OW 8164   2.750   3.376   1.195
 2615SOL    HW1 8165   2.727   3.351   1.101
 2615SOL    HW2 8166   2.811   3.307   1.234
 2616SOL     OW 8167   3.213   2.452   1.433
 2616SOL    HW1 8168   3.241   2.409   1.518
 2616SOL    HW2 8169   3.238   2.548   1.434
 2617SOL     OW 8170   2.665   3.264   0.924
 2617SOL    HW1 8171   2.755   3.278   0.882
 2617SOL    HW2 8172   2.594   3.266   0.853
 2618SOL     OW 8173   2.784   2.365   0.899
 2618SOL    HW1 8174   2.759   2.356   0.803
 2618SOL    HW2 8175   2.832   2.283   0.930
 2619SOL     OW 8176   2.401   1.926   0.512
 2619SOL    HW1 8177   2.320   1.927   0.570
 2619SOL    HW2 8178   2.404   2.009   0.457
 2620SOL     OW 8179   3.296   3.050   0.041
 2620SOL    HW1 8180   3.328   2.974   0.098
 2620SOL    HW2 8181   3.204   3.077   0.071
 2621SOL     OW 8182   2.159   1.897   0.171
 2621SOL    HW1 8183   2.208   1.981   0.150
 2621SOL    HW2 8184   2.221   1.832   0.216
 2622SOL     OW 8185   2.797   2.098   0.480
 2622SOL    HW1 8186   2.749   2.139   0.402
 2622SOL    HW2 8187   2.896   2.096   0.461
 2623SOL     OW 8188   2.938   2.545   1.464
 2623SOL    HW1 8189   2.858   2.484   1.467
 2623SOL    HW2 8190   3.019   2.492   1.440
 2624SOL     OW 8191   3.089   3.432   0.793
 2624SOL    HW1 8192   3.110   3.506   0.728
 2624SOL    HW2 8193   3.157   3.432   0.866
 2625SOL     OW 8194   2.321   3.014   0.741
 2625SOL    HW1 8195   2.250   2.987   0.806
 2625SOL    HW2 8196   2.295   2.986   0.648
 2626SOL     OW 8197   3.133   3.659   0.591
 2626SOL    HW1 8198   3.177   3.723   0.527
 2626SOL    HW2 8199   3.083   3.711   0.661
 2627SOL     OW 8200   2.894   2.411   0.016
 2627SOL    HW1 8201   2.853   2.493  -0.023
 2627SOL    HW2 8202   2.958   2.437   0.089
 2628SOL     OW 8203   1.940   2.418   1.386
 2628SOL    HW1 8204   2.032   2.417   1.345
 2628SOL    HW2 8205   1.934   2.492   1.453
 2629SOL     OW 8206   2.423   2.084   1.147
 2629SOL    HW1 8207   2.461   2.000   1.184
 2629SOL    HW2 8208   2.335   2.103   1.191
 2630SOL     OW 8209   2.728   2.316   0.642
 2630SOL    HW1 8210   2.696   2.388   0.580
 2630SOL    HW2 8211   2.752   2.235   0.589
 2631SOL     OW 8212   2.879   1.901   0.753
 2631SOL    HW1 8213   2.807   1.906   0.684
 2631SOL    HW2 8214   2.855   1.832   0.822
 2632SOL     OW 8215   3.291   3.035   0.867
 2632SOL    HW1 8216   3.236   2.951   0.860
 2632SOL    HW2 8217   3.317   3.064   0.775
 2633SOL     OW 8218   3.328   2.452   0.992
 2633SOL    HW1 8219   3.298   2.357   0.999
 2633SOL    HW2 8220   3.401   2.468   1.058
 2634SOL     OW 8221   3.719   2.695   0.377
 2634SOL    HW1 8222   3.761   2.631   0.441
 2634SOL    HW2 8223   3.681   2.644   0.299
 2635SOL     OW 8224   2.350   3.247   0.174
 2635SOL    HW1 8225   2.263   3.232   0.221
 2635SOL    HW2 8226   2.333   3.273   0.079
 2636SOL     OW 8227   3.526   3.142   0.657
 2636SOL    HW1 8228   3.625   3.150   0.671
 2636SOL    HW2 8229   3.481   3.226   0.688
 2637SOL     OW 8230   3.252   2.437   0.078
 2637SOL    HW1 8231   3.198   2.416   0.159
 2637SOL    HW2 8232   3.343   2.396   0.087
 2638SOL     OW 8233   2.389   2.118   0.328
 2638SOL    HW1 8234   2.416   2.059   0.253
 2638SOL    HW2 8235   2.389   2.213   0.297
 2639SOL     OW 8236   2.973   3.057   1.100
 2639SOL    HW1 8237   2.933   3.101   1.181
 2639SOL    HW2 8238   2.932   3.094   1.017
 2640SOL     OW 8239   3.500   2.961   1.079
 2640SOL    HW1 8240   3.505   3.042   1.138
 2640SOL    HW2 8241   3.414   2.963   1.028
 2641SOL     OW 8242   2.777   1.951   1.402
 2641SOL    HW1 8243   2.802   1.931   1.307
 2641SOL    HW2 8244   2.849   2.007   1.444
 2642SOL     OW 8245   2.567   2.912   0.368
 2642SOL    HW1 8246   2.553   2.919   0.467
 2642SOL    HW2 8247   2.651   2.861   0.350
 2643SOL     OW 8248   2.272   2.675   1.251
 2643SOL    HW1 8249   2.358   2.687   1.301
 2643SOL    HW2 8250   2.230   2.588   1.278
 2644SOL     OW 8251   3.136   2.248   1.262
 2644SOL    HW1 8252   3.157   2.322   1.326
 2644SOL    HW2 8253   3.047   2.265   1.219
 2645SOL     OW 8254   1.926   3.426   1.331
 2645SOL    HW1 8255   1.880   3.508   1.297
 2645SOL    HW2 8256   2.024   3.445   1.340
 2646SOL     OW 8257   2.229   2.962   0.501
 2646SOL    HW1 8258   2.222   3.045   0.445
 2646SOL    HW2 8259   2.233   2.882   0.441
 2647SOL     OW 8260   2.428   2.399   0.865
 2647SOL    HW1 8261   2.440   2.465   0.791
 2647SOL    HW2 8262   2.474   2.433   0.948
 2648SOL     OW 8263   3.114   3.210   0.388
 2648SOL    HW1 8264   3.164   3.287   0.428
 2648SOL    HW2 8265   3.019   3.212   0.420
 2649SOL     OW 8266   3.134   3.307   1.142
 2649SOL    HW1 8267   3.181   3.320   1.229
 2649SOL    HW2 8268   3.068   3.233   1.151
 2650SOL     OW 8269   3.444   2.501   0.472
 2650SOL    HW1 8270   3.413   2.562   0.545
 2650SOL    HW2 8271   3.494   2.553   0.403
 2651SOL     OW 8272   2.216   3.372   1.329
 2651SOL    HW1 8273   2.195   3.328   1.242
 2651SOL    HW2 8274   2.313   3.398   1.332
 2652SOL     OW 8275   2.264   2.613   1.598
 2652SOL    HW1 8276   2.332   2.668   1.551
 2652SOL    HW2 8277   2.304   2.525   1.625
 2653SOL     OW 8278   3.449   2.641   1.670
 2653SOL    HW1 8279   3.357   2.679   1.665
 2653SOL    HW2 8280   3.509   2.688   1.605
 2654SOL     OW 8281   2.875   1.967   1.770
 2654SOL    HW1 8282   2.881   2.052   1.718
 2654SOL    HW2 8283   2.907   1.891   1.713
 2655SOL     OW 8284   2.366   1.912   1.740
 2655SOL    HW1 8285   2.324   1.855   1.670
 2655SOL    HW2 8286   2.300   1.981   1.772
 2656SOL     OW 8287   2.435   2.732   1.029
 2656SOL    HW1 8288   2.479   2.821   1.020
 2656SOL    HW2 8289   2.372   2.732   1.106
 2657SOL     OW 8290   3.222   2.724   1.045
 2657SOL    HW1 8291   3.147   2.724   0.979
 2657SOL    HW2 8292   3.259   2.632   1.054
 2658SOL     OW 8293   3.071   2.387   0.275
 2658SOL    HW1 8294   3.084   2.303   0.329
 2658SOL    HW2 8295   3.042   2.461   0.335
 2659SOL     OW 8296   2.169   2.075   1.231
 2659SOL    HW1 8297   2.146   2.112   1.321
 2659SOL    HW2 8298   2.139   1.980   1.225
 2660SOL     OW 8299   1.899   3.172   1.282
 2660SOL    HW1 8300   1.952   3.123   1.350
 2660SOL    HW2 8301   1.921   3.270   1.287
 2661SOL     OW 8302   2.594   2.496   1.064
 2661SOL    HW1 8303   2.653   2.470   0.988
 2661SOL    HW2 8304   2.566   2.592   1.053
 2662SOL     OW 8305   2.169   1.925   0.618
 2662SOL    HW1 8306   2.158   2.019   0.651
 2662SOL    HW2 8307   2.164   1.862   0.695
 2663SOL     OW 8308   3.484   2.229   0.374
 2663SOL    HW1 8309   3.486   2.153   0.438
 2663SOL    HW2 8310   3.436   2.306   0.414
 2664SOL     OW 8311   2.885   2.628   0.966
 2664SOL    HW1 8312   2.900   2.649   1.062
 2664SOL    HW2 8313   2.855   2.533   0.957
 2665SOL     OW 8314   3.721   3.380   1.605
 2665SOL    HW1 8315   3.735   3.407   1.510
 2665SOL    HW2 8316   3.804   3.402   1.658
 2666SOL     OW 8317   2.212   2.760   1.804
 2666SOL    HW1 8318   2.288   2.804   1.852
 2666SOL    HW2 8319   2.247   2.713   1.722
 2667SOL     OW 8320   3.402   2.136   0.125
 2667SOL    HW1 8321   3.341   2.061   0.148
 2667SOL    HW2 8322   3.424   2.188   0.208
 2668SOL     OW 8323   3.165   2.700   0.042
 2668SOL    HW1 8324   3.199   2.607   0.057
 2668SOL    HW2 8325   3.183   2.727  -0.053
 2669SOL     OW 8326   2.930   3.195   0.849
 2669SOL    HW1 8327   2.937   3.111   0.794
 2669SOL    HW2 8328   2.992   3.264   0.813
 2670SOL     OW 8329   2.181   2.672   0.949
 2670SOL    HW1 8330   2.274   2.708   0.954
 2670SOL    HW2 8331   2.175   2.587   1.001
 2671SOL     OW 8332   2.201   2.371   1.006
 2671SOL    HW1 8333   2.149   2.288   0.989
 2671SOL    HW2 8334   2.278   2.376   0.942
 2672SOL     OW 8335   3.000   2.242   1.678
 2672SOL    HW1 8336   2.955   2.305   1.742
 2672SOL    HW2 8337   3.093   2.273   1.661
 2673SOL     OW 8338   3.022   2.069   1.477
 2673SOL    HW1 8339   3.022   2.133   1.554
 2673SOL    HW2 8340   3.050   2.117   1.394
 2674SOL     OW 8341   1.870   3.188   0.200
 2674SOL    HW1 8342   1.777   3.209   0.169
 2674SOL    HW2 8343   1.880   3.089   0.213
 2675SOL     OW 8344   1.950   3.663   0.927
 2675SOL    HW1 8345   1.908   3.577   0.900
 2675SOL    HW2 8346   2.044   3.666   0.893
 2676SOL     OW 8347   2.366   3.430   0.910
 2676SOL    HW1 8348   2.432   3.504   0.919
 2676SOL    HW2 8349   2.410   3.351   0.868
 2677SOL     OW 8350   2.864   2.658   1.238
 2677SOL    HW1 8351   2.905   2.626   1.324
 2677SOL    HW2 8352   2.768   2.631   1.235
 2678SOL     OW 8353   1.902   2.406   1.114
 2678SOL    HW1 8354   1.987   2.373   1.073
 2678SOL    HW2 8355   1.915   2.421   1.212
 2679SOL     OW 8356   2.051   2.382   1.722
 2679SOL    HW1 8357   2.110   2.342   1.652
 2679SOL    HW2 8358   1.993   2.453   1.681
 2680SOL     OW 8359   2.677   2.434   0.325
 2680SOL    HW1 8360   2.684   2.345   0.279
 2680SOL    HW2 8361   2.583   2.468   0.317
 2681SOL     OW 8362   3.519   2.466   1.206
 2681SOL    HW1 8363   3.481   2.397   1.268
 2681SOL    HW2 8364   3.601   2.430   1.162
 2682SOL     OW 8365   2.114   3.426   1.744
 2682SOL    HW1 8366   2.084   3.483   1.820
 2682SOL    HW2 8367   2.107   3.329   1.770
 2683SOL     OW 8368   2.533   2.326   1.269
 2683SOL    HW1 8369   2.499   2.237   1.239
 2683SOL    HW2 8370   2.559   2.380   1.189
 2684SOL     OW 8371   2.335   2.362   0.191
 2684SOL    HW1 8372   2.396   2.442   0.195
 2684SOL    HW2 8373   2.240   2.393   0.198
 2685SOL     OW 8374   2.021   2.999   1.466
 2685SOL    HW1 8375   2.043   2.938   1.542
 2685SOL    HW2 8376   2.031   2.950   1.380
 2686SOL     OW 8377   3.209   2.921   1.234
 2686SOL    HW1 8378   3.233   2.858   1.160
 2686SOL    HW2 8379   3.119   2.961   1.216
 2687SOL     OW 8380   3.164   2.717   0.309
 2687SOL    HW1 8381   3.078   2.686   0.351
 2687SOL    HW2 8382   3.160   2.703   0.210
 2688SOL     OW 8383   3.621   3.609   1.154
 2688SOL    HW1 8384   3.682   3.639   1.081
 2688SOL    HW2 8385   3.583   3.520   1.132
 2689SOL     OW 8386   3.114   3.593   1.128
 2689SOL    HW1 8387   3.198   3.598   1.074
 2689SOL    HW2 8388   3.091   3.497   1.146
 2690SOL     OW 8389   1.945   3.120   1.022
 2690SOL    HW1 8390   1.940   3.119   1.122
 2690SOL    HW2 8391   1.862   3.079   0.984
 2691SOL     OW 8392   2.765   1.948   0.133
 2691SOL    HW1 8393   2.816   1.949   0.047
 2691SOL    HW2 8394   2.821   1.906   0.204
 2692SOL     OW 8395   3.588   1.997   0.523
 2692SOL    HW1 8396   3.661   1.980   0.456
 2692SOL    HW2 8397   3.557   1.910   0.561
 2693SOL     OW 8398   3.250   3.435   0.477
 2693SOL    HW1 8399   3.317   3.447   0.403
 2693SOL    HW2 8400   3.210   3.524   0.500
 2694SOL     OW 8401   1.992   3.656   1.851
 2694SOL    HW1 8402   1.951   3.582   1.904
 2694SOL    HW2 8403   2.056   3.707   1.909
 2695SOL     OW 8404   3.142   2.789   0.672
 2695SOL    HW1 8405   3.202   2.708   0.674
 2695SOL    HW2 8406   3.182   2.858   0.612
 2696SOL     OW 8407   2.534   3.478   0.154
 2696SOL    HW1 8408   2.543   3.488   0.055
 2696SOL    HW2 8409   2.494   3.389   0.175
 2697SOL     OW 8410   3.703   2.037   0.963
 2697SOL    HW1 8411   3.742   1.952   0.927
 2697SOL    HW2 8412   3.605   2.039   0.944
 2698SOL     OW 8413   2.125   2.188   0.720
 2698SOL    HW1 8414   2.046   2.239   0.686
 2698SOL    HW2 8415   2.116   2.173   0.818
 2699SOL     OW 8416   3.056   3.474   0.031
 2699SOL    HW1 8417   3.062   3.381   0.068
 2699SOL    HW2 8418   2.997   3.474  -0.049
 2700SOL     OW 8419   2.778   2.772   0.291
 2700SOL    HW1 8420   2.841   2.810   0.223
 2700SOL    HW2 8421   2.818   2.689   0.330
 2701SOL     OW 8422   3.366   3.469   0.044
 2701SOL    HW1 8423   3.274   3.506   0.051
 2701SOL    HW2 8424   3.404   3.489  -0.046
 2702SOL     OW 8425   2.234   3.150   1.490
 2702SOL    HW1 8426   2.221   3.243   1.456
 2702SOL    HW2 8427   2.150   3.098   1.477
 2703SOL     OW 8428   3.476   3.154   1.289
 2703SOL    HW1 8429   3.536   3.157   1.369
 2703SOL    HW2 8430   3.401   3.218   1.302
 2704SOL     OW 8431   2.901   2.960   0.696
 2704SOL    HW1 8432   2.831   2.913   0.750
 2704SOL    HW2 8433   2.960   2.892   0.653
 2705SOL     OW 8434   2.876   2.098   0.971
 2705SOL    HW1 8435   2.868   2.062   0.878
 2705SOL    HW2 8436   2.874   2.022   1.036
 2706SOL     OW 8437   2.452   3.349   0.491
 2706SOL    HW1 8438   2.494   3.291   0.421
 2706SOL    HW2 8439   2.408   3.428   0.447
 2707SOL     OW 8440   3.571   2.247   1.381
 2707SOL    HW1 8441   3.644   2.316   1.385
 2707SOL    HW2 8442   3.599   2.172   1.322
 2708SOL     OW 8443   2.117   3.210   0.290
 2708SOL    HW1 8444   2.021   3.211   0.263
 2708SOL    HW2 8445   2.129   3.263   0.374
 2709SOL     OW 8446   1.967   2.875   1.726
 2709SOL    HW1 8447   1.890   2.842   1.780
 2709SOL    HW2 8448   2.052   2.845   1.768
 2710SOL     OW 8449   2.534   2.065   1.489
 2710SOL    HW1 8450   2.624   2.049   1.449
 2710SOL    HW2 8451   2.542   2.070   1.588
 2711SOL     OW 8452   1.937   2.207   0.033
 2711SOL    HW1 8453   1.845   2.179   0.004
 2711SOL    HW2 8454   1.968   2.284  -0.023
 2712SOL     OW 8455   3.302   2.718   1.398
 2712SOL    HW1 8456   3.245   2.770   1.335
 2712SOL    HW2 8457   3.398   2.730   1.374
 2713SOL     OW 8458   1.934   2.028   0.318
 2713SOL    HW1 8459   1.917   2.111   0.264
 2713SOL    HW2 8460   2.024   1.991   0.296
 2714SOL     OW 8461   3.045   3.197   0.119
 2714SOL    HW1 8462   2.946   3.186   0.121
 2714SOL    HW2 8463   3.079   3.212   0.212
 2715SOL     OW 8464   2.475   2.704   1.431
 2715SOL    HW1 8465   2.531   2.785   1.414
 2715SOL    HW2 8466   2.534   2.624   1.434
 2716SOL     OW 8467   3.355   3.629   0.959
 2716SOL    HW1 8468   3.388   3.693   0.890
 2716SOL    HW2 8469   3.421   3.623   1.034
 2717SOL     OW 8470   2.578   2.427   1.708
 2717SOL    HW1 8471   2.597   2.492   1.782
 2717SOL    HW2 8472   2.638   2.347   1.717
 2718SOL     OW 8473   2.252   3.603   1.560
 2718SOL    HW1 8474   2.161   3.644   1.558
 2718SOL    HW2 8475   2.245   3.509   1.592
 2719SOL     OW 8476   3.536   2.745   1.254
 2719SOL    HW1 8477   3.509   2.656   1.217
 2719SOL    HW2 8478   3.537   2.813   1.181
 2720SOL     OW 8479   3.087   2.187   0.449
 2720SOL    HW1 8480   3.152   2.113   0.438
 2720SOL    HW2 8481   3.107   2.237   0.533
 2721SOL     OW 8482   2.456   2.607   0.652
 2721SOL    HW1 8483   2.506   2.692   0.633
 2721SOL    HW2 8484   2.368   2.609   0.604
 2722SOL     OW 8485   3.639   2.204   1.642
 2722SOL    HW1 8486   3.622   2.235   1.548
 2722SOL    HW2 8487   3.555   2.167   1.680
 2723SOL     OW 8488   3.592   2.796   1.517
 2723SOL    HW1 8489   3.630   2.887   1.532
 2723SOL    HW2 8490   3.584   2.779   1.418
 2724SOL     OW 8491   2.721   3.236   0.016
 2724SOL    HW1 8492   2.675   3.251   0.104
 2724SOL    HW2 8493   2.765   3.321  -0.014
 2725SOL     OW 8494   2.523   3.652   0.953
 2725SOL    HW1 8495   2.477   3.740   0.940
 2725SOL    HW2 8496   2.622   3.664   0.946
 2726SOL     OW 8497   2.721   2.818   0.861
 2726SOL    HW1 8498   2.775   2.749   0.909
 2726SOL    HW2 8499   2.689   2.887   0.927
 2727SOL     OW 8500   2.945   2.846   0.087
 2727SOL    HW1 8501   2.922   2.899   0.005
 2727SOL    HW2 8502   3.026   2.790   0.068
 2728SOL     OW 8503   3.723   3.431   0.851
 2728SOL    HW1 8504   3.652   3.419   0.781
 2728SOL    HW2 8505   3.724   3.352   0.911
 2729SOL     OW 8506   2.083   3.176   1.844
 2729SOL    HW1 8507   2.018   3.103   1.823
 2729SOL    HW2 8508   2.087   3.190   1.942
 2730SOL     OW 8509   1.941   3.102   0.653
 2730SOL    HW1 8510   1.940   3.055   0.741
 2730SOL    HW2 8511   2.023   3.074   0.602
 2731SOL     OW 8512   2.534   3.253   1.624
 2731SOL    HW1 8513   2.456   3.203   1.662
 2731SOL    HW2 8514   2.531   3.348   1.655
 2732SOL     OW 8515   3.686   2.054   1.227
 2732SOL    HW1 8516   3.682   1.964   1.271
 2732SOL    HW2 8517   3.689   2.043   1.128
 2733SOL     OW 8518   2.290   2.286   0.520
 2733SOL    HW1 8519   2.320   2.214   0.458
 2733SOL    HW2 8520   2.251   2.246   0.603
 2734SOL     OW 8521   3.567   3.349   1.104
 2734SOL    HW1 8522   3.474   3.324   1.077
 2734SOL    HW2 8523   3.593   3.299   1.186
 2735SOL     OW 8524   2.179   2.409   1.280
 2735SOL    HW1 8525   2.217   2.350   1.352
 2735SOL    HW2 8526   2.219   2.383   1.192
 2736SOL     OW 8527   2.674   3.448   0.687
 2736SOL    HW1 8528   2.706   3.458   0.593
 2736SOL    HW2 8529   2.595   3.386   0.689
 2737SOL     OW 8530   3.286   2.076   1.112
 2737SOL    HW1 8531   3.338   2.011   1.167
 2737SOL    HW2 8532   3.237   2.139   1.173
 2738SOL     OW 8533   2.863   1.896   1.154
 2738SOL    HW1 8534   2.800   1.824   1.123
 2738SOL    HW2 8535   2.956   1.860   1.154
 2739SOL     OW 8536   2.632   3.192   0.301
 2739SOL    HW1 8537   2.586   3.105   0.318
 2739SOL    HW2 8538   2.723   3.189   0.342
 2740SOL     OW 8539   2.480   3.429   1.284
 2740SOL    HW1 8540   2.475   3.511   1.341
 2740SOL    HW2 8541   2.569   3.426   1.239
 2741SOL     OW 8542   3.214   1.914   0.168
 2741SOL    HW1 8543   3.249   1.873   0.084
 2741SOL    HW2 8544   3.124   1.876   0.188
 2742SOL     OW 8545   3.162   2.315   0.691
 2742SOL    HW1 8546   3.103   2.395   0.695
 2742SOL    HW2 8547   3.177   2.280   0.784
 2743SOL     OW 8548   3.455   2.083   0.882
 2743SOL    HW1 8549   3.371   2.082   0.936
 2743SOL    HW2 8550   3.457   2.166   0.826
 2744SOL     OW 8551   1.901   2.939   0.300
 2744SOL    HW1 8552   2.000   2.928   0.291
 2744SOL    HW2 8553   1.861   2.853   0.332
 2745SOL     OW 8554   2.737   3.508   0.337
 2745SOL    HW1 8555   2.660   3.473   0.283
 2745SOL    HW2 8556   2.705   3.579   0.399
 2746SOL     OW 8557   2.092   2.490   1.975
 2746SOL    HW1 8558   1.999   2.488   2.012
 2746SOL    HW2 8559   2.093   2.451   1.883
 2747SOL     OW 8560   2.087   2.137   2.858
 2747SOL    HW1 8561   2.122   2.120   2.950
 2747SOL    HW2 8562   1.999   2.092   2.846
 2748SOL     OW 8563   1.881   2.230   2.509
 2748SOL    HW1 8564   1.799   2.273   2.548
 2748SOL    HW2 8565   1.853   2.157   2.446
 2749SOL     OW 8566   3.417   3.373   2.565
 2749SOL    HW1 8567   3.360   3.357   2.646
 2749SOL    HW2 8568   3.358   3.383   2.485
 2750SOL     OW 8569   3.617   2.469   2.093
 2750SOL    HW1 8570   3.605   2.456   1.994
 2750SOL    HW2 8571   3.587   2.388   2.142
 2751SOL     OW 8572   2.197   3.297   2.923
 2751SOL    HW1 8573   2.119   3.266   2.870
 2751SOL    HW2 8574   2.255   3.355   2.866
 2752SOL     OW 8575   3.322   3.367   3.201
 2752SOL    HW1 8576   3.346   3.461   3.227
 2752SOL    HW2 8577   3.306   3.313   3.283
 2753SOL     OW 8578   3.465   2.309   2.599
 2753SOL    HW1 8579   3.391   2.355   2.549
 2753SOL    HW2 8580   3.516   2.377   2.652
 2754SOL     OW 8581   2.093   3.575   2.345
 2754SOL    HW1 8582   2.127   3.652   2.399
 2754SOL    HW2 8583   2.137   3.575   2.255
 2755SOL     OW 8584   2.989   3.203   3.552
 2755SOL    HW1 8585   3.036   3.203   3.640
 2755SOL    HW2 8586   2.941   3.116   3.541
 2756SOL     OW 8587   2.092   3.296   2.400
 2756SOL    HW1 8588   2.066   3.392   2.400
 2756SOL    HW2 8589   2.021   3.242   2.445
 2757SOL     OW 8590   2.102   2.953   2.748
 2757SOL    HW1 8591   2.116   2.869   2.800
 2757SOL    HW2 8592   2.047   3.017   2.803
 2758SOL     OW 8593   2.482   3.648   3.301
 2758SOL    HW1 8594   2.390   3.631   3.336
 2758SOL    HW2 8595   2.510   3.740   3.327
 2759SOL     OW 8596   2.468   2.826   1.985
 2759SOL    HW1 8597   2.475   2.910   1.931
 2759SOL    HW2 8598   2.514   2.839   2.073
 2760SOL     OW 8599   3.456   1.976   3.342
 2760SOL    HW1 8600   3.438   2.043   3.270
 2760SOL    HW2 8601   3.453   2.022   3.431
 2761SOL     OW 8602   1.984   2.505   2.425
 2761SOL    HW1 8603   1.939   2.417   2.442
 2761SOL    HW2 8604   1.983   2.559   2.509
 2762SOL     OW 8605   3.704   3.629   2.221
 2762SOL    HW1 8606   3.758   3.600   2.301
 2762SOL    HW2 8607   3.734   3.719   2.192
 2763SOL     OW 8608   1.889   3.458   1.979
 2763SOL    HW1 8609   1.870   3.362   2.000
 2763SOL    HW2 8610   1.856   3.516   2.054
 2764SOL     OW 8611   2.475   3.227   2.588
 2764SOL    HW1 8612   2.426   3.140   2.597
 2764SOL    HW2 8613   2.452   3.270   2.501
 2765SOL     OW 8614   2.671   1.866   2.364
 2765SOL    HW1 8615   2.711   1.957   2.355
 2765SOL    HW2 8616   2.571   1.874   2.370
 2766SOL     OW 8617   2.059   2.838   3.126
 2766SOL    HW1 8618   2.148   2.793   3.112
 2766SOL    HW2 8619   1.986   2.773   3.107
 2767SOL     OW 8620   3.049   3.654   3.478
 2767SOL    HW1 8621   3.073   3.714   3.402
 2767SOL    HW2 8622   3.056   3.559   3.448
 2768SOL     OW 8623   3.328   3.279   2.815
 2768SOL    HW1 8624   3.269   3.285   2.895
 2768SOL    HW2 8625   3.313   3.191   2.769
 2769SOL     OW 8626   3.529   3.576   2.434
 2769SOL    HW1 8627   3.488   3.553   2.346
 2769SOL    HW2 8628   3.511   3.502   2.499
 2770SOL     OW 8629   2.460   2.591   2.132
 2770SOL    HW1 8630   2.484   2.660   2.064
 2770SOL    HW2 8631   2.382   2.624   2.186
 2771SOL     OW 8632   3.143   2.207   2.806
 2771SOL    HW1 8633   3.057   2.157   2.793
 2771SOL    HW2 8634   3.205   2.153   2.862
 2772SOL     OW 8635   3.256   2.331   3.536
 2772SOL    HW1 8636   3.236   2.374   3.624
 2772SOL    HW2 8637   3.334   2.269   3.545
 2773SOL     OW 8638   1.938   2.673   2.651
 2773SOL    HW1 8639   2.037   2.661   2.660
 2773SOL    HW2 8640   1.914   2.768   2.672
 2774SOL     OW 8641   1.992   3.683   3.433
 2774SOL    HW1 8642   1.982   3.668   3.532
 2774SOL    HW2 8643   1.906   3.719   3.397
 2775SOL     OW 8644   2.727   2.210   2.057
 2775SOL    HW1 8645   2.786   2.273   2.008
 2775SOL    HW2 8646   2.746   2.116   2.028
 2776SOL     OW 8647   3.581   2.447   3.693
 2776SOL    HW1 8648   3.555   2.536   3.657
 2776SOL    HW2 8649   3.579   2.379   3.620
 2777SOL     OW 8650   2.412   2.058   2.747
 2777SOL    HW1 8651   2.407   2.053   2.847
 2777SOL    HW2 8652   2.414   2.154   2.718
 2778SOL     OW 8653   2.213   3.663   2.715
 2778SOL    HW1 8654   2.263   3.577   2.721
 2778SOL    HW2 8655   2.278   3.740   2.712
 2779SOL     OW 8656   3.657   2.928   2.735
 2779SOL    HW1 8657   3.595   2.913   2.659
 2779SOL    HW2 8658   3.605   2.939   2.820
 2780SOL     OW 8659   3.089   3.412   3.368
 2780SOL    HW1 8660   3.095   3.335   3.432
 2780SOL    HW2 8661   3.037   3.386   3.288
 2781SOL     OW 8662   2.183   2.805   2.104
 2781SOL    HW1 8663   2.265   2.844   2.062
 2781SOL    HW2 8664   2.156   2.723   2.055
 2782SOL     OW 8665   3.320   2.597   2.590
 2782SOL    HW1 8666   3.315   2.532   2.665
 2782SOL    HW2 8667   3.400   2.656   2.603
 2783SOL     OW 8668   2.323   3.128   3.589
 2783SOL    HW1 8669   2.273   3.129   3.503
 2783SOL    HW2 8670   2.260   3.110   3.665
 2784SOL     OW 8671   2.973   3.638   2.099
 2784SOL    HW1 8672   2.913   3.576   2.149
 2784SOL    HW2 8673   3.004   3.594   2.014
 2785SOL     OW 8674   2.064   2.147   3.360
 2785SOL    HW1 8675   1.984   2.207   3.347
 2785SOL    HW2 8676   2.054   2.098   3.446
 2786SOL     OW 8677   2.326   3.605   2.185
 2786SOL    HW1 8678   2.359   3.644   2.271
 2786SOL    HW2 8679   2.402   3.598   2.120
 2787SOL     OW 8680   3.262   1.969   2.288
 2787SOL    HW1 8681   3.238   1.932   2.198
 2787SOL    HW2 8682   3.361   1.985   2.292
 2788SOL     OW 8683   2.111   3.647   3.103
 2788SOL    HW1 8684   2.168   3.582   3.153
 2788SOL    HW2 8685   2.095   3.614   3.010
 2789SOL     OW 8686   2.244   2.562   2.342
 2789SOL    HW1 8687   2.289   2.472   2.339
 2789SOL    HW2 8688   2.150   2.551   2.375
 2790SOL     OW 8689   3.409   2.084   3.591
 2790SOL    HW1 8690   3.404   2.121   3.683
 2790SOL    HW2 8691   3.337   2.015   3.579
 2791SOL     OW 8692   2.476   1.984   1.979
 2791SOL    HW1 8693   2.574   1.962   1.986
 2791SOL    HW2 8694   2.445   1.967   1.886
 2792SOL     OW 8695   2.750   3.376   3.057
 2792SOL    HW1 8696   2.727   3.351   2.963
 2792SOL    HW2 8697   2.811   3.307   3.096
 2793SOL     OW 8698   2.401   1.926   2.374
 2793SOL    HW1 8699   2.320   1.927   2.432
 2793SOL    HW2 8700   2.404   2.009   2.319
 2794SOL     OW 8701   2.159   1.897   2.033
 2794SOL    HW1 8702   2.208   1.981   2.012
 2794SOL    HW2 8703   2.221   1.832   2.078
 2795SOL     OW 8704   2.797   2.098   2.342
 2795SOL    HW1 8705   2.749   2.139   2.264
 2795SOL    HW2 8706   2.896   2.096   2.323
 2796SOL     OW 8707   3.089   3.432   2.655
 2796SOL    HW1 8708   3.110   3.506   2.590
 2796SOL    HW2 8709   3.157   3.432   2.728
 2797SOL     OW 8710   3.133   3.659   2.453
 2797SOL    HW1 8711   3.177   3.723   2.389
 2797SOL    HW2 8712   3.083   3.711   2.523
 2798SOL     OW 8713   2.894   2.411   1.878
 2798SOL    HW1 8714   2.853   2.493   1.839
 2798SOL    HW2 8715   2.958   2.437   1.951
 2799SOL     OW 8716   2.728   2.316   2.504
 2799SOL    HW1 8717   2.696   2.388   2.442
 2799SOL    HW2 8718   2.752   2.235   2.451
 2800SOL     OW 8719   2.879   1.901   2.615
 2800SOL    HW1 8720   2.807   1.906   2.546
 2800SOL    HW2 8721   2.855   1.832   2.684
 2801SOL     OW 8722   3.328   2.452   2.854
 2801SOL    HW1 8723   3.298   2.357   2.861
 2801SOL    HW2 8724   3.401   2.468   2.920
 2802SOL     OW 8725   3.719   2.695   2.239
 2802SOL    HW1 8726   3.761   2.631   2.303
 2802SOL    HW2 8727   3.681   2.644   2.161
 2803SOL     OW 8728   3.252   2.437   1.940
 2803SOL    HW1 8729   3.198   2.416   2.021
 2803SOL    HW2 8730   3.343   2.396   1.949
 2804SOL     OW 8731   2.389   2.118   2.190
 2804SOL    HW1 8732   2.416   2.059   2.115
 2804SOL    HW2 8733   2.389   2.213   2.159
 2805SOL     OW 8734   3.616   3.085   3.450
 2805SOL    HW1 8735   3.707   3.046   3.437
 2805SOL    HW2 8736   3.624   3.181   3.474
 2806SOL     OW 8737   2.926   3.209   3.202
 2806SOL    HW1 8738   2.846   3.186   3.257
 2806SOL    HW2 8739   3.009   3.183   3.251
 2807SOL     OW 8740   3.454   3.491   3.487
 2807SOL    HW1 8741   3.481   3.525   3.397
 2807SOL    HW2 8742   3.533   3.453   3.533
 2808SOL     OW 8743   3.500   2.961   2.941
 2808SOL    HW1 8744   3.505   3.042   3.000
 2808SOL    HW2 8745   3.414   2.963   2.890
 2809SOL     OW 8746   2.272   2.675   3.113
 2809SOL    HW1 8747   2.358   2.687   3.163
 2809SOL    HW2 8748   2.230   2.588   3.140
 2810SOL     OW 8749   1.926   3.426   3.193
 2810SOL    HW1 8750   1.880   3.508   3.159
 2810SOL    HW2 8751   2.024   3.445   3.202
 2811SOL     OW 8752   2.229   2.962   2.363
 2811SOL    HW1 8753   2.222   3.045   2.307
 2811SOL    HW2 8754   2.233   2.882   2.303
 2812SOL     OW 8755   3.134   3.307   3.004
 2812SOL    HW1 8756   3.181   3.320   3.091
 2812SOL    HW2 8757   3.068   3.233   3.013
 2813SOL     OW 8758   3.444   2.501   2.334
 2813SOL    HW1 8759   3.413   2.562   2.407
 2813SOL    HW2 8760   3.494   2.553   2.265
 2814SOL     OW 8761   2.216   3.372   3.191
 2814SOL    HW1 8762   2.195   3.328   3.104
 2814SOL    HW2 8763   2.313   3.398   3.194
 2815SOL     OW 8764   3.449   2.641   3.532
 2815SOL    HW1 8765   3.357   2.679   3.527
 2815SOL    HW2 8766   3.509   2.688   3.467
 2816SOL     OW 8767   2.875   1.967   3.632
 2816SOL    HW1 8768   2.881   2.052   3.580
 2816SOL    HW2 8769   2.907   1.891   3.575
 2817SOL     OW 8770   3.071   2.387   2.137
 2817SOL    HW1 8771   3.084   2.303   2.191
 2817SOL    HW2 8772   3.042   2.461   2.197
 2818SOL     OW 8773   2.169   2.075   3.093
 2818SOL    HW1 8774   2.146   2.112   3.183
 2818SOL    HW2 8775   2.139   1.980   3.087
 2819SOL     OW 8776   1.899   3.172   3.144
 2819SOL    HW1 8777   1.952   3.123   3.212
 2819SOL    HW2 8778   1.921   3.270   3.149
 2820SOL     OW 8779   3.590   2.797   3.716
 2820SOL    HW1 8780   3.544   2.790   3.627
 2820SOL    HW2 8781   3.528   2.841   3.782
 2821SOL     OW 8782   2.169   1.925   2.480
 2821SOL    HW1 8783   2.158   2.019   2.513
 2821SOL    HW2 8784   2.164   1.862   2.557
 2822SOL     OW 8785   3.484   2.229   2.236
 2822SOL    HW1 8786   3.486   2.153   2.300
 2822SOL    HW2 8787   3.436   2.306   2.276
 2823SOL     OW 8788   2.842   3.435   3.562
 2823SOL    HW1 8789   2.822   3.479   3.474
 2823SOL    HW2 8790   2.881   3.344   3.546
 2824SOL     OW 8791   3.721   3.380   3.467
 2824SOL    HW1 8792   3.735   3.407   3.372
 2824SOL    HW2 8793   3.804   3.402   3.520
 2825SOL     OW 8794   2.212   2.760   3.666
 2825SOL    HW1 8795   2.288   2.804   3.714
 2825SOL    HW2 8796   2.247   2.713   3.584
 2826SOL     OW 8797   3.402   2.136   1.987
 2826SOL    HW1 8798   3.341   2.061   2.010
 2826SOL    HW2 8799   3.424   2.188   2.070
 2827SOL     OW 8800   3.165   2.700   1.904
 2827SOL    HW1 8801   3.199   2.607   1.919
 2827SOL    HW2 8802   3.183   2.727   1.809
 2828SOL     OW 8803   2.181   2.672   2.811
 2828SOL    HW1 8804   2.274   2.708   2.816
 2828SOL    HW2 8805   2.175   2.587   2.863
 2829SOL     OW 8806   2.201   2.371   2.868
 2829SOL    HW1 8807   2.149   2.288   2.851
 2829SOL    HW2 8808   2.278   2.376   2.804
 2830SOL     OW 8809   1.870   3.188   2.062
 2830SOL    HW1 8810   1.777   3.209   2.031
 2830SOL    HW2 8811   1.880   3.089   2.075
 2831SOL     OW 8812   1.950   3.663   2.789
 2831SOL    HW1 8813   1.908   3.577   2.762
 2831SOL    HW2 8814   2.044   3.666   2.755
 2832SOL     OW 8815   2.366   3.430   2.772
 2832SOL    HW1 8816   2.432   3.504   2.781
 2832SOL    HW2 8817   2.410   3.351   2.730
 2833SOL     OW 8818   1.902   2.406   2.976
 2833SOL    HW1 8819   1.987   2.373   2.935
 2833SOL    HW2 8820   1.915   2.421   3.074
 2834SOL     OW 8821   3.231   2.812   3.522
 2834SOL    HW1 8822   3.270   2.901   3.542
 2834SOL    HW2 8823   3.241   2.792   3.425
 2835SOL     OW 8824   2.677   2.434   2.187
 2835SOL    HW1 8825   2.684   2.345   2.141
 2835SOL    HW2 8826   2.583   2.468   2.179
 2836SOL     OW 8827   3.519   2.466   3.068
 2836SOL    HW1 8828   3.481   2.397   3.130
 2836SOL    HW2 8829   3.601   2.430   3.024
 2837SOL     OW 8830   2.114   3.426   3.606
 2837SOL    HW1 8831   2.084   3.483   3.682
 2837SOL    HW2 8832   2.107   3.329   3.632
 2838SOL     OW 8833   2.792   3.540   3.327
 2838SOL    HW1 8834   2.768   3.522   3.232
 2838SOL    HW2 8835   2.822   3.634   3.337
 2839SOL     OW 8836   2.335   2.362   2.053
 2839SOL    HW1 8837   2.396   2.442   2.057
 2839SOL    HW2 8838   2.240   2.393   2.060
 2840SOL     OW 8839   2.021   2.999   3.328
 2840SOL    HW1 8840   2.043   2.938   3.404
 2840SOL    HW2 8841   2.031   2.950   3.242
 2841SOL     OW 8842   3.621   3.609   3.016
 2841SOL    HW1 8843   3.682   3.639   2.943
 2841SOL    HW2 8844   3.583   3.520   2.994
 2842SOL     OW 8845   3.114   3.593   2.990
 2842SOL    HW1 8846   3.198   3.598   2.936
 2842SOL    HW2 8847   3.091   3.497   3.008
 2843SOL     OW 8848   1.945   3.120   2.884
 2843SOL    HW1 8849   1.940   3.119   2.984
 2843SOL    HW2 8850   1.862   3.079   2.846
 2844SOL     OW 8851   2.550   3.524   3.578
 2844SOL    HW1 8852   2.494   3.605   3.587
 2844SOL    HW2 8853   2.602   3.528   3.492
 2845SOL     OW 8854   3.588   1.997   2.385
 2845SOL    HW1 8855   3.661   1.980   2.318
 2845SOL    HW2 8856   3.557   1.910   2.423
 2846SOL     OW 8857   1.992   3.656   3.713
 2846SOL    HW1 8858   1.951   3.582   3.766
 2846SOL    HW2 8859   2.056   3.707   3.771
 2847SOL     OW 8860   2.692   3.135   3.284
 2847SOL    HW1 8861   2.687   3.168   3.379
 2847SOL    HW2 8862   2.606   3.154   3.238
 2848SOL     OW 8863   3.512   3.582   3.256
 2848SOL    HW1 8864   3.565   3.592   3.172
 2848SOL    HW2 8865   3.485   3.672   3.290
 2849SOL     OW 8866   3.703   2.037   2.825
 2849SOL    HW1 8867   3.742   1.952   2.789
 2849SOL    HW2 8868   3.605   2.039   2.806
 2850SOL     OW 8869   2.125   2.188   2.582
 2850SOL    HW1 8870   2.046   2.239   2.548
 2850SOL    HW2 8871   2.116   2.173   2.680
 2851SOL     OW 8872   2.234   3.150   3.352
 2851SOL    HW1 8873   2.221   3.243   3.318
 2851SOL    HW2 8874   2.150   3.098   3.339
 2852SOL     OW 8875   3.476   3.154   3.151
 2852SOL    HW1 8876   3.536   3.157   3.231
 2852SOL    HW2 8877   3.401   3.218   3.164
 2853SOL     OW 8878   2.876   2.098   2.833
 2853SOL    HW1 8879   2.868   2.062   2.740
 2853SOL    HW2 8880   2.874   2.022   2.898
 2854SOL     OW 8881   3.571   2.247   3.243
 2854SOL    HW1 8882   3.644   2.316   3.247
 2854SOL    HW2 8883   3.599   2.172   3.184
 2855SOL     OW 8884   2.117   3.210   2.152
 2855SOL    HW1 8885   2.021   3.211   2.125
 2855SOL    HW2 8886   2.129   3.263   2.236
 2856SOL     OW 8887   1.967   2.875   3.588
 2856SOL    HW1 8888   1.890   2.842   3.642
 2856SOL    HW2 8889   2.052   2.845   3.630
 2857SOL     OW 8890   1.937   2.207   1.895
 2857SOL    HW1 8891   1.845   2.179   1.866
 2857SOL    HW2 8892   1.968   2.284   1.839
 2858SOL     OW 8893   3.302   2.718   3.260
 2858SOL    HW1 8894   3.245   2.770   3.197
 2858SOL    HW2 8895   3.398   2.730   3.236
 2859SOL     OW 8896   1.934   2.028   2.180
 2859SOL    HW1 8897   1.917   2.111   2.126
 2859SOL    HW2 8898   2.024   1.991   2.158
 2860SOL     OW 8899   3.355   3.629   2.821
 2860SOL    HW1 8900   3.388   3.693   2.752
 2860SOL    HW2 8901   3.421   3.623   2.896
 2861SOL     OW 8902   3.312   3.082   3.495
 2861SOL    HW1 8903   3.303   3.072   3.594
 2861SOL    HW2 8904   3.408   3.075   3.469
 2862SOL     OW 8905   2.252   3.603   3.422
 2862SOL    HW1 8906   2.161   3.644   3.420
 2862SOL    HW2 8907   2.245   3.509   3.454
 2863SOL     OW 8908   3.536   2.745   3.116
 2863SOL    HW1 8909   3.509   2.656   3.079
 2863SOL    HW2 8910   3.537   2.813   3.043
 2864SOL     OW 8911   3.087   2.187   2.311
 2864SOL    HW1 8912   3.152   2.113   2.300
 2864SOL    HW2 8913   3.107   2.237   2.395
 2865SOL     OW 8914   3.639   2.204   3.504
 2865SOL    HW1 8915   3.622   2.235   3.410
 2865SOL    HW2 8916   3.555   2.167   3.542
 2866SOL     OW 8917   3.592   2.796   3.379
 2866SOL    HW1 8918   3.630   2.887   3.394
 2866SOL    HW2 8919   3.584   2.779   3.280
 2867SOL     OW 8920   2.523   3.652   2.815
 2867SOL    HW1 8921   2.477   3.740   2.802
 2867SOL    HW2 8922   2.622   3.664   2.808
 2868SOL     OW 8923   3.723   3.431   2.713
 2868SOL    HW1 8924   3.652   3.419   2.643
 2868SOL    HW2 8925   3.724   3.352   2.773
 2869SOL     OW 8926   2.083   3.176   3.706
 2869SOL    HW1 8927   2.018   3.103   3.685
 2869SOL    HW2 8928   2.087   3.190   3.804
 2870SOL     OW 8929   1.941   3.102   2.515
 2870SOL    HW1 8930   1.940   3.055   2.603
 2870SOL    HW2 8931   2.023   3.074   2.464
 2871SOL     OW 8932   2.534   3.253   3.486
 2871SOL    HW1 8933   2.456   3.203   3.524
 2871SOL    HW2 8934   2.531   3.348   3.517
 2872SOL     OW 8935   3.686   2.054   3.089
 2872SOL    HW1 8936   3.682   1.964   3.133
 2872SOL    HW2 8937   3.689   2.043   2.990
 2873SOL     OW 8938   2.290   2.286   2.382
 2873SOL    HW1 8939   2.320   2.214   2.320
 2873SOL    HW2 8940   2.251   2.246   2.465
 2874SOL     OW 8941   3.567   3.349   2.966
 2874SOL    HW1 8942   3.474   3.324   2.939
 2874SOL    HW2 8943   3.593   3.299   3.048
 2875SOL     OW 8944   2.179   2.409   3.142
 2875SOL    HW1 8945   2.217   2.350   3.214
 2875SOL    HW2 8946   2.219   2.383   3.054
 2876SOL     OW 8947   3.286   2.076   2.974
 2876SOL    HW1 8948   3.338   2.011   3.029
 2876SOL    HW2 8949   3.237   2.139   3.035
 2877SOL     OW 8950   2.863   1.896   3.016
 2877SOL    HW1 8951   2.800   1.824   2.985
 2877SOL    HW2 8952   2.956   1.860   3.016
 2878SOL     OW 8953   2.480   3.429   3.146
 2878SOL    HW1 8954   2.475   3.511   3.203
 2878SOL    HW2 8955   2.569   3.426   3.101
 2879SOL     OW 8956   3.214   1.914   2.030
 2879SOL    HW1 8957   3.249   1.873   1.946
 2879SOL    HW2 8958   3.124   1.876   2.050
 2880SOL     OW 8959   3.455   2.083   2.744
 2880SOL    HW1 8960   3.371   2.082   2.798
 2880SOL    HW2 8961   3.457   2.166   2.688
 2881SOL     OW 8962   1.901   2.939   2.162
 2881SOL    HW1 8963   2.000   2.928   2.153
 2881SOL    HW2 8964   1.861   2.853   2.194
 2882SOL     OW 8965   2.737   3.508   2.199
 2882SOL    HW1 8966   2.660   3.473   2.145
 2882SOL    HW2 8967   2.705   3.579   2.261
 2883SOL     OW 8968   2.092   2.490   3.837
 2883SOL    HW1 8969   1.999   2.488   3.874
 2883SOL    HW2 8970   2.093   2.451   3.745
 2884SOL     OW 8971   2.087   2.137   4.720
 2884SOL    HW1 8972   2.122   2.120   4.812
 2884SOL    HW2 8973   1.999   2.092   4.708
 2885SOL     OW 8974   1.881   2.230   4.371
 2885SOL    HW1 8975   1.799   2.273   4.410
 2885SOL    HW2 8976   1.853   2.157   4.308
 2886SOL     OW 8977   2.431   3.137   4.889
 2886SOL    HW1 8978   2.338   3.130   4.852
 2886SOL    HW2 8979   2.442   3.226   4.933
 2887SOL     OW 8980   3.417   3.373   4.427
 2887SOL    HW1 8981   3.360   3.357   4.508
 2887SOL    HW2 8982   3.358   3.383   4.347
 2888SOL     OW 8983   2.997   2.565   4.441
 2888SOL    HW1 8984   3.054   2.643   4.416
 2888SOL    HW2 8985   2.937   2.591   4.517
 2889SOL     OW 8986   3.617   2.469   3.955
 2889SOL    HW1 8987   3.605   2.456   3.856
 2889SOL    HW2 8988   3.587   2.388   4.004
 2890SOL     OW 8989   2.630   3.006   4.747
 2890SOL    HW1 8990   2.552   3.023   4.807
 2890SOL    HW2 8991   2.664   3.093   4.711
 2891SOL     OW 8992   2.712   2.660   5.547
 2891SOL    HW1 8993   2.708   2.736   5.612
 2891SOL    HW2 8994   2.734   2.696   5.456
 2892SOL     OW 8995   2.547   2.874   4.389
 2892SOL    HW1 8996   2.616   2.858   4.459
 2892SOL    HW2 8997   2.474   2.931   4.427
 2893SOL     OW 8998   2.548   3.023   5.527
 2893SOL    HW1 8999   2.608   3.102   5.541
 2893SOL    HW2 9000   2.462   3.054   5.486
 2894SOL     OW 9001   2.197   3.297   4.785
 2894SOL    HW1 9002   2.119   3.266   4.732
 2894SOL    HW2 9003   2.255   3.355   4.728
 2895SOL     OW 9004   3.322   3.367   5.063
 2895SOL    HW1 9005   3.346   3.461   5.089
 2895SOL    HW2 9006   3.306   3.313   5.145
 2896SOL     OW 9007   2.300   2.254   5.223
 2896SOL    HW1 9008   2.382   2.198   5.232
 2896SOL    HW2 9009   2.219   2.196   5.227
 2897SOL     OW 9010   3.465   2.309   4.461
 2897SOL    HW1 9011   3.391   2.355   4.411
 2897SOL    HW2 9012   3.516   2.377   4.514
 2898SOL     OW 9013   2.093   3.575   4.207
 2898SOL    HW1 9014   2.127   3.652   4.261
 2898SOL    HW2 9015   2.137   3.575   4.117
 2899SOL     OW 9016   2.989   3.203   5.414
 2899SOL    HW1 9017   3.036   3.203   5.502
 2899SOL    HW2 9018   2.941   3.116   5.403
 2900SOL     OW 9019   2.092   3.296   4.262
 2900SOL    HW1 9020   2.066   3.392   4.262
 2900SOL    HW2 9021   2.021   3.242   4.307
 2901SOL     OW 9022   2.102   2.953   4.610
 2901SOL    HW1 9023   2.116   2.869   4.662
 2901SOL    HW2 9024   2.047   3.017   4.665
 2902SOL     OW 9025   2.482   3.648   5.163
 2902SOL    HW1 9026   2.390   3.631   5.198
 2902SOL    HW2 9027   2.510   3.740   5.189
 2903SOL     OW 9028   3.456   1.976   5.204
 2903SOL    HW1 9029   3.438   2.043   5.132
 2903SOL    HW2 9030   3.453   2.022   5.293
 2904SOL     OW 9031   1.984   2.505   4.287
 2904SOL    HW1 9032   1.939   2.417   4.304
 2904SOL    HW2 9033   1.983   2.559   4.371
 2905SOL     OW 9034   3.704   3.629   4.083
 2905SOL    HW1 9035   3.758   3.600   4.163
 2905SOL    HW2 9036   3.734   3.719   4.054
 2906SOL     OW 9037   1.889   3.458   3.841
 2906SOL    HW1 9038   1.870   3.362   3.862
 2906SOL    HW2 9039   1.856   3.516   3.916
 2907SOL     OW 9040   3.551   2.784   4.336
 2907SOL    HW1 9041   3.646   2.755   4.344
 2907SOL    HW2 9042   3.543   2.849   4.261
 2908SOL     OW 9043   3.503   2.970   4.156
 2908SOL    HW1 9044   3.589   2.972   4.104
 2908SOL    HW2 9045   3.517   3.017   4.244
 2909SOL     OW 9046   1.975   2.599   5.321
 2909SOL    HW1 9047   2.063   2.586   5.366
 2909SOL    HW2 9048   1.962   2.696   5.299
 2910SOL     OW 9049   2.475   3.227   4.450
 2910SOL    HW1 9050   2.426   3.140   4.459
 2910SOL    HW2 9051   2.452   3.270   4.363
 2911SOL     OW 9052   3.155   3.090   5.147
 2911SOL    HW1 9053   3.192   3.017   5.089
 2911SOL    HW2 9054   3.207   3.095   5.232
 2912SOL     OW 9055   2.671   1.866   4.226
 2912SOL    HW1 9056   2.711   1.957   4.217
 2912SOL    HW2 9057   2.571   1.874   4.232
 2913SOL     OW 9058   2.059   2.838   4.988
 2913SOL    HW1 9059   2.148   2.793   4.974
 2913SOL    HW2 9060   1.986   2.773   4.969
 2914SOL     OW 9061   3.387   2.861   3.914
 2914SOL    HW1 9062   3.324   2.785   3.927
 2914SOL    HW2 9063   3.435   2.879   4.000
 2915SOL     OW 9064   3.049   3.654   5.340
 2915SOL    HW1 9065   3.073   3.714   5.264
 2915SOL    HW2 9066   3.056   3.559   5.310
 2916SOL     OW 9067   2.179   2.113   5.525
 2916SOL    HW1 9068   2.250   2.184   5.531
 2916SOL    HW2 9069   2.091   2.152   5.553
 2917SOL     OW 9070   3.328   3.279   4.677
 2917SOL    HW1 9071   3.269   3.285   4.757
 2917SOL    HW2 9072   3.313   3.191   4.631
 2918SOL     OW 9073   3.529   3.576   4.296
 2918SOL    HW1 9074   3.488   3.553   4.208
 2918SOL    HW2 9075   3.511   3.502   4.361
 2919SOL     OW 9076   3.143   2.207   4.668
 2919SOL    HW1 9077   3.057   2.157   4.655
 2919SOL    HW2 9078   3.205   2.153   4.724
 2920SOL     OW 9079   3.438   3.524   4.031
 2920SOL    HW1 9080   3.527   3.570   4.034
 2920SOL    HW2 9081   3.417   3.500   3.936
 2921SOL     OW 9082   2.669   2.467   5.189
 2921SOL    HW1 9083   2.622   2.464   5.278
 2921SOL    HW2 9084   2.618   2.412   5.123
 2922SOL     OW 9085   3.256   2.331   5.398
 2922SOL    HW1 9086   3.236   2.374   5.486
 2922SOL    HW2 9087   3.334   2.269   5.407
 2923SOL     OW 9088   2.835   2.752   5.296
 2923SOL    HW1 9089   2.881   2.668   5.267
 2923SOL    HW2 9090   2.779   2.786   5.221
 2924SOL     OW 9091   2.853   2.272   4.966
 2924SOL    HW1 9092   2.776   2.306   5.020
 2924SOL    HW2 9093   2.819   2.221   4.887
 2925SOL     OW 9094   1.938   2.673   4.513
 2925SOL    HW1 9095   2.037   2.661   4.522
 2925SOL    HW2 9096   1.914   2.768   4.534
 2926SOL     OW 9097   1.992   3.683   5.295
 2926SOL    HW1 9098   1.982   3.668   5.394
 2926SOL    HW2 9099   1.906   3.719   5.259
 2927SOL     OW 9100   3.581   2.447   5.555
 2927SOL    HW1 9101   3.555   2.536   5.519
 2927SOL    HW2 9102   3.579   2.379   5.482
 2928SOL     OW 9103   3.224   3.006   4.269
 2928SOL    HW1 9104   3.307   2.977   4.221
 2928SOL    HW2 9105   3.175   3.073   4.213
 2929SOL     OW 9106   2.412   2.058   4.609
 2929SOL    HW1 9107   2.407   2.053   4.709
 2929SOL    HW2 9108   2.414   2.154   4.580
 2930SOL     OW 9109   2.870   3.318   4.201
 2930SOL    HW1 9110   2.824   3.390   4.149
 2930SOL    HW2 9111   2.866   3.338   4.299
 2931SOL     OW 9112   2.213   3.663   4.577
 2931SOL    HW1 9113   2.263   3.577   4.583
 2931SOL    HW2 9114   2.278   3.740   4.574
 2932SOL     OW 9115   3.657   2.928   4.597
 2932SOL    HW1 9116   3.595   2.913   4.521
 2932SOL    HW2 9117   3.605   2.939   4.682
 2933SOL     OW 9118   3.089   3.412   5.230
 2933SOL    HW1 9119   3.095   3.335   5.294
 2933SOL    HW2 9120   3.037   3.386   5.150
 2934SOL     OW 9121   2.183   2.805   3.966
 2934SOL    HW1 9122   2.265   2.844   3.924
 2934SOL    HW2 9123   2.156   2.723   3.917
 2935SOL     OW 9124   3.320   2.597   4.452
 2935SOL    HW1 9125   3.315   2.532   4.527
 2935SOL    HW2 9126   3.400   2.656   4.465
 2936SOL     OW 9127   2.323   3.128   5.451
 2936SOL    HW1 9128   2.273   3.129   5.365
 2936SOL    HW2 9129   2.260   3.110   5.527
 2937SOL     OW 9130   2.973   3.638   3.961
 2937SOL    HW1 9131   2.913   3.576   4.011
 2937SOL    HW2 9132   3.004   3.594   3.876
 2938SOL     OW 9133   2.064   2.147   5.222
 2938SOL    HW1 9134   1.984   2.207   5.209
 2938SOL    HW2 9135   2.054   2.098   5.308
 2939SOL     OW 9136   3.494   3.239   3.805
 2939SOL    HW1 9137   3.462   3.333   3.795
 2939SOL    HW2 9138   3.418   3.176   3.793
 2940SOL     OW 9139   2.326   3.605   4.047
 2940SOL    HW1 9140   2.359   3.644   4.133
 2940SOL    HW2 9141   2.402   3.598   3.982
 2941SOL     OW 9142   3.262   1.969   4.150
 2941SOL    HW1 9143   3.238   1.932   4.060
 2941SOL    HW2 9144   3.361   1.985   4.154
 2942SOL     OW 9145   2.111   3.647   4.965
 2942SOL    HW1 9146   2.168   3.582   5.015
 2942SOL    HW2 9147   2.095   3.614   4.872
 2943SOL     OW 9148   2.802   3.560   4.628
 2943SOL    HW1 9149   2.882   3.503   4.649
 2943SOL    HW2 9150   2.753   3.520   4.551
 2944SOL     OW 9151   3.409   2.084   5.453
 2944SOL    HW1 9152   3.404   2.121   5.545
 2944SOL    HW2 9153   3.337   2.015   5.441
 2945SOL     OW 9154   2.643   2.126   5.473
 2945SOL    HW1 9155   2.710   2.065   5.516
 2945SOL    HW2 9156   2.570   2.145   5.538
 2946SOL     OW 9157   2.750   3.376   4.919
 2946SOL    HW1 9158   2.727   3.351   4.825
 2946SOL    HW2 9159   2.811   3.307   4.958
 2947SOL     OW 9160   3.213   2.452   5.157
 2947SOL    HW1 9161   3.241   2.409   5.242
 2947SOL    HW2 9162   3.238   2.548   5.158
 2948SOL     OW 9163   2.665   3.264   4.648
 2948SOL    HW1 9164   2.755   3.278   4.606
 2948SOL    HW2 9165   2.594   3.266   4.577
 2949SOL     OW 9166   2.784   2.365   4.623
 2949SOL    HW1 9167   2.759   2.356   4.527
 2949SOL    HW2 9168   2.832   2.283   4.654
 2950SOL     OW 9169   3.296   3.050   3.765
 2950SOL    HW1 9170   3.328   2.974   3.822
 2950SOL    HW2 9171   3.204   3.077   3.795
 2951SOL     OW 9172   2.938   2.545   5.188
 2951SOL    HW1 9173   2.858   2.484   5.191
 2951SOL    HW2 9174   3.019   2.492   5.164
 2952SOL     OW 9175   3.089   3.432   4.517
 2952SOL    HW1 9176   3.110   3.506   4.452
 2952SOL    HW2 9177   3.157   3.432   4.590
 2953SOL     OW 9178   2.321   3.014   4.465
 2953SOL    HW1 9179   2.250   2.987   4.530
 2953SOL    HW2 9180   2.295   2.986   4.372
 2954SOL     OW 9181   3.133   3.659   4.315
 2954SOL    HW1 9182   3.177   3.723   4.251
 2954SOL    HW2 9183   3.083   3.711   4.385
 2955SOL     OW 9184   1.940   2.418   5.110
 2955SOL    HW1 9185   2.032   2.417   5.069
 2955SOL    HW2 9186   1.934   2.492   5.177
 2956SOL     OW 9187   2.423   2.084   4.871
 2956SOL    HW1 9188   2.461   2.000   4.908
 2956SOL    HW2 9189   2.335   2.103   4.915
 2957SOL     OW 9190   2.728   2.316   4.366
 2957SOL    HW1 9191   2.696   2.388   4.304
 2957SOL    HW2 9192   2.752   2.235   4.313
 2958SOL     OW 9193   2.879   1.901   4.477
 2958SOL    HW1 9194   2.807   1.906   4.408
 2958SOL    HW2 9195   2.855   1.832   4.546
 2959SOL     OW 9196   3.291   3.035   4.591
 2959SOL    HW1 9197   3.236   2.951   4.584
 2959SOL    HW2 9198   3.317   3.064   4.499
 2960SOL     OW 9199   3.328   2.452   4.716
 2960SOL    HW1 9200   3.298   2.357   4.723
 2960SOL    HW2 9201   3.401   2.468   4.782
 2961SOL     OW 9202   3.719   2.695   4.101
 2961SOL    HW1 9203   3.761   2.631   4.165
 2961SOL    HW2 9204   3.681   2.644   4.023
 2962SOL     OW 9205   2.350   3.247   3.898
 2962SOL    HW1 9206   2.263   3.232   3.945
 2962SOL    HW2 9207   2.333   3.273   3.803
 2963SOL     OW 9208   3.526   3.142   4.381
 2963SOL    HW1 9209   3.625   3.150   4.395
 2963SOL    HW2 9210   3.481   3.226   4.412
 2964SOL     OW 9211   3.616   3.085   5.312
 2964SOL    HW1 9212   3.707   3.046   5.299
 2964SOL    HW2 9213   3.624   3.181   5.336
 2965SOL     OW 9214   2.926   3.209   5.064
 2965SOL    HW1 9215   2.846   3.186   5.119
 2965SOL    HW2 9216   3.009   3.183   5.113
 2966SOL     OW 9217   3.454   3.491   5.349
 2966SOL    HW1 9218   3.481   3.525   5.259
 2966SOL    HW2 9219   3.533   3.453   5.395
 2967SOL     OW 9220   2.973   3.057   4.824
 2967SOL    HW1 9221   2.933   3.101   4.905
 2967SOL    HW2 9222   2.932   3.094   4.741
 2968SOL     OW 9223   3.500   2.961   4.803
 2968SOL    HW1 9224   3.505   3.042   4.862
 2968SOL    HW2 9225   3.414   2.963   4.752
 2969SOL     OW 9226   2.777   1.951   5.126
 2969SOL    HW1 9227   2.802   1.931   5.031
 2969SOL    HW2 9228   2.849   2.007   5.168
 2970SOL     OW 9229   2.842   2.978   5.443
 2970SOL    HW1 9230   2.743   2.984   5.453
 2970SOL    HW2 9231   2.865   2.898   5.387
 2971SOL     OW 9232   2.272   2.675   4.975
 2971SOL    HW1 9233   2.358   2.687   5.025
 2971SOL    HW2 9234   2.230   2.588   5.002
 2972SOL     OW 9235   3.136   2.248   4.986
 2972SOL    HW1 9236   3.157   2.322   5.050
 2972SOL    HW2 9237   3.047   2.265   4.943
 2973SOL     OW 9238   1.926   3.426   5.055
 2973SOL    HW1 9239   1.880   3.508   5.021
 2973SOL    HW2 9240   2.024   3.445   5.064
 2974SOL     OW 9241   2.229   2.962   4.225
 2974SOL    HW1 9242   2.222   3.045   4.169
 2974SOL    HW2 9243   2.233   2.882   4.165
 2975SOL     OW 9244   2.428   2.399   4.589
 2975SOL    HW1 9245   2.440   2.465   4.515
 2975SOL    HW2 9246   2.474   2.433   4.672
 2976SOL     OW 9247   3.114   3.210   4.112
 2976SOL    HW1 9248   3.164   3.287   4.152
 2976SOL    HW2 9249   3.019   3.212   4.144
 2977SOL     OW 9250   3.134   3.307   4.866
 2977SOL    HW1 9251   3.181   3.320   4.953
 2977SOL    HW2 9252   3.068   3.233   4.875
 2978SOL     OW 9253   3.444   2.501   4.196
 2978SOL    HW1 9254   3.413   2.562   4.269
 2978SOL    HW2 9255   3.494   2.553   4.127
 2979SOL     OW 9256   2.216   3.372   5.053
 2979SOL    HW1 9257   2.195   3.328   4.966
 2979SOL    HW2 9258   2.313   3.398   5.056
 2980SOL     OW 9259   2.264   2.613   5.322
 2980SOL    HW1 9260   2.332   2.668   5.275
 2980SOL    HW2 9261   2.304   2.525   5.349
 2981SOL     OW 9262   3.449   2.641   5.394
 2981SOL    HW1 9263   3.357   2.679   5.389
 2981SOL    HW2 9264   3.509   2.688   5.329
 2982SOL     OW 9265   2.366   1.912   5.464
 2982SOL    HW1 9266   2.324   1.855   5.394
 2982SOL    HW2 9267   2.300   1.981   5.496
 2983SOL     OW 9268   2.435   2.732   4.753
 2983SOL    HW1 9269   2.479   2.821   4.744
 2983SOL    HW2 9270   2.372   2.732   4.830
 2984SOL     OW 9271   3.222   2.724   4.769
 2984SOL    HW1 9272   3.147   2.724   4.703
 2984SOL    HW2 9273   3.259   2.632   4.778
 2985SOL     OW 9274   2.169   2.075   4.955
 2985SOL    HW1 9275   2.146   2.112   5.045
 2985SOL    HW2 9276   2.139   1.980   4.949
 2986SOL     OW 9277   1.899   3.172   5.006
 2986SOL    HW1 9278   1.952   3.123   5.074
 2986SOL    HW2 9279   1.921   3.270   5.011
 2987SOL     OW 9280   2.594   2.496   4.788
 2987SOL    HW1 9281   2.653   2.470   4.712
 2987SOL    HW2 9282   2.566   2.592   4.777
 2988SOL     OW 9283   3.590   2.797   5.578
 2988SOL    HW1 9284   3.544   2.790   5.489
 2988SOL    HW2 9285   3.528   2.841   5.644
 2989SOL     OW 9286   3.484   2.229   4.098
 2989SOL    HW1 9287   3.486   2.153   4.162
 2989SOL    HW2 9288   3.436   2.306   4.138
 2990SOL     OW 9289   2.885   2.628   4.690
 2990SOL    HW1 9290   2.900   2.649   4.786
 2990SOL    HW2 9291   2.855   2.533   4.681
 2991SOL     OW 9292   2.842   3.435   5.424
 2991SOL    HW1 9293   2.822   3.479   5.336
 2991SOL    HW2 9294   2.881   3.344   5.408
 2992SOL     OW 9295   3.721   3.380   5.329
 2992SOL    HW1 9296   3.735   3.407   5.234
 2992SOL    HW2 9297   3.804   3.402   5.382
 2993SOL     OW 9298   2.212   2.760   5.528
 2993SOL    HW1 9299   2.288   2.804   5.576
 2993SOL    HW2 9300   2.247   2.713   5.446
 2994SOL     OW 9301   3.402   2.136   3.849
 2994SOL    HW1 9302   3.341   2.061   3.872
 2994SOL    HW2 9303   3.424   2.188   3.932
 2995SOL     OW 9304   3.165   2.700   3.766
 2995SOL    HW1 9305   3.199   2.607   3.781
 2995SOL    HW2 9306   3.183   2.727   3.671
 2996SOL     OW 9307   2.930   3.195   4.573
 2996SOL    HW1 9308   2.937   3.111   4.518
 2996SOL    HW2 9309   2.992   3.264   4.537
 2997SOL     OW 9310   2.181   2.672   4.673
 2997SOL    HW1 9311   2.274   2.708   4.678
 2997SOL    HW2 9312   2.175   2.587   4.725
 2998SOL     OW 9313   2.201   2.371   4.730
 2998SOL    HW1 9314   2.149   2.288   4.713
 2998SOL    HW2 9315   2.278   2.376   4.666
 2999SOL     OW 9316   3.000   2.242   5.402
 2999SOL    HW1 9317   2.955   2.305   5.466
 2999SOL    HW2 9318   3.093   2.273   5.385
 3000SOL     OW 9319   3.022   2.069   5.201
 3000SOL    HW1 9320   3.022   2.133   5.278
 3000SOL    HW2 9321   3.050   2.117   5.118
 3001SOL     OW 9322   1.870   3.188   3.924
 3001SOL    HW1 9323   1.777   3.209   3.893
 3001SOL    HW2 9324   1.880   3.089   3.937
 3002SOL     OW 9325   1.950   3.663   4.651
 3002SOL    HW1 9326   1.908   3.577   4.624
 3002SOL    HW2 9327   2.044   3.666   4.617
 3003SOL     OW 9328   2.366   3.430   4.634
 3003SOL    HW1 9329   2.432   3.504   4.643
 3003SOL    HW2 9330   2.410   3.351   4.592
 3004SOL     OW 9331   2.864   2.658   4.962
 3004SOL    HW1 9332   2.905   2.626   5.048
 3004SOL    HW2 9333   2.768   2.631   4.959
 3005SOL     OW 9334   1.902   2.406   4.838
 3005SOL    HW1 9335   1.987   2.373   4.797
 3005SOL    HW2 9336   1.915   2.421   4.936
 3006SOL     OW 9337   2.051   2.382   5.446
 3006SOL    HW1 9338   2.110   2.342   5.376
 3006SOL    HW2 9339   1.993   2.453   5.405
 3007SOL     OW 9340   3.231   2.812   5.384
 3007SOL    HW1 9341   3.270   2.901   5.404
 3007SOL    HW2 9342   3.241   2.792   5.287
 3008SOL     OW 9343   3.519   2.466   4.930
 3008SOL    HW1 9344   3.481   2.397   4.992
 3008SOL    HW2 9345   3.601   2.430   4.886
 3009SOL     OW 9346   2.114   3.426   5.468
 3009SOL    HW1 9347   2.084   3.483   5.544
 3009SOL    HW2 9348   2.107   3.329   5.494
 3010SOL     OW 9349   2.533   2.326   4.993
 3010SOL    HW1 9350   2.499   2.237   4.963
 3010SOL    HW2 9351   2.559   2.380   4.913
 3011SOL     OW 9352   2.792   3.540   5.189
 3011SOL    HW1 9353   2.768   3.522   5.094
 3011SOL    HW2 9354   2.822   3.634   5.199
 3012SOL     OW 9355   2.021   2.999   5.190
 3012SOL    HW1 9356   2.043   2.938   5.266
 3012SOL    HW2 9357   2.031   2.950   5.104
 3013SOL     OW 9358   3.209   2.921   4.958
 3013SOL    HW1 9359   3.233   2.858   4.884
 3013SOL    HW2 9360   3.119   2.961   4.940
 3014SOL     OW 9361   3.164   2.717   4.033
 3014SOL    HW1 9362   3.078   2.686   4.075
 3014SOL    HW2 9363   3.160   2.703   3.934
 3015SOL     OW 9364   3.621   3.609   4.878
 3015SOL    HW1 9365   3.682   3.639   4.805
 3015SOL    HW2 9366   3.583   3.520   4.856
 3016SOL     OW 9367   3.114   3.593   4.852
 3016SOL    HW1 9368   3.198   3.598   4.798
 3016SOL    HW2 9369   3.091   3.497   4.870
 3017SOL     OW 9370   1.945   3.120   4.746
 3017SOL    HW1 9371   1.940   3.119   4.846
 3017SOL    HW2 9372   1.862   3.079   4.708
 3018SOL     OW 9373   2.550   3.524   5.440
 3018SOL    HW1 9374   2.494   3.605   5.449
 3018SOL    HW2 9375   2.602   3.528   5.354
 3019SOL     OW 9376   3.588   1.997   4.247
 3019SOL    HW1 9377   3.661   1.980   4.180
 3019SOL    HW2 9378   3.557   1.910   4.285
 3020SOL     OW 9379   3.250   3.435   4.201
 3020SOL    HW1 9380   3.317   3.447   4.127
 3020SOL    HW2 9381   3.210   3.524   4.224
 3021SOL     OW 9382   1.992   3.656   5.575
 3021SOL    HW1 9383   1.951   3.582   5.628
 3021SOL    HW2 9384   2.056   3.707   5.633
 3022SOL     OW 9385   3.142   2.789   4.396
 3022SOL    HW1 9386   3.202   2.708   4.398
 3022SOL    HW2 9387   3.182   2.858   4.336
 3023SOL     OW 9388   2.692   3.135   5.146
 3023SOL    HW1 9389   2.687   3.168   5.241
 3023SOL    HW2 9390   2.606   3.154   5.100
 3024SOL     OW 9391   2.534   3.478   3.878
 3024SOL    HW1 9392   2.543   3.488   3.779
 3024SOL    HW2 9393   2.494   3.389   3.899
 3025SOL     OW 9394   3.512   3.582   5.118
 3025SOL    HW1 9395   3.565   3.592   5.034
 3025SOL    HW2 9396   3.485   3.672   5.152
 3026SOL     OW 9397   3.703   2.037   4.687
 3026SOL    HW1 9398   3.742   1.952   4.651
 3026SOL    HW2 9399   3.605   2.039   4.668
 3027SOL     OW 9400   2.125   2.188   4.444
 3027SOL    HW1 9401   2.046   2.239   4.410
 3027SOL    HW2 9402   2.116   2.173   4.542
 3028SOL     OW 9403   3.056   3.474   3.755
 3028SOL    HW1 9404   3.062   3.381   3.792
 3028SOL    HW2 9405   2.997   3.474   3.675
 3029SOL     OW 9406   2.684   2.864   5.096
 3029SOL    HW1 9407   2.724   2.863   5.004
 3029SOL    HW2 9408   2.694   2.956   5.136
 3030SOL     OW 9409   2.778   2.772   4.015
 3030SOL    HW1 9410   2.841   2.810   3.947
 3030SOL    HW2 9411   2.818   2.689   4.054
 3031SOL     OW 9412   3.366   3.469   3.768
 3031SOL    HW1 9413   3.274   3.506   3.775
 3031SOL    HW2 9414   3.404   3.489   3.678
 3032SOL     OW 9415   2.234   3.150   5.214
 3032SOL    HW1 9416   2.221   3.243   5.180
 3032SOL    HW2 9417   2.150   3.098   5.201
 3033SOL     OW 9418   3.476   3.154   5.013
 3033SOL    HW1 9419   3.536   3.157   5.093
 3033SOL    HW2 9420   3.401   3.218   5.026
 3034SOL     OW 9421   2.901   2.960   4.420
 3034SOL    HW1 9422   2.831   2.913   4.474
 3034SOL    HW2 9423   2.960   2.892   4.377
 3035SOL     OW 9424   2.876   2.098   4.695
 3035SOL    HW1 9425   2.868   2.062   4.602
 3035SOL    HW2 9426   2.874   2.022   4.760
 3036SOL     OW 9427   2.452   3.349   4.215
 3036SOL    HW1 9428   2.494   3.291   4.145
 3036SOL    HW2 9429   2.408   3.428   4.171
 3037SOL     OW 9430   3.571   2.247   5.105
 3037SOL    HW1 9431   3.644   2.316   5.109
 3037SOL    HW2 9432   3.599   2.172   5.046
 3038SOL     OW 9433   2.117   3.210   4.014
 3038SOL    HW1 9434   2.021   3.211   3.987
 3038SOL    HW2 9435   2.129   3.263   4.098
 3039SOL     OW 9436   1.967   2.875   5.450
 3039SOL    HW1 9437   1.890   2.842   5.504
 3039SOL    HW2 9438   2.052   2.845   5.492
 3040SOL     OW 9439   2.534   2.065   5.213
 3040SOL    HW1 9440   2.624   2.049   5.173
 3040SOL    HW2 9441   2.542   2.070   5.312
 3041SOL     OW 9442   1.937   2.207   3.757
 3041SOL    HW1 9443   1.845   2.179   3.728
 3041SOL    HW2 9444   1.968   2.284   3.701
 3042SOL     OW 9445   3.302   2.718   5.122
 3042SOL    HW1 9446   3.245   2.770   5.059
 3042SOL    HW2 9447   3.398   2.730   5.098
 3043SOL     OW 9448   3.045   3.197   3.843
 3043SOL    HW1 9449   2.946   3.186   3.845
 3043SOL    HW2 9450   3.079   3.212   3.936
 3044SOL     OW 9451   2.475   2.704   5.155
 3044SOL    HW1 9452   2.531   2.785   5.138
 3044SOL    HW2 9453   2.534   2.624   5.158
 3045SOL     OW 9454   3.355   3.629   4.683
 3045SOL    HW1 9455   3.388   3.693   4.614
 3045SOL    HW2 9456   3.421   3.623   4.758
 3046SOL     OW 9457   2.578   2.427   5.432
 3046SOL    HW1 9458   2.597   2.492   5.506
 3046SOL    HW2 9459   2.638   2.347   5.441
 3047SOL     OW 9460   3.312   3.082   5.357
 3047SOL    HW1 9461   3.303   3.072   5.456
 3047SOL    HW2 9462   3.408   3.075   5.331
 3048SOL     OW 9463   2.252   3.603   5.284
 3048SOL    HW1 9464   2.161   3.644   5.282
 3048SOL    HW2 9465   2.245   3.509   5.316
 3049SOL     OW 9466   3.536   2.745   4.978
 3049SOL    HW1 9467   3.509   2.656   4.941
 3049SOL    HW2 9468   3.537   2.813   4.905
 3050SOL     OW 9469   3.087   2.187   4.173
 3050SOL    HW1 9470   3.152   2.113   4.162
 3050SOL    HW2 9471   3.107   2.237   4.257
 3051SOL     OW 9472   3.639   2.204   5.366
 3051SOL    HW1 9473   3.622   2.235   5.272
 3051SOL    HW2 9474   3.555   2.167   5.404
 3052SOL     OW 9475   3.592   2.796   5.241
 3052SOL    HW1 9476   3.630   2.887   5.256
 3052SOL    HW2 9477   3.584   2.779   5.142
 3053SOL     OW 9478   2.721   3.236   3.740
 3053SOL    HW1 9479   2.675   3.251   3.828
 3053SOL    HW2 9480   2.765   3.321   3.710
 3054SOL     OW 9481   2.523   3.652   4.677
 3054SOL    HW1 9482   2.477   3.740   4.664
 3054SOL    HW2 9483   2.622   3.664   4.670
 3055SOL     OW 9484   2.721   2.818   4.585
 3055SOL    HW1 9485   2.775   2.749   4.633
 3055SOL    HW2 9486   2.689   2.887   4.651
 3056SOL     OW 9487   3.723   3.431   4.575
 3056SOL    HW1 9488   3.652   3.419   4.505
 3056SOL    HW2 9489   3.724   3.352   4.635
 3057SOL     OW 9490   2.083   3.176   5.568
 3057SOL    HW1 9491   2.018   3.103   5.547
 3057SOL    HW2 9492   2.087   3.190   5.666
 3058SOL     OW 9493   1.941   3.102   4.377
 3058SOL    HW1 9494   1.940   3.055   4.465
 3058SOL    HW2 9495   2.023   3.074   4.326
 3059SOL     OW 9496   2.534   3.253   5.348
 3059SOL    HW1 9497   2.456   3.203   5.386
 3059SOL    HW2 9498   2.531   3.348   5.379
 3060SOL     OW 9499   3.686   2.054   4.951
 3060SOL    HW1 9500   3.682   1.964   4.995
 3060SOL    HW2 9501   3.689   2.043   4.852
 3061SOL     OW 9502   3.567   3.349   4.828
 3061SOL    HW1 9503   3.474   3.324   4.801
 3061SOL    HW2 9504   3.593   3.299   4.910
 3062SOL     OW 9505   2.179   2.409   5.004
 3062SOL    HW1 9506   2.217   2.350   5.076
 3062SOL    HW2 9507   2.219   2.383   4.916
 3063SOL     OW 9508   2.674   3.448   4.411
 3063SOL    HW1 9509   2.706   3.458   4.317
 3063SOL    HW2 9510   2.595   3.386   4.413
 3064SOL     OW 9511   3.286   2.076   4.836
 3064SOL    HW1 9512   3.338   2.011   4.891
 3064SOL    HW2 9513   3.237   2.139   4.897
 3065SOL     OW 9514   2.863   1.896   4.878
 3065SOL    HW1 9515   2.800   1.824   4.847
 3065SOL    HW2 9516   2.956   1.860   4.878
 3066SOL     OW 9517   2.632   3.192   4.025
 3066SOL    HW1 9518   2.586   3.105   4.042
 3066SOL    HW2 9519   2.723   3.189   4.066
 3067SOL     OW 9520   2.480   3.429   5.008
 3067SOL    HW1 9521   2.475   3.511   5.065
 3067SOL    HW2 9522   2.569   3.426   4.963
 3068SOL     OW 9523   3.214   1.914   3.892
 3068SOL    HW1 9524   3.249   1.873   3.808
 3068SOL    HW2 9525   3.124   1.876   3.912
 3069SOL     OW 9526   3.162   2.315   4.415
 3069SOL    HW1 9527   3.103   2.395   4.419
 3069SOL    HW2 9528   3.177   2.280   4.508
 3070SOL     OW 9529   3.455   2.083   4.606
 3070SOL    HW1 9530   3.371   2.082   4.660
 3070SOL    HW2 9531   3.457   2.166   4.550
 3071SOL     OW 9532   1.901   2.939   4.024
 3071SOL    HW1 9533   2.000   2.928   4.015
 3071SOL    HW2 9534   1.861   2.853   4.056
 3072SOL     OW 9535   2.737   3.508   4.061
 3072SOL    HW1 9536   2.660   3.473   4.007
 3072SOL    HW2 9537   2.705   3.579   4.123
 3073SOL     OW 9538   2.092   4.352   0.113
 3073SOL    HW1 9539   1.999   4.350   0.150
 3073SOL    HW2 9540   2.093   4.313   0.021
 3074SOL     OW 9541   2.087   3.999   0.996
 3074SOL    HW1 9542   2.122   3.982   1.088
 3074SOL    HW2 9543   1.999   3.954   0.984
 3075SOL     OW 9544   1.881   4.092   0.647
 3075SOL    HW1 9545   1.799   4.135   0.686
 3075SOL    HW2 9546   1.853   4.019   0.584
 3076SOL     OW 9547   2.431   4.999   1.165
 3076SOL    HW1 9548   2.338   4.992   1.128
 3076SOL    HW2 9549   2.442   5.088   1.209
 3077SOL     OW 9550   3.417   5.235   0.703
 3077SOL    HW1 9551   3.360   5.219   0.784
 3077SOL    HW2 9552   3.358   5.245   0.623
 3078SOL     OW 9553   2.997   4.427   0.717
 3078SOL    HW1 9554   3.054   4.505   0.692
 3078SOL    HW2 9555   2.937   4.453   0.793
 3079SOL     OW 9556   3.617   4.331   0.231
 3079SOL    HW1 9557   3.605   4.318   0.132
 3079SOL    HW2 9558   3.587   4.250   0.280
 3080SOL     OW 9559   2.630   4.868   1.023
 3080SOL    HW1 9560   2.552   4.885   1.083
 3080SOL    HW2 9561   2.664   4.955   0.987
 3081SOL     OW 9562   2.712   4.522   1.823
 3081SOL    HW1 9563   2.708   4.598   1.888
 3081SOL    HW2 9564   2.734   4.558   1.732
 3082SOL     OW 9565   2.547   4.736   0.665
 3082SOL    HW1 9566   2.616   4.720   0.735
 3082SOL    HW2 9567   2.474   4.793   0.703
 3083SOL     OW 9568   2.548   4.885   1.803
 3083SOL    HW1 9569   2.608   4.964   1.817
 3083SOL    HW2 9570   2.462   4.916   1.762
 3084SOL     OW 9571   2.197   5.159   1.061
 3084SOL    HW1 9572   2.119   5.128   1.008
 3084SOL    HW2 9573   2.255   5.217   1.004
 3085SOL     OW 9574   3.322   5.229   1.339
 3085SOL    HW1 9575   3.346   5.323   1.365
 3085SOL    HW2 9576   3.306   5.175   1.421
 3086SOL     OW 9577   2.300   4.116   1.499
 3086SOL    HW1 9578   2.382   4.060   1.508
 3086SOL    HW2 9579   2.219   4.058   1.503
 3087SOL     OW 9580   3.465   4.171   0.737
 3087SOL    HW1 9581   3.391   4.217   0.687
 3087SOL    HW2 9582   3.516   4.239   0.790
 3088SOL     OW 9583   2.093   5.437   0.483
 3088SOL    HW1 9584   2.127   5.514   0.537
 3088SOL    HW2 9585   2.137   5.437   0.393
 3089SOL     OW 9586   2.989   5.065   1.690
 3089SOL    HW1 9587   3.036   5.065   1.778
 3089SOL    HW2 9588   2.941   4.978   1.679
 3090SOL     OW 9589   2.092   5.158   0.538
 3090SOL    HW1 9590   2.066   5.254   0.538
 3090SOL    HW2 9591   2.021   5.104   0.583
 3091SOL     OW 9592   2.102   4.815   0.886
 3091SOL    HW1 9593   2.116   4.731   0.938
 3091SOL    HW2 9594   2.047   4.879   0.941
 3092SOL     OW 9595   2.482   5.510   1.439
 3092SOL    HW1 9596   2.390   5.493   1.474
 3092SOL    HW2 9597   2.510   5.602   1.465
 3093SOL     OW 9598   2.468   4.688   0.123
 3093SOL    HW1 9599   2.475   4.772   0.069
 3093SOL    HW2 9600   2.514   4.701   0.211
 3094SOL     OW 9601   1.984   4.367   0.563
 3094SOL    HW1 9602   1.939   4.279   0.580
 3094SOL    HW2 9603   1.983   4.421   0.647
 3095SOL     OW 9604   3.704   5.491   0.359
 3095SOL    HW1 9605   3.758   5.462   0.439
 3095SOL    HW2 9606   3.734   5.581   0.330
 3096SOL     OW 9607   1.889   5.320   0.117
 3096SOL    HW1 9608   1.870   5.224   0.138
 3096SOL    HW2 9609   1.856   5.378   0.192
 3097SOL     OW 9610   3.551   4.646   0.612
 3097SOL    HW1 9611   3.646   4.617   0.620
 3097SOL    HW2 9612   3.543   4.711   0.537
 3098SOL     OW 9613   3.503   4.832   0.432
 3098SOL    HW1 9614   3.589   4.834   0.380
 3098SOL    HW2 9615   3.517   4.879   0.520
 3099SOL     OW 9616   1.975   4.461   1.597
 3099SOL    HW1 9617   2.063   4.448   1.642
 3099SOL    HW2 9618   1.962   4.558   1.575
 3100SOL     OW 9619   2.475   5.089   0.726
 3100SOL    HW1 9620   2.426   5.002   0.735
 3100SOL    HW2 9621   2.452   5.132   0.639
 3101SOL     OW 9622   3.155   4.952   1.423
 3101SOL    HW1 9623   3.192   4.879   1.365
 3101SOL    HW2 9624   3.207   4.957   1.508
 3102SOL     OW 9625   2.671   3.728   0.502
 3102SOL    HW1 9626   2.711   3.819   0.493
 3102SOL    HW2 9627   2.571   3.736   0.508
 3103SOL     OW 9628   2.059   4.700   1.264
 3103SOL    HW1 9629   2.148   4.655   1.250
 3103SOL    HW2 9630   1.986   4.635   1.245
 3104SOL     OW 9631   3.387   4.723   0.190
 3104SOL    HW1 9632   3.324   4.647   0.203
 3104SOL    HW2 9633   3.435   4.741   0.276
 3105SOL     OW 9634   3.049   5.516   1.616
 3105SOL    HW1 9635   3.073   5.576   1.540
 3105SOL    HW2 9636   3.056   5.421   1.586
 3106SOL     OW 9637   2.179   3.975   1.801
 3106SOL    HW1 9638   2.250   4.046   1.807
 3106SOL    HW2 9639   2.091   4.014   1.829
 3107SOL     OW 9640   3.328   5.141   0.953
 3107SOL    HW1 9641   3.269   5.147   1.033
 3107SOL    HW2 9642   3.313   5.053   0.907
 3108SOL     OW 9643   3.529   5.438   0.572
 3108SOL    HW1 9644   3.488   5.415   0.484
 3108SOL    HW2 9645   3.511   5.364   0.637
 3109SOL     OW 9646   2.460   4.453   0.270
 3109SOL    HW1 9647   2.484   4.522   0.202
 3109SOL    HW2 9648   2.382   4.486   0.324
 3110SOL     OW 9649   3.143   4.069   0.944
 3110SOL    HW1 9650   3.057   4.019   0.931
 3110SOL    HW2 9651   3.205   4.015   1.000
 3111SOL     OW 9652   3.438   5.386   0.307
 3111SOL    HW1 9653   3.527   5.432   0.310
 3111SOL    HW2 9654   3.417   5.362   0.212
 3112SOL     OW 9655   2.669   4.329   1.465
 3112SOL    HW1 9656   2.622   4.326   1.554
 3112SOL    HW2 9657   2.618   4.274   1.399
 3113SOL     OW 9658   3.256   4.193   1.674
 3113SOL    HW1 9659   3.236   4.236   1.762
 3113SOL    HW2 9660   3.334   4.131   1.683
 3114SOL     OW 9661   2.835   4.614   1.572
 3114SOL    HW1 9662   2.881   4.530   1.543
 3114SOL    HW2 9663   2.779   4.648   1.497
 3115SOL     OW 9664   2.853   4.134   1.242
 3115SOL    HW1 9665   2.776   4.168   1.296
 3115SOL    HW2 9666   2.819   4.083   1.163
 3116SOL     OW 9667   2.903   4.425   0.429
 3116SOL    HW1 9668   2.929   4.421   0.525
 3116SOL    HW2 9669   2.818   4.374   0.415
 3117SOL     OW 9670   1.938   4.535   0.789
 3117SOL    HW1 9671   2.037   4.523   0.798
 3117SOL    HW2 9672   1.914   4.630   0.810
 3118SOL     OW 9673   1.992   5.545   1.571
 3118SOL    HW1 9674   1.982   5.530   1.670
 3118SOL    HW2 9675   1.906   5.581   1.535
 3119SOL     OW 9676   2.727   4.072   0.195
 3119SOL    HW1 9677   2.786   4.135   0.146
 3119SOL    HW2 9678   2.746   3.978   0.166
 3120SOL     OW 9679   3.581   4.309   1.831
 3120SOL    HW1 9680   3.555   4.398   1.795
 3120SOL    HW2 9681   3.579   4.241   1.758
 3121SOL     OW 9682   3.224   4.868   0.545
 3121SOL    HW1 9683   3.307   4.839   0.497
 3121SOL    HW2 9684   3.175   4.935   0.489
 3122SOL     OW 9685   2.412   3.920   0.885
 3122SOL    HW1 9686   2.407   3.915   0.985
 3122SOL    HW2 9687   2.414   4.016   0.856
 3123SOL     OW 9688   2.870   5.180   0.477
 3123SOL    HW1 9689   2.824   5.252   0.425
 3123SOL    HW2 9690   2.866   5.200   0.575
 3124SOL     OW 9691   2.213   5.525   0.853
 3124SOL    HW1 9692   2.263   5.439   0.859
 3124SOL    HW2 9693   2.278   5.602   0.850
 3125SOL     OW 9694   3.657   4.790   0.873
 3125SOL    HW1 9695   3.595   4.775   0.797
 3125SOL    HW2 9696   3.605   4.801   0.958
 3126SOL     OW 9697   3.089   5.274   1.506
 3126SOL    HW1 9698   3.095   5.197   1.570
 3126SOL    HW2 9699   3.037   5.248   1.426
 3127SOL     OW 9700   2.183   4.667   0.242
 3127SOL    HW1 9701   2.265   4.706   0.200
 3127SOL    HW2 9702   2.156   4.585   0.193
 3128SOL     OW 9703   3.320   4.459   0.728
 3128SOL    HW1 9704   3.315   4.394   0.803
 3128SOL    HW2 9705   3.400   4.518   0.741
 3129SOL     OW 9706   2.323   4.990   1.727
 3129SOL    HW1 9707   2.273   4.991   1.641
 3129SOL    HW2 9708   2.260   4.972   1.803
 3130SOL     OW 9709   2.973   5.500   0.237
 3130SOL    HW1 9710   2.913   5.438   0.287
 3130SOL    HW2 9711   3.004   5.456   0.152
 3131SOL     OW 9712   2.064   4.009   1.498
 3131SOL    HW1 9713   1.984   4.069   1.485
 3131SOL    HW2 9714   2.054   3.960   1.584
 3132SOL     OW 9715   3.494   5.101   0.081
 3132SOL    HW1 9716   3.462   5.195   0.071
 3132SOL    HW2 9717   3.418   5.038   0.069
 3133SOL     OW 9718   2.326   5.467   0.323
 3133SOL    HW1 9719   2.359   5.506   0.409
 3133SOL    HW2 9720   2.402   5.460   0.258
 3134SOL     OW 9721   3.262   3.831   0.426
 3134SOL    HW1 9722   3.238   3.794   0.336
 3134SOL    HW2 9723   3.361   3.847   0.430
 3135SOL     OW 9724   2.111   5.509   1.241
 3135SOL    HW1 9725   2.168   5.444   1.291
 3135SOL    HW2 9726   2.095   5.476   1.148
 3136SOL     OW 9727   2.802   5.422   0.904
 3136SOL    HW1 9728   2.882   5.365   0.925
 3136SOL    HW2 9729   2.753   5.382   0.827
 3137SOL     OW 9730   2.244   4.424   0.480
 3137SOL    HW1 9731   2.289   4.334   0.477
 3137SOL    HW2 9732   2.150   4.413   0.513
 3138SOL     OW 9733   3.409   3.946   1.729
 3138SOL    HW1 9734   3.404   3.983   1.821
 3138SOL    HW2 9735   3.337   3.877   1.717
 3139SOL     OW 9736   2.476   3.846   0.117
 3139SOL    HW1 9737   2.574   3.824   0.124
 3139SOL    HW2 9738   2.445   3.829   0.024
 3140SOL     OW 9739   2.643   3.988   1.749
 3140SOL    HW1 9740   2.710   3.927   1.792
 3140SOL    HW2 9741   2.570   4.007   1.814
 3141SOL     OW 9742   2.750   5.238   1.195
 3141SOL    HW1 9743   2.727   5.213   1.101
 3141SOL    HW2 9744   2.811   5.169   1.234
 3142SOL     OW 9745   3.213   4.314   1.433
 3142SOL    HW1 9746   3.241   4.271   1.518
 3142SOL    HW2 9747   3.238   4.410   1.434
 3143SOL     OW 9748   2.665   5.126   0.924
 3143SOL    HW1 9749   2.755   5.140   0.882
 3143SOL    HW2 9750   2.594   5.128   0.853
 3144SOL     OW 9751   2.784   4.227   0.899
 3144SOL    HW1 9752   2.759   4.218   0.803
 3144SOL    HW2 9753   2.832   4.145   0.930
 3145SOL     OW 9754   2.401   3.788   0.512
 3145SOL    HW1 9755   2.320   3.789   0.570
 3145SOL    HW2 9756   2.404   3.871   0.457
 3146SOL     OW 9757   3.296   4.912   0.041
 3146SOL    HW1 9758   3.328   4.836   0.098
 3146SOL    HW2 9759   3.204   4.939   0.071
 3147SOL     OW 9760   2.159   3.759   0.171
 3147SOL    HW1 9761   2.208   3.843   0.150
 3147SOL    HW2 9762   2.221   3.694   0.216
 3148SOL     OW 9763   2.797   3.960   0.480
 3148SOL    HW1 9764   2.749   4.001   0.402
 3148SOL    HW2 9765   2.896   3.958   0.461
 3149SOL     OW 9766   2.938   4.407   1.464
 3149SOL    HW1 9767   2.858   4.346   1.467
 3149SOL    HW2 9768   3.019   4.354   1.440
 3150SOL     OW 9769   3.089   5.294   0.793
 3150SOL    HW1 9770   3.110   5.368   0.728
 3150SOL    HW2 9771   3.157   5.294   0.866
 3151SOL     OW 9772   2.321   4.876   0.741
 3151SOL    HW1 9773   2.250   4.849   0.806
 3151SOL    HW2 9774   2.295   4.848   0.648
 3152SOL     OW 9775   3.133   5.521   0.591
 3152SOL    HW1 9776   3.177   5.585   0.527
 3152SOL    HW2 9777   3.083   5.573   0.661
 3153SOL     OW 9778   2.894   4.273   0.016
 3153SOL    HW1 9779   2.853   4.355  -0.023
 3153SOL    HW2 9780   2.958   4.299   0.089
 3154SOL     OW 9781   1.940   4.280   1.386
 3154SOL    HW1 9782   2.032   4.279   1.345
 3154SOL    HW2 9783   1.934   4.354   1.453
 3155SOL     OW 9784   2.423   3.946   1.147
 3155SOL    HW1 9785   2.461   3.862   1.184
 3155SOL    HW2 9786   2.335   3.965   1.191
 3156SOL     OW 9787   2.728   4.178   0.642
 3156SOL    HW1 9788   2.696   4.250   0.580
 3156SOL    HW2 9789   2.752   4.097   0.589
 3157SOL     OW 9790   2.879   3.763   0.753
 3157SOL    HW1 9791   2.807   3.768   0.684
 3157SOL    HW2 9792   2.855   3.694   0.822
 3158SOL     OW 9793   3.291   4.897   0.867
 3158SOL    HW1 9794   3.236   4.813   0.860
 3158SOL    HW2 9795   3.317   4.926   0.775
 3159SOL     OW 9796   3.328   4.314   0.992
 3159SOL    HW1 9797   3.298   4.219   0.999
 3159SOL    HW2 9798   3.401   4.330   1.058
 3160SOL     OW 9799   3.719   4.557   0.377
 3160SOL    HW1 9800   3.761   4.493   0.441
 3160SOL    HW2 9801   3.681   4.506   0.299
 3161SOL     OW 9802   2.350   5.109   0.174
 3161SOL    HW1 9803   2.263   5.094   0.221
 3161SOL    HW2 9804   2.333   5.135   0.079
 3162SOL     OW 9805   3.526   5.004   0.657
 3162SOL    HW1 9806   3.625   5.012   0.671
 3162SOL    HW2 9807   3.481   5.088   0.688
 3163SOL     OW 9808   3.252   4.299   0.078
 3163SOL    HW1 9809   3.198   4.278   0.159
 3163SOL    HW2 9810   3.343   4.258   0.087
 3164SOL     OW 9811   2.389   3.980   0.328
 3164SOL    HW1 9812   2.416   3.921   0.253
 3164SOL    HW2 9813   2.389   4.075   0.297
 3165SOL     OW 9814   3.616   4.947   1.588
 3165SOL    HW1 9815   3.707   4.908   1.575
 3165SOL    HW2 9816   3.624   5.043   1.612
 3166SOL     OW 9817   2.926   5.071   1.340
 3166SOL    HW1 9818   2.846   5.048   1.395
 3166SOL    HW2 9819   3.009   5.045   1.389
 3167SOL     OW 9820   3.454   5.353   1.625
 3167SOL    HW1 9821   3.481   5.387   1.535
 3167SOL    HW2 9822   3.533   5.315   1.671
 3168SOL     OW 9823   2.973   4.919   1.100
 3168SOL    HW1 9824   2.933   4.963   1.181
 3168SOL    HW2 9825   2.932   4.956   1.017
 3169SOL     OW 9826   3.500   4.823   1.079
 3169SOL    HW1 9827   3.505   4.904   1.138
 3169SOL    HW2 9828   3.414   4.825   1.028
 3170SOL     OW 9829   2.842   4.840   1.719
 3170SOL    HW1 9830   2.743   4.846   1.729
 3170SOL    HW2 9831   2.865   4.760   1.663
 3171SOL     OW 9832   2.567   4.774   0.368
 3171SOL    HW1 9833   2.553   4.781   0.467
 3171SOL    HW2 9834   2.651   4.723   0.350
 3172SOL     OW 9835   2.272   4.537   1.251
 3172SOL    HW1 9836   2.358   4.549   1.301
 3172SOL    HW2 9837   2.230   4.450   1.278
 3173SOL     OW 9838   3.136   4.110   1.262
 3173SOL    HW1 9839   3.157   4.184   1.326
 3173SOL    HW2 9840   3.047   4.127   1.219
 3174SOL     OW 9841   1.926   5.288   1.331
 3174SOL    HW1 9842   1.880   5.370   1.297
 3174SOL    HW2 9843   2.024   5.307   1.340
 3175SOL     OW 9844   2.229   4.824   0.501
 3175SOL    HW1 9845   2.222   4.907   0.445
 3175SOL    HW2 9846   2.233   4.744   0.441
 3176SOL     OW 9847   2.428   4.261   0.865
 3176SOL    HW1 9848   2.440   4.327   0.791
 3176SOL    HW2 9849   2.474   4.295   0.948
 3177SOL     OW 9850   3.114   5.072   0.388
 3177SOL    HW1 9851   3.164   5.149   0.428
 3177SOL    HW2 9852   3.019   5.074   0.420
 3178SOL     OW 9853   3.134   5.169   1.142
 3178SOL    HW1 9854   3.181   5.182   1.229
 3178SOL    HW2 9855   3.068   5.095   1.151
 3179SOL     OW 9856   3.444   4.363   0.472
 3179SOL    HW1 9857   3.413   4.424   0.545
 3179SOL    HW2 9858   3.494   4.415   0.403
 3180SOL     OW 9859   2.216   5.234   1.329
 3180SOL    HW1 9860   2.195   5.190   1.242
 3180SOL    HW2 9861   2.313   5.260   1.332
 3181SOL     OW 9862   2.264   4.475   1.598
 3181SOL    HW1 9863   2.332   4.530   1.551
 3181SOL    HW2 9864   2.304   4.387   1.625
 3182SOL     OW 9865   3.449   4.503   1.670
 3182SOL    HW1 9866   3.357   4.541   1.665
 3182SOL    HW2 9867   3.509   4.550   1.605
 3183SOL     OW 9868   2.366   3.774   1.740
 3183SOL    HW1 9869   2.324   3.717   1.670
 3183SOL    HW2 9870   2.300   3.843   1.772
 3184SOL     OW 9871   2.435   4.594   1.029
 3184SOL    HW1 9872   2.479   4.683   1.020
 3184SOL    HW2 9873   2.372   4.594   1.106
 3185SOL     OW 9874   3.222   4.586   1.045
 3185SOL    HW1 9875   3.147   4.586   0.979
 3185SOL    HW2 9876   3.259   4.494   1.054
 3186SOL     OW 9877   3.071   4.249   0.275
 3186SOL    HW1 9878   3.084   4.165   0.329
 3186SOL    HW2 9879   3.042   4.323   0.335
 3187SOL     OW 9880   2.169   3.937   1.231
 3187SOL    HW1 9881   2.146   3.974   1.321
 3187SOL    HW2 9882   2.139   3.842   1.225
 3188SOL     OW 9883   1.899   5.034   1.282
 3188SOL    HW1 9884   1.952   4.985   1.350
 3188SOL    HW2 9885   1.921   5.132   1.287
 3189SOL     OW 9886   2.594   4.358   1.064
 3189SOL    HW1 9887   2.653   4.332   0.988
 3189SOL    HW2 9888   2.566   4.454   1.053
 3190SOL     OW 9889   3.590   4.659   1.854
 3190SOL    HW1 9890   3.544   4.652   1.765
 3190SOL    HW2 9891   3.528   4.703   1.920
 3191SOL     OW 9892   2.169   3.787   0.618
 3191SOL    HW1 9893   2.158   3.881   0.651
 3191SOL    HW2 9894   2.164   3.724   0.695
 3192SOL     OW 9895   3.484   4.091   0.374
 3192SOL    HW1 9896   3.486   4.015   0.438
 3192SOL    HW2 9897   3.436   4.168   0.414
 3193SOL     OW 9898   2.885   4.490   0.966
 3193SOL    HW1 9899   2.900   4.511   1.062
 3193SOL    HW2 9900   2.855   4.395   0.957
 3194SOL     OW 9901   2.842   5.297   1.700
 3194SOL    HW1 9902   2.822   5.341   1.612
 3194SOL    HW2 9903   2.881   5.206   1.684
 3195SOL     OW 9904   3.721   5.242   1.605
 3195SOL    HW1 9905   3.735   5.269   1.510
 3195SOL    HW2 9906   3.804   5.264   1.658
 3196SOL     OW 9907   2.212   4.622   1.804
 3196SOL    HW1 9908   2.288   4.666   1.852
 3196SOL    HW2 9909   2.247   4.575   1.722
 3197SOL     OW 9910   3.402   3.998   0.125
 3197SOL    HW1 9911   3.341   3.923   0.148
 3197SOL    HW2 9912   3.424   4.050   0.208
 3198SOL     OW 9913   3.165   4.562   0.042
 3198SOL    HW1 9914   3.199   4.469   0.057
 3198SOL    HW2 9915   3.183   4.589  -0.053
 3199SOL     OW 9916   2.930   5.057   0.849
 3199SOL    HW1 9917   2.937   4.973   0.794
 3199SOL    HW2 9918   2.992   5.126   0.813
 3200SOL     OW 9919   2.181   4.534   0.949
 3200SOL    HW1 9920   2.274   4.570   0.954
 3200SOL    HW2 9921   2.175   4.449   1.001
 3201SOL     OW 9922   2.201   4.233   1.006
 3201SOL    HW1 9923   2.149   4.150   0.989
 3201SOL    HW2 9924   2.278   4.238   0.942
 3202SOL     OW 9925   3.000   4.104   1.678
 3202SOL    HW1 9926   2.955   4.167   1.742
 3202SOL    HW2 9927   3.093   4.135   1.661
 3203SOL     OW 9928   3.022   3.931   1.477
 3203SOL    HW1 9929   3.022   3.995   1.554
 3203SOL    HW2 9930   3.050   3.979   1.394
 3204SOL     OW 9931   1.870   5.050   0.200
 3204SOL    HW1 9932   1.777   5.071   0.169
 3204SOL    HW2 9933   1.880   4.951   0.213
 3205SOL     OW 9934   1.950   5.525   0.927
 3205SOL    HW1 9935   1.908   5.439   0.900
 3205SOL    HW2 9936   2.044   5.528   0.893
 3206SOL     OW 9937   2.366   5.292   0.910
 3206SOL    HW1 9938   2.432   5.366   0.919
 3206SOL    HW2 9939   2.410   5.213   0.868
 3207SOL     OW 9940   2.864   4.520   1.238
 3207SOL    HW1 9941   2.905   4.488   1.324
 3207SOL    HW2 9942   2.768   4.493   1.235
 3208SOL     OW 9943   1.902   4.268   1.114
 3208SOL    HW1 9944   1.987   4.235   1.073
 3208SOL    HW2 9945   1.915   4.283   1.212
 3209SOL     OW 9946   2.051   4.244   1.722
 3209SOL    HW1 9947   2.110   4.204   1.652
 3209SOL    HW2 9948   1.993   4.315   1.681
 3210SOL     OW 9949   3.231   4.674   1.660
 3210SOL    HW1 9950   3.270   4.763   1.680
 3210SOL    HW2 9951   3.241   4.654   1.563
 3211SOL     OW 9952   2.677   4.296   0.325
 3211SOL    HW1 9953   2.684   4.207   0.279
 3211SOL    HW2 9954   2.583   4.330   0.317
 3212SOL     OW 9955   3.519   4.328   1.206
 3212SOL    HW1 9956   3.481   4.259   1.268
 3212SOL    HW2 9957   3.601   4.292   1.162
 3213SOL     OW 9958   2.114   5.288   1.744
 3213SOL    HW1 9959   2.084   5.345   1.820
 3213SOL    HW2 9960   2.107   5.191   1.770
 3214SOL     OW 9961   2.533   4.188   1.269
 3214SOL    HW1 9962   2.499   4.099   1.239
 3214SOL    HW2 9963   2.559   4.242   1.189
 3215SOL     OW 9964   2.792   5.402   1.465
 3215SOL    HW1 9965   2.768   5.384   1.370
 3215SOL    HW2 9966   2.822   5.496   1.475
 3216SOL     OW 9967   2.335   4.224   0.191
 3216SOL    HW1 9968   2.396   4.304   0.195
 3216SOL    HW2 9969   2.240   4.255   0.198
 3217SOL     OW 9970   2.021   4.861   1.466
 3217SOL    HW1 9971   2.043   4.800   1.542
 3217SOL    HW2 9972   2.031   4.812   1.380
 3218SOL     OW 9973   3.209   4.783   1.234
 3218SOL    HW1 9974   3.233   4.720   1.160
 3218SOL    HW2 9975   3.119   4.823   1.216
 3219SOL     OW 9976   3.164   4.579   0.309
 3219SOL    HW1 9977   3.078   4.548   0.351
 3219SOL    HW2 9978   3.160   4.565   0.210
 3220SOL     OW 9979   3.621   5.471   1.154
 3220SOL    HW1 9980   3.682   5.501   1.081
 3220SOL    HW2 9981   3.583   5.382   1.132
 3221SOL     OW 9982   3.114   5.455   1.128
 3221SOL    HW1 9983   3.198   5.460   1.074
 3221SOL    HW2 9984   3.091   5.359   1.146
 3222SOL     OW 9985   1.945   4.982   1.022
 3222SOL    HW1 9986   1.940   4.981   1.122
 3222SOL    HW2 9987   1.862   4.941   0.984
 3223SOL     OW 9988   2.550   5.386   1.716
 3223SOL    HW1 9989   2.494   5.467   1.725
 3223SOL    HW2 9990   2.602   5.390   1.630
 3224SOL     OW 9991   2.765   3.810   0.133
 3224SOL    HW1 9992   2.816   3.811   0.047
 3224SOL    HW2 9993   2.821   3.768   0.204
 3225SOL     OW 9994   3.588   3.859   0.523
 3225SOL    HW1 9995   3.661   3.842   0.456
 3225SOL    HW2 9996   3.557   3.772   0.561
 3226SOL     OW 9997   3.250   5.297   0.477
 3226SOL    HW1 9998   3.317   5.309   0.403
 3226SOL    HW2 9999   3.210   5.386   0.500
 3227SOL     OW10000   1.992   5.518   1.851
 3227SOL    HW110001   1.951   5.444   1.904
 3227SOL    HW210002   2.056   5.569   1.909
 3228SOL     OW10003   3.142   4.651   0.672
 3228SOL    HW110004   3.202   4.570   0.674
 3228SOL    HW210005   3.182   4.720   0.612
 3229SOL     OW10006   2.692   4.997   1.422
 3229SOL    HW110007   2.687   5.030   1.517
 3229SOL    HW210008   2.606   5.016   1.376
 3230SOL     OW10009   2.534   5.340   0.154
 3230SOL    HW110010   2.543   5.350   0.055
 3230SOL    HW210011   2.494   5.251   0.175
 3231SOL     OW10012   3.512   5.444   1.394
 3231SOL    HW110013   3.565   5.454   1.310
 3231SOL    HW210014   3.485   5.534   1.428
 3232SOL     OW10015   3.703   3.899   0.963
 3232SOL    HW110016   3.742   3.814   0.927
 3232SOL    HW210017   3.605   3.901   0.944
 3233SOL     OW10018   2.125   4.050   0.720
 3233SOL    HW110019   2.046   4.101   0.686
 3233SOL    HW210020   2.116   4.035   0.818
 3234SOL     OW10021   3.056   5.336   0.031
 3234SOL    HW110022   3.062   5.243   0.068
 3234SOL    HW210023   2.997   5.336  -0.049
 3235SOL     OW10024   2.684   4.726   1.372
 3235SOL    HW110025   2.724   4.725   1.280
 3235SOL    HW210026   2.694   4.818   1.412
 3236SOL     OW10027   2.778   4.634   0.291
 3236SOL    HW110028   2.841   4.672   0.223
 3236SOL    HW210029   2.818   4.551   0.330
 3237SOL     OW10030   3.366   5.331   0.044
 3237SOL    HW110031   3.274   5.368   0.051
 3237SOL    HW210032   3.404   5.351  -0.046
 3238SOL     OW10033   2.234   5.012   1.490
 3238SOL    HW110034   2.221   5.105   1.456
 3238SOL    HW210035   2.150   4.960   1.477
 3239SOL     OW10036   3.476   5.016   1.289
 3239SOL    HW110037   3.536   5.019   1.369
 3239SOL    HW210038   3.401   5.080   1.302
 3240SOL     OW10039   2.901   4.822   0.696
 3240SOL    HW110040   2.831   4.775   0.750
 3240SOL    HW210041   2.960   4.754   0.653
 3241SOL     OW10042   2.876   3.960   0.971
 3241SOL    HW110043   2.868   3.924   0.878
 3241SOL    HW210044   2.874   3.884   1.036
 3242SOL     OW10045   2.452   5.211   0.491
 3242SOL    HW110046   2.494   5.153   0.421
 3242SOL    HW210047   2.408   5.290   0.447
 3243SOL     OW10048   3.571   4.109   1.381
 3243SOL    HW110049   3.644   4.178   1.385
 3243SOL    HW210050   3.599   4.034   1.322
 3244SOL     OW10051   2.117   5.072   0.290
 3244SOL    HW110052   2.021   5.073   0.263
 3244SOL    HW210053   2.129   5.125   0.374
 3245SOL     OW10054   1.967   4.737   1.726
 3245SOL    HW110055   1.890   4.704   1.780
 3245SOL    HW210056   2.052   4.707   1.768
 3246SOL     OW10057   2.534   3.927   1.489
 3246SOL    HW110058   2.624   3.911   1.449
 3246SOL    HW210059   2.542   3.932   1.588
 3247SOL     OW10060   1.937   4.069   0.033
 3247SOL    HW110061   1.845   4.041   0.004
 3247SOL    HW210062   1.968   4.146  -0.023
 3248SOL     OW10063   3.302   4.580   1.398
 3248SOL    HW110064   3.245   4.632   1.335
 3248SOL    HW210065   3.398   4.592   1.374
 3249SOL     OW10066   1.934   3.890   0.318
 3249SOL    HW110067   1.917   3.973   0.264
 3249SOL    HW210068   2.024   3.853   0.296
 3250SOL     OW10069   3.045   5.059   0.119
 3250SOL    HW110070   2.946   5.048   0.121
 3250SOL    HW210071   3.079   5.074   0.212
 3251SOL     OW10072   2.475   4.566   1.431
 3251SOL    HW110073   2.531   4.647   1.414
 3251SOL    HW210074   2.534   4.486   1.434
 3252SOL     OW10075   3.355   5.491   0.959
 3252SOL    HW110076   3.388   5.555   0.890
 3252SOL    HW210077   3.421   5.485   1.034
 3253SOL     OW10078   2.578   4.289   1.708
 3253SOL    HW110079   2.597   4.354   1.782
 3253SOL    HW210080   2.638   4.209   1.717
 3254SOL     OW10081   3.312   4.944   1.633
 3254SOL    HW110082   3.303   4.934   1.732
 3254SOL    HW210083   3.408   4.937   1.607
 3255SOL     OW10084   2.252   5.465   1.560
 3255SOL    HW110085   2.161   5.506   1.558
 3255SOL    HW210086   2.245   5.371   1.592
 3256SOL     OW10087   3.536   4.607   1.254
 3256SOL    HW110088   3.509   4.518   1.217
 3256SOL    HW210089   3.537   4.675   1.181
 3257SOL     OW10090   3.087   4.049   0.449
 3257SOL    HW110091   3.152   3.975   0.438
 3257SOL    HW210092   3.107   4.099   0.533
 3258SOL     OW10093   2.456   4.469   0.652
 3258SOL    HW110094   2.506   4.554   0.633
 3258SOL    HW210095   2.368   4.471   0.604
 3259SOL     OW10096   3.639   4.066   1.642
 3259SOL    HW110097   3.622   4.097   1.548
 3259SOL    HW210098   3.555   4.029   1.680
 3260SOL     OW10099   3.592   4.658   1.517
 3260SOL    HW110100   3.630   4.749   1.532
 3260SOL    HW210101   3.584   4.641   1.418
 3261SOL     OW10102   2.721   5.098   0.016
 3261SOL    HW110103   2.675   5.113   0.104
 3261SOL    HW210104   2.765   5.183  -0.014
 3262SOL     OW10105   2.523   5.514   0.953
 3262SOL    HW110106   2.477   5.602   0.940
 3262SOL    HW210107   2.622   5.526   0.946
 3263SOL     OW10108   2.721   4.680   0.861
 3263SOL    HW110109   2.775   4.611   0.909
 3263SOL    HW210110   2.689   4.749   0.927
 3264SOL     OW10111   2.945   4.708   0.087
 3264SOL    HW110112   2.922   4.761   0.005
 3264SOL    HW210113   3.026   4.652   0.068
 3265SOL     OW10114   3.723   5.293   0.851
 3265SOL    HW110115   3.652   5.281   0.781
 3265SOL    HW210116   3.724   5.214   0.911
 3266SOL     OW10117   2.083   5.038   1.844
 3266SOL    HW110118   2.018   4.965   1.823
 3266SOL    HW210119   2.087   5.052   1.942
 3267SOL     OW10120   1.941   4.964   0.653
 3267SOL    HW110121   1.940   4.917   0.741
 3267SOL    HW210122   2.023   4.936   0.602
 3268SOL     OW10123   2.534   5.115   1.624
 3268SOL    HW110124   2.456   5.065   1.662
 3268SOL    HW210125   2.531   5.210   1.655
 3269SOL     OW10126   3.686   3.916   1.227
 3269SOL    HW110127   3.682   3.826   1.271
 3269SOL    HW210128   3.689   3.905   1.128
 3270SOL     OW10129   2.290   4.148   0.520
 3270SOL    HW110130   2.320   4.076   0.458
 3270SOL    HW210131   2.251   4.108   0.603
 3271SOL     OW10132   3.567   5.211   1.104
 3271SOL    HW110133   3.474   5.186   1.077
 3271SOL    HW210134   3.593   5.161   1.186
 3272SOL     OW10135   2.179   4.271   1.280
 3272SOL    HW110136   2.217   4.212   1.352
 3272SOL    HW210137   2.219   4.245   1.192
 3273SOL     OW10138   2.674   5.310   0.687
 3273SOL    HW110139   2.706   5.320   0.593
 3273SOL    HW210140   2.595   5.248   0.689
 3274SOL     OW10141   3.286   3.938   1.112
 3274SOL    HW110142   3.338   3.873   1.167
 3274SOL    HW210143   3.237   4.001   1.173
 3275SOL     OW10144   2.863   3.758   1.154
 3275SOL    HW110145   2.800   3.686   1.123
 3275SOL    HW210146   2.956   3.722   1.154
 3276SOL     OW10147   2.632   5.054   0.301
 3276SOL    HW110148   2.586   4.967   0.318
 3276SOL    HW210149   2.723   5.051   0.342
 3277SOL     OW10150   2.480   5.291   1.284
 3277SOL    HW110151   2.475   5.373   1.341
 3277SOL    HW210152   2.569   5.288   1.239
 3278SOL     OW10153   3.214   3.776   0.168
 3278SOL    HW110154   3.249   3.735   0.084
 3278SOL    HW210155   3.124   3.738   0.188
 3279SOL     OW10156   3.162   4.177   0.691
 3279SOL    HW110157   3.103   4.257   0.695
 3279SOL    HW210158   3.177   4.142   0.784
 3280SOL     OW10159   3.455   3.945   0.882
 3280SOL    HW110160   3.371   3.944   0.936
 3280SOL    HW210161   3.457   4.028   0.826
 3281SOL     OW10162   1.901   4.801   0.300
 3281SOL    HW110163   2.000   4.790   0.291
 3281SOL    HW210164   1.861   4.715   0.332
 3282SOL     OW10165   2.737   5.370   0.337
 3282SOL    HW110166   2.660   5.335   0.283
 3282SOL    HW210167   2.705   5.441   0.399
 3283SOL     OW10168   2.092   4.352   1.975
 3283SOL    HW110169   1.999   4.350   2.012
 3283SOL    HW210170   2.093   4.313   1.883
 3284SOL     OW10171   2.087   3.999   2.858
 3284SOL    HW110172   2.122   3.982   2.950
 3284SOL    HW210173   1.999   3.954   2.846
 3285SOL     OW10174   1.881   4.092   2.509
 3285SOL    HW110175   1.799   4.135   2.548
 3285SOL    HW210176   1.853   4.019   2.446
 3286SOL     OW10177   2.431   4.999   3.027
 3286SOL    HW110178   2.338   4.992   2.990
 3286SOL    HW210179   2.442   5.088   3.071
 3287SOL     OW10180   3.417   5.235   2.565
 3287SOL    HW110181   3.360   5.219   2.646
 3287SOL    HW210182   3.358   5.245   2.485
 3288SOL     OW10183   2.997   4.427   2.579
 3288SOL    HW110184   3.054   4.505   2.554
 3288SOL    HW210185   2.937   4.453   2.655
 3289SOL     OW10186   3.617   4.331   2.093
 3289SOL    HW110187   3.605   4.318   1.994
 3289SOL    HW210188   3.587   4.250   2.142
 3290SOL     OW10189   2.630   4.868   2.885
 3290SOL    HW110190   2.552   4.885   2.945
 3290SOL    HW210191   2.664   4.955   2.849
 3291SOL     OW10192   2.712   4.522   3.685
 3291SOL    HW110193   2.708   4.598   3.750
 3291SOL    HW210194   2.734   4.558   3.594
 3292SOL     OW10195   2.547   4.736   2.527
 3292SOL    HW110196   2.616   4.720   2.597
 3292SOL    HW210197   2.474   4.793   2.565
 3293SOL     OW10198   2.548   4.885   3.665
 3293SOL    HW110199   2.608   4.964   3.679
 3293SOL    HW210200   2.462   4.916   3.624
 3294SOL     OW10201   2.197   5.159   2.923
 3294SOL    HW110202   2.119   5.128   2.870
 3294SOL    HW210203   2.255   5.217   2.866
 3295SOL     OW10204   3.322   5.229   3.201
 3295SOL    HW110205   3.346   5.323   3.227
 3295SOL    HW210206   3.306   5.175   3.283
 3296SOL     OW10207   2.300   4.116   3.361
 3296SOL    HW110208   2.382   4.060   3.370
 3296SOL    HW210209   2.219   4.058   3.365
 3297SOL     OW10210   3.465   4.171   2.599
 3297SOL    HW110211   3.391   4.217   2.549
 3297SOL    HW210212   3.516   4.239   2.652
 3298SOL     OW10213   2.093   5.437   2.345
 3298SOL    HW110214   2.127   5.514   2.399
 3298SOL    HW210215   2.137   5.437   2.255
 3299SOL     OW10216   2.989   5.065   3.552
 3299SOL    HW110217   3.036   5.065   3.640
 3299SOL    HW210218   2.941   4.978   3.541
 3300SOL     OW10219   2.092   5.158   2.400
 3300SOL    HW110220   2.066   5.254   2.400
 3300SOL    HW210221   2.021   5.104   2.445
 3301SOL     OW10222   2.102   4.815   2.748
 3301SOL    HW110223   2.116   4.731   2.800
 3301SOL    HW210224   2.047   4.879   2.803
 3302SOL     OW10225   2.482   5.510   3.301
 3302SOL    HW110226   2.390   5.493   3.336
 3302SOL    HW210227   2.510   5.602   3.327
 3303SOL     OW10228   2.468   4.688   1.985
 3303SOL    HW110229   2.475   4.772   1.931
 3303SOL    HW210230   2.514   4.701   2.073
 3304SOL     OW10231   3.456   3.838   3.342
 3304SOL    HW110232   3.438   3.905   3.270
 3304SOL    HW210233   3.453   3.884   3.431
 3305SOL     OW10234   1.984   4.367   2.425
 3305SOL    HW110235   1.939   4.279   2.442
 3305SOL    HW210236   1.983   4.421   2.509
 3306SOL     OW10237   3.704   5.491   2.221
 3306SOL    HW110238   3.758   5.462   2.301
 3306SOL    HW210239   3.734   5.581   2.192
 3307SOL     OW10240   1.889   5.320   1.979
 3307SOL    HW110241   1.870   5.224   2.000
 3307SOL    HW210242   1.856   5.378   2.054
 3308SOL     OW10243   3.551   4.646   2.474
 3308SOL    HW110244   3.646   4.617   2.482
 3308SOL    HW210245   3.543   4.711   2.399
 3309SOL     OW10246   3.503   4.832   2.294
 3309SOL    HW110247   3.589   4.834   2.242
 3309SOL    HW210248   3.517   4.879   2.382
 3310SOL     OW10249   1.975   4.461   3.459
 3310SOL    HW110250   2.063   4.448   3.504
 3310SOL    HW210251   1.962   4.558   3.437
 3311SOL     OW10252   2.475   5.089   2.588
 3311SOL    HW110253   2.426   5.002   2.597
 3311SOL    HW210254   2.452   5.132   2.501
 3312SOL     OW10255   3.155   4.952   3.285
 3312SOL    HW110256   3.192   4.879   3.227
 3312SOL    HW210257   3.207   4.957   3.370
 3313SOL     OW10258   2.671   3.728   2.364
 3313SOL    HW110259   2.711   3.819   2.355
 3313SOL    HW210260   2.571   3.736   2.370
 3314SOL     OW10261   2.059   4.700   3.126
 3314SOL    HW110262   2.148   4.655   3.112
 3314SOL    HW210263   1.986   4.635   3.107
 3315SOL     OW10264   3.387   4.723   2.052
 3315SOL    HW110265   3.324   4.647   2.065
 3315SOL    HW210266   3.435   4.741   2.138
 3316SOL     OW10267   3.049   5.516   3.478
 3316SOL    HW110268   3.073   5.576   3.402
 3316SOL    HW210269   3.056   5.421   3.448
 3317SOL     OW10270   2.179   3.975   3.663
 3317SOL    HW110271   2.250   4.046   3.669
 3317SOL    HW210272   2.091   4.014   3.691
 3318SOL     OW10273   3.328   5.141   2.815
 3318SOL    HW110274   3.269   5.147   2.895
 3318SOL    HW210275   3.313   5.053   2.769
 3319SOL     OW10276   3.529   5.438   2.434
 3319SOL    HW110277   3.488   5.415   2.346
 3319SOL    HW210278   3.511   5.364   2.499
 3320SOL     OW10279   2.460   4.453   2.132
 3320SOL    HW110280   2.484   4.522   2.064
 3320SOL    HW210281   2.382   4.486   2.186
 3321SOL     OW10282   3.143   4.069   2.806
 3321SOL    HW110283   3.057   4.019   2.793
 3321SOL    HW210284   3.205   4.015   2.862
 3322SOL     OW10285   3.438   5.386   2.169
 3322SOL    HW110286   3.527   5.432   2.172
 3322SOL    HW210287   3.417   5.362   2.074
 3323SOL     OW10288   2.669   4.329   3.327
 3323SOL    HW110289   2.622   4.326   3.416
 3323SOL    HW210290   2.618   4.274   3.261
 3324SOL     OW10291   2.835   4.614   3.434
 3324SOL    HW110292   2.881   4.530   3.405
 3324SOL    HW210293   2.779   4.648   3.359
 3325SOL     OW10294   2.853   4.134   3.104
 3325SOL    HW110295   2.776   4.168   3.158
 3325SOL    HW210296   2.819   4.083   3.025
 3326SOL     OW10297   2.903   4.425   2.291
 3326SOL    HW110298   2.929   4.421   2.387
 3326SOL    HW210299   2.818   4.374   2.277
 3327SOL     OW10300   1.938   4.535   2.651
 3327SOL    HW110301   2.037   4.523   2.660
 3327SOL    HW210302   1.914   4.630   2.672
 3328SOL     OW10303   1.992   5.545   3.433
 3328SOL    HW110304   1.982   5.530   3.532
 3328SOL    HW210305   1.906   5.581   3.397
 3329SOL     OW10306   2.727   4.072   2.057
 3329SOL    HW110307   2.786   4.135   2.008
 3329SOL    HW210308   2.746   3.978   2.028
 3330SOL     OW10309   3.581   4.309   3.693
 3330SOL    HW110310   3.555   4.398   3.657
 3330SOL    HW210311   3.579   4.241   3.620
 3331SOL     OW10312   3.224   4.868   2.407
 3331SOL    HW110313   3.307   4.839   2.359
 3331SOL    HW210314   3.175   4.935   2.351
 3332SOL     OW10315   2.412   3.920   2.747
 3332SOL    HW110316   2.407   3.915   2.847
 3332SOL    HW210317   2.414   4.016   2.718
 3333SOL     OW10318   2.870   5.180   2.339
 3333SOL    HW110319   2.824   5.252   2.287
 3333SOL    HW210320   2.866   5.200   2.437
 3334SOL     OW10321   2.213   5.525   2.715
 3334SOL    HW110322   2.263   5.439   2.721
 3334SOL    HW210323   2.278   5.602   2.712
 3335SOL     OW10324   3.657   4.790   2.735
 3335SOL    HW110325   3.595   4.775   2.659
 3335SOL    HW210326   3.605   4.801   2.820
 3336SOL     OW10327   3.089   5.274   3.368
 3336SOL    HW110328   3.095   5.197   3.432
 3336SOL    HW210329   3.037   5.248   3.288
 3337SOL     OW10330   2.183   4.667   2.104
 3337SOL    HW110331   2.265   4.706   2.062
 3337SOL    HW210332   2.156   4.585   2.055
 3338SOL     OW10333   2.323   4.990   3.589
 3338SOL    HW110334   2.273   4.991   3.503
 3338SOL    HW210335   2.260   4.972   3.665
 3339SOL     OW10336   2.973   5.500   2.099
 3339SOL    HW110337   2.913   5.438   2.149
 3339SOL    HW210338   3.004   5.456   2.014
 3340SOL     OW10339   2.064   4.009   3.360
 3340SOL    HW110340   1.984   4.069   3.347
 3340SOL    HW210341   2.054   3.960   3.446
 3341SOL     OW10342   3.494   5.101   1.943
 3341SOL    HW110343   3.462   5.195   1.933
 3341SOL    HW210344   3.418   5.038   1.931
 3342SOL     OW10345   2.326   5.467   2.185
 3342SOL    HW110346   2.359   5.506   2.271
 3342SOL    HW210347   2.402   5.460   2.120
 3343SOL     OW10348   3.262   3.831   2.288
 3343SOL    HW110349   3.238   3.794   2.198
 3343SOL    HW210350   3.361   3.847   2.292
 3344SOL     OW10351   2.111   5.509   3.103
 3344SOL    HW110352   2.168   5.444   3.153
 3344SOL    HW210353   2.095   5.476   3.010
 3345SOL     OW10354   2.802   5.422   2.766
 3345SOL    HW110355   2.882   5.365   2.787
 3345SOL    HW210356   2.753   5.382   2.689
 3346SOL     OW10357   2.244   4.424   2.342
 3346SOL    HW110358   2.289   4.334   2.339
 3346SOL    HW210359   2.150   4.413   2.375
 3347SOL     OW10360   3.409   3.946   3.591
 3347SOL    HW110361   3.404   3.983   3.683
 3347SOL    HW210362   3.337   3.877   3.579
 3348SOL     OW10363   2.476   3.846   1.979
 3348SOL    HW110364   2.574   3.824   1.986
 3348SOL    HW210365   2.445   3.829   1.886
 3349SOL     OW10366   2.643   3.988   3.611
 3349SOL    HW110367   2.710   3.927   3.654
 3349SOL    HW210368   2.570   4.007   3.676
 3350SOL     OW10369   2.750   5.238   3.057
 3350SOL    HW110370   2.727   5.213   2.963
 3350SOL    HW210371   2.811   5.169   3.096
 3351SOL     OW10372   3.213   4.314   3.295
 3351SOL    HW110373   3.241   4.271   3.380
 3351SOL    HW210374   3.238   4.410   3.296
 3352SOL     OW10375   2.665   5.126   2.786
 3352SOL    HW110376   2.755   5.140   2.744
 3352SOL    HW210377   2.594   5.128   2.715
 3353SOL     OW10378   2.784   4.227   2.761
 3353SOL    HW110379   2.759   4.218   2.665
 3353SOL    HW210380   2.832   4.145   2.792
 3354SOL     OW10381   2.401   3.788   2.374
 3354SOL    HW110382   2.320   3.789   2.432
 3354SOL    HW210383   2.404   3.871   2.319
 3355SOL     OW10384   3.296   4.912   1.903
 3355SOL    HW110385   3.328   4.836   1.960
 3355SOL    HW210386   3.204   4.939   1.933
 3356SOL     OW10387   2.159   3.759   2.033
 3356SOL    HW110388   2.208   3.843   2.012
 3356SOL    HW210389   2.221   3.694   2.078
 3357SOL     OW10390   2.797   3.960   2.342
 3357SOL    HW110391   2.749   4.001   2.264
 3357SOL    HW210392   2.896   3.958   2.323
 3358SOL     OW10393   2.938   4.407   3.326
 3358SOL    HW110394   2.858   4.346   3.329
 3358SOL    HW210395   3.019   4.354   3.302
 3359SOL     OW10396   3.089   5.294   2.655
 3359SOL    HW110397   3.110   5.368   2.590
 3359SOL    HW210398   3.157   5.294   2.728
 3360SOL     OW10399   2.321   4.876   2.603
 3360SOL    HW110400   2.250   4.849   2.668
 3360SOL    HW210401   2.295   4.848   2.510
 3361SOL     OW10402   3.133   5.521   2.453
 3361SOL    HW110403   3.177   5.585   2.389
 3361SOL    HW210404   3.083   5.573   2.523
 3362SOL     OW10405   2.894   4.273   1.878
 3362SOL    HW110406   2.853   4.355   1.839
 3362SOL    HW210407   2.958   4.299   1.951
 3363SOL     OW10408   1.940   4.280   3.248
 3363SOL    HW110409   2.032   4.279   3.207
 3363SOL    HW210410   1.934   4.354   3.315
 3364SOL     OW10411   2.423   3.946   3.009
 3364SOL    HW110412   2.461   3.862   3.046
 3364SOL    HW210413   2.335   3.965   3.053
 3365SOL     OW10414   2.728   4.178   2.504
 3365SOL    HW110415   2.696   4.250   2.442
 3365SOL    HW210416   2.752   4.097   2.451
 3366SOL     OW10417   2.879   3.763   2.615
 3366SOL    HW110418   2.807   3.768   2.546
 3366SOL    HW210419   2.855   3.694   2.684
 3367SOL     OW10420   3.291   4.897   2.729
 3367SOL    HW110421   3.236   4.813   2.722
 3367SOL    HW210422   3.317   4.926   2.637
 3368SOL     OW10423   3.328   4.314   2.854
 3368SOL    HW110424   3.298   4.219   2.861
 3368SOL    HW210425   3.401   4.330   2.920
 3369SOL     OW10426   3.719   4.557   2.239
 3369SOL    HW110427   3.761   4.493   2.303
 3369SOL    HW210428   3.681   4.506   2.161
 3370SOL     OW10429   2.350   5.109   2.036
 3370SOL    HW110430   2.263   5.094   2.083
 3370SOL    HW210431   2.333   5.135   1.941
 3371SOL     OW10432   3.526   5.004   2.519
 3371SOL    HW110433   3.625   5.012   2.533
 3371SOL    HW210434   3.481   5.088   2.550
 3372SOL     OW10435   3.252   4.299   1.940
 3372SOL    HW110436   3.198   4.278   2.021
 3372SOL    HW210437   3.343   4.258   1.949
 3373SOL     OW10438   2.389   3.980   2.190
 3373SOL    HW110439   2.416   3.921   2.115
 3373SOL    HW210440   2.389   4.075   2.159
 3374SOL     OW10441   3.616   4.947   3.450
 3374SOL    HW110442   3.707   4.908   3.437
 3374SOL    HW210443   3.624   5.043   3.474
 3375SOL     OW10444   2.926   5.071   3.202
 3375SOL    HW110445   2.846   5.048   3.257
 3375SOL    HW210446   3.009   5.045   3.251
 3376SOL     OW10447   3.454   5.353   3.487
 3376SOL    HW110448   3.481   5.387   3.397
 3376SOL    HW210449   3.533   5.315   3.533
 3377SOL     OW10450   2.973   4.919   2.962
 3377SOL    HW110451   2.933   4.963   3.043
 3377SOL    HW210452   2.932   4.956   2.879
 3378SOL     OW10453   3.500   4.823   2.941
 3378SOL    HW110454   3.505   4.904   3.000
 3378SOL    HW210455   3.414   4.825   2.890
 3379SOL     OW10456   2.777   3.813   3.264
 3379SOL    HW110457   2.802   3.793   3.169
 3379SOL    HW210458   2.849   3.869   3.306
 3380SOL     OW10459   2.842   4.840   3.581
 3380SOL    HW110460   2.743   4.846   3.591
 3380SOL    HW210461   2.865   4.760   3.525
 3381SOL     OW10462   2.567   4.774   2.230
 3381SOL    HW110463   2.553   4.781   2.329
 3381SOL    HW210464   2.651   4.723   2.212
 3382SOL     OW10465   2.272   4.537   3.113
 3382SOL    HW110466   2.358   4.549   3.163
 3382SOL    HW210467   2.230   4.450   3.140
 3383SOL     OW10468   3.136   4.110   3.124
 3383SOL    HW110469   3.157   4.184   3.188
 3383SOL    HW210470   3.047   4.127   3.081
 3384SOL     OW10471   1.926   5.288   3.193
 3384SOL    HW110472   1.880   5.370   3.159
 3384SOL    HW210473   2.024   5.307   3.202
 3385SOL     OW10474   2.229   4.824   2.363
 3385SOL    HW110475   2.222   4.907   2.307
 3385SOL    HW210476   2.233   4.744   2.303
 3386SOL     OW10477   2.428   4.261   2.727
 3386SOL    HW110478   2.440   4.327   2.653
 3386SOL    HW210479   2.474   4.295   2.810
 3387SOL     OW10480   3.114   5.072   2.250
 3387SOL    HW110481   3.164   5.149   2.290
 3387SOL    HW210482   3.019   5.074   2.282
 3388SOL     OW10483   3.134   5.169   3.004
 3388SOL    HW110484   3.181   5.182   3.091
 3388SOL    HW210485   3.068   5.095   3.013
 3389SOL     OW10486   3.444   4.363   2.334
 3389SOL    HW110487   3.413   4.424   2.407
 3389SOL    HW210488   3.494   4.415   2.265
 3390SOL     OW10489   2.216   5.234   3.191
 3390SOL    HW110490   2.195   5.190   3.104
 3390SOL    HW210491   2.313   5.260   3.194
 3391SOL     OW10492   2.264   4.475   3.460
 3391SOL    HW110493   2.332   4.530   3.413
 3391SOL    HW210494   2.304   4.387   3.487
 3392SOL     OW10495   3.449   4.503   3.532
 3392SOL    HW110496   3.357   4.541   3.527
 3392SOL    HW210497   3.509   4.550   3.467
 3393SOL     OW10498   2.875   3.829   3.632
 3393SOL    HW110499   2.881   3.914   3.580
 3393SOL    HW210500   2.907   3.753   3.575
 3394SOL     OW10501   2.366   3.774   3.602
 3394SOL    HW110502   2.324   3.717   3.532
 3394SOL    HW210503   2.300   3.843   3.634
 3395SOL     OW10504   2.435   4.594   2.891
 3395SOL    HW110505   2.479   4.683   2.882
 3395SOL    HW210506   2.372   4.594   2.968
 3396SOL     OW10507   3.222   4.586   2.907
 3396SOL    HW110508   3.147   4.586   2.841
 3396SOL    HW210509   3.259   4.494   2.916
 3397SOL     OW10510   3.071   4.249   2.137
 3397SOL    HW110511   3.084   4.165   2.191
 3397SOL    HW210512   3.042   4.323   2.197
 3398SOL     OW10513   2.169   3.937   3.093
 3398SOL    HW110514   2.146   3.974   3.183
 3398SOL    HW210515   2.139   3.842   3.087
 3399SOL     OW10516   1.899   5.034   3.144
 3399SOL    HW110517   1.952   4.985   3.212
 3399SOL    HW210518   1.921   5.132   3.149
 3400SOL     OW10519   2.594   4.358   2.926
 3400SOL    HW110520   2.653   4.332   2.850
 3400SOL    HW210521   2.566   4.454   2.915
 3401SOL     OW10522   3.590   4.659   3.716
 3401SOL    HW110523   3.544   4.652   3.627
 3401SOL    HW210524   3.528   4.703   3.782
 3402SOL     OW10525   2.169   3.787   2.480
 3402SOL    HW110526   2.158   3.881   2.513
 3402SOL    HW210527   2.164   3.724   2.557
 3403SOL     OW10528   3.484   4.091   2.236
 3403SOL    HW110529   3.486   4.015   2.300
 3403SOL    HW210530   3.436   4.168   2.276
 3404SOL     OW10531   2.885   4.490   2.828
 3404SOL    HW110532   2.900   4.511   2.924
 3404SOL    HW210533   2.855   4.395   2.819
 3405SOL     OW10534   2.842   5.297   3.562
 3405SOL    HW110535   2.822   5.341   3.474
 3405SOL    HW210536   2.881   5.206   3.546
 3406SOL     OW10537   3.721   5.242   3.467
 3406SOL    HW110538   3.735   5.269   3.372
 3406SOL    HW210539   3.804   5.264   3.520
 3407SOL     OW10540   2.212   4.622   3.666
 3407SOL    HW110541   2.288   4.666   3.714
 3407SOL    HW210542   2.247   4.575   3.584
 3408SOL     OW10543   3.402   3.998   1.987
 3408SOL    HW110544   3.341   3.923   2.010
 3408SOL    HW210545   3.424   4.050   2.070
 3409SOL     OW10546   3.165   4.562   1.904
 3409SOL    HW110547   3.199   4.469   1.919
 3409SOL    HW210548   3.183   4.589   1.809
 3410SOL     OW10549   2.930   5.057   2.711
 3410SOL    HW110550   2.937   4.973   2.656
 3410SOL    HW210551   2.992   5.126   2.675
 3411SOL     OW10552   2.181   4.534   2.811
 3411SOL    HW110553   2.274   4.570   2.816
 3411SOL    HW210554   2.175   4.449   2.863
 3412SOL     OW10555   2.201   4.233   2.868
 3412SOL    HW110556   2.149   4.150   2.851
 3412SOL    HW210557   2.278   4.238   2.804
 3413SOL     OW10558   3.000   4.104   3.540
 3413SOL    HW110559   2.955   4.167   3.604
 3413SOL    HW210560   3.093   4.135   3.523
 3414SOL     OW10561   3.022   3.931   3.339
 3414SOL    HW110562   3.022   3.995   3.416
 3414SOL    HW210563   3.050   3.979   3.256
 3415SOL     OW10564   1.870   5.050   2.062
 3415SOL    HW110565   1.777   5.071   2.031
 3415SOL    HW210566   1.880   4.951   2.075
 3416SOL     OW10567   1.950   5.525   2.789
 3416SOL    HW110568   1.908   5.439   2.762
 3416SOL    HW210569   2.044   5.528   2.755
 3417SOL     OW10570   2.366   5.292   2.772
 3417SOL    HW110571   2.432   5.366   2.781
 3417SOL    HW210572   2.410   5.213   2.730
 3418SOL     OW10573   2.864   4.520   3.100
 3418SOL    HW110574   2.905   4.488   3.186
 3418SOL    HW210575   2.768   4.493   3.097
 3419SOL     OW10576   1.902   4.268   2.976
 3419SOL    HW110577   1.987   4.235   2.935
 3419SOL    HW210578   1.915   4.283   3.074
 3420SOL     OW10579   2.051   4.244   3.584
 3420SOL    HW110580   2.110   4.204   3.514
 3420SOL    HW210581   1.993   4.315   3.543
 3421SOL     OW10582   3.231   4.674   3.522
 3421SOL    HW110583   3.270   4.763   3.542
 3421SOL    HW210584   3.241   4.654   3.425
 3422SOL     OW10585   2.677   4.296   2.187
 3422SOL    HW110586   2.684   4.207   2.141
 3422SOL    HW210587   2.583   4.330   2.179
 3423SOL     OW10588   3.519   4.328   3.068
 3423SOL    HW110589   3.481   4.259   3.130
 3423SOL    HW210590   3.601   4.292   3.024
 3424SOL     OW10591   2.114   5.288   3.606
 3424SOL    HW110592   2.084   5.345   3.682
 3424SOL    HW210593   2.107   5.191   3.632
 3425SOL     OW10594   2.533   4.188   3.131
 3425SOL    HW110595   2.499   4.099   3.101
 3425SOL    HW210596   2.559   4.242   3.051
 3426SOL     OW10597   2.792   5.402   3.327
 3426SOL    HW110598   2.768   5.384   3.232
 3426SOL    HW210599   2.822   5.496   3.337
 3427SOL     OW10600   2.335   4.224   2.053
 3427SOL    HW110601   2.396   4.304   2.057
 3427SOL    HW210602   2.240   4.255   2.060
 3428SOL     OW10603   2.021   4.861   3.328
 3428SOL    HW110604   2.043   4.800   3.404
 3428SOL    HW210605   2.031   4.812   3.242
 3429SOL     OW10606   3.209   4.783   3.096
 3429SOL    HW110607   3.233   4.720   3.022
 3429SOL    HW210608   3.119   4.823   3.078
 3430SOL     OW10609   3.164   4.579   2.171
 3430SOL    HW110610   3.078   4.548   2.213
 3430SOL    HW210611   3.160   4.565   2.072
 3431SOL     OW10612   3.621   5.471   3.016
 3431SOL    HW110613   3.682   5.501   2.943
 3431SOL    HW210614   3.583   5.382   2.994
 3432SOL     OW10615   3.114   5.455   2.990
 3432SOL    HW110616   3.198   5.460   2.936
 3432SOL    HW210617   3.091   5.359   3.008
 3433SOL     OW10618   1.945   4.982   2.884
 3433SOL    HW110619   1.940   4.981   2.984
 3433SOL    HW210620   1.862   4.941   2.846
 3434SOL     OW10621   2.550   5.386   3.578
 3434SOL    HW110622   2.494   5.467   3.587
 3434SOL    HW210623   2.602   5.390   3.492
 3435SOL     OW10624   3.588   3.859   2.385
 3435SOL    HW110625   3.661   3.842   2.318
 3435SOL    HW210626   3.557   3.772   2.423
 3436SOL     OW10627   3.250   5.297   2.339
 3436SOL    HW110628   3.317   5.309   2.265
 3436SOL    HW210629   3.210   5.386   2.362
 3437SOL     OW10630   1.992   5.518   3.713
 3437SOL    HW110631   1.951   5.444   3.766
 3437SOL    HW210632   2.056   5.569   3.771
 3438SOL     OW10633   3.142   4.651   2.534
 3438SOL    HW110634   3.202   4.570   2.536
 3438SOL    HW210635   3.182   4.720   2.474
 3439SOL     OW10636   2.692   4.997   3.284
 3439SOL    HW110637   2.687   5.030   3.379
 3439SOL    HW210638   2.606   5.016   3.238
 3440SOL     OW10639   2.534   5.340   2.016
 3440SOL    HW110640   2.543   5.350   1.917
 3440SOL    HW210641   2.494   5.251   2.037
 3441SOL     OW10642   3.512   5.444   3.256
 3441SOL    HW110643   3.565   5.454   3.172
 3441SOL    HW210644   3.485   5.534   3.290
 3442SOL     OW10645   3.703   3.899   2.825
 3442SOL    HW110646   3.742   3.814   2.789
 3442SOL    HW210647   3.605   3.901   2.806
 3443SOL     OW10648   2.125   4.050   2.582
 3443SOL    HW110649   2.046   4.101   2.548
 3443SOL    HW210650   2.116   4.035   2.680
 3444SOL     OW10651   3.056   5.336   1.893
 3444SOL    HW110652   3.062   5.243   1.930
 3444SOL    HW210653   2.997   5.336   1.813
 3445SOL     OW10654   2.684   4.726   3.234
 3445SOL    HW110655   2.724   4.725   3.142
 3445SOL    HW210656   2.694   4.818   3.274
 3446SOL     OW10657   2.778   4.634   2.153
 3446SOL    HW110658   2.841   4.672   2.085
 3446SOL    HW210659   2.818   4.551   2.192
 3447SOL     OW10660   3.366   5.331   1.906
 3447SOL    HW110661   3.274   5.368   1.913
 3447SOL    HW210662   3.404   5.351   1.816
 3448SOL     OW10663   2.234   5.012   3.352
 3448SOL    HW110664   2.221   5.105   3.318
 3448SOL    HW210665   2.150   4.960   3.339
 3449SOL     OW10666   3.476   5.016   3.151
 3449SOL    HW110667   3.536   5.019   3.231
 3449SOL    HW210668   3.401   5.080   3.164
 3450SOL     OW10669   2.901   4.822   2.558
 3450SOL    HW110670   2.831   4.775   2.612
 3450SOL    HW210671   2.960   4.754   2.515
 3451SOL     OW10672   2.876   3.960   2.833
 3451SOL    HW110673   2.868   3.924   2.740
 3451SOL    HW210674   2.874   3.884   2.898
 3452SOL     OW10675   2.452   5.211   2.353
 3452SOL    HW110676   2.494   5.153   2.283
 3452SOL    HW210677   2.408   5.290   2.309
 3453SOL     OW10678   3.571   4.109   3.243
 3453SOL    HW110679   3.644   4.178   3.247
 3453SOL    HW210680   3.599   4.034   3.184
 3454SOL     OW10681   2.117   5.072   2.152
 3454SOL    HW110682   2.021   5.073   2.125
 3454SOL    HW210683   2.129   5.125   2.236
 3455SOL     OW10684   1.967   4.737   3.588
 3455SOL    HW110685   1.890   4.704   3.642
 3455SOL    HW210686   2.052   4.707   3.630
 3456SOL     OW10687   2.534   3.927   3.351
 3456SOL    HW110688   2.624   3.911   3.311
 3456SOL    HW210689   2.542   3.932   3.450
 3457SOL     OW10690   1.937   4.069   1.895
 3457SOL    HW110691   1.845   4.041   1.866
 3457SOL    HW210692   1.968   4.146   1.839
 3458SOL     OW10693   3.302   4.580   3.260
 3458SOL    HW110694   3.245   4.632   3.197
 3458SOL    HW210695   3.398   4.592   3.236
 3459SOL     OW10696   1.934   3.890   2.180
 3459SOL    HW110697   1.917   3.973   2.126
 3459SOL    HW210698   2.024   3.853   2.158
 3460SOL     OW10699   3.045   5.059   1.981
 3460SOL    HW110700   2.946   5.048   1.983
 3460SOL    HW210701   3.079   5.074   2.074
 3461SOL     OW10702   2.475   4.566   3.293
 3461SOL    HW110703   2.531   4.647   3.276
 3461SOL    HW210704   2.534   4.486   3.296
 3462SOL     OW10705   3.355   5.491   2.821
 3462SOL    HW110706   3.388   5.555   2.752
 3462SOL    HW210707   3.421   5.485   2.896
 3463SOL     OW10708   2.578   4.289   3.570
 3463SOL    HW110709   2.597   4.354   3.644
 3463SOL    HW210710   2.638   4.209   3.579
 3464SOL     OW10711   3.312   4.944   3.495
 3464SOL    HW110712   3.303   4.934   3.594
 3464SOL    HW210713   3.408   4.937   3.469
 3465SOL     OW10714   2.252   5.465   3.422
 3465SOL    HW110715   2.161   5.506   3.420
 3465SOL    HW210716   2.245   5.371   3.454
 3466SOL     OW10717   3.536   4.607   3.116
 3466SOL    HW110718   3.509   4.518   3.079
 3466SOL    HW210719   3.537   4.675   3.043
 3467SOL     OW10720   3.087   4.049   2.311
 3467SOL    HW110721   3.152   3.975   2.300
 3467SOL    HW210722   3.107   4.099   2.395
 3468SOL     OW10723   2.456   4.469   2.514
 3468SOL    HW110724   2.506   4.554   2.495
 3468SOL    HW210725   2.368   4.471   2.466
 3469SOL     OW10726   3.639   4.066   3.504
 3469SOL    HW110727   3.622   4.097   3.410
 3469SOL    HW210728   3.555   4.029   3.542
 3470SOL     OW10729   3.592   4.658   3.379
 3470SOL    HW110730   3.630   4.749   3.394
 3470SOL    HW210731   3.584   4.641   3.280
 3471SOL     OW10732   2.721   5.098   1.878
 3471SOL    HW110733   2.675   5.113   1.966
 3471SOL    HW210734   2.765   5.183   1.848
 3472SOL     OW10735   2.523   5.514   2.815
 3472SOL    HW110736   2.477   5.602   2.802
 3472SOL    HW210737   2.622   5.526   2.808
 3473SOL     OW10738   2.721   4.680   2.723
 3473SOL    HW110739   2.775   4.611   2.771
 3473SOL    HW210740   2.689   4.749   2.789
 3474SOL     OW10741   2.945   4.708   1.949
 3474SOL    HW110742   2.922   4.761   1.867
 3474SOL    HW210743   3.026   4.652   1.930
 3475SOL     OW10744   3.723   5.293   2.713
 3475SOL    HW110745   3.652   5.281   2.643
 3475SOL    HW210746   3.724   5.214   2.773
 3476SOL     OW10747   2.083   5.038   3.706
 3476SOL    HW110748   2.018   4.965   3.685
 3476SOL    HW210749   2.087   5.052   3.804
 3477SOL     OW10750   1.941   4.964   2.515
 3477SOL    HW110751   1.940   4.917   2.603
 3477SOL    HW210752   2.023   4.936   2.464
 3478SOL     OW10753   2.534   5.115   3.486
 3478SOL    HW110754   2.456   5.065   3.524
 3478SOL    HW210755   2.531   5.210   3.517
 3479SOL     OW10756   3.686   3.916   3.089
 3479SOL    HW110757   3.682   3.826   3.133
 3479SOL    HW210758   3.689   3.905   2.990
 3480SOL     OW10759   2.290   4.148   2.382
 3480SOL    HW110760   2.320   4.076   2.320
 3480SOL    HW210761   2.251   4.108   2.465
 3481SOL     OW10762   3.567   5.211   2.966
 3481SOL    HW110763   3.474   5.186   2.939
 3481SOL    HW210764   3.593   5.161   3.048
 3482SOL     OW10765   2.179   4.271   3.142
 3482SOL    HW110766   2.217   4.212   3.214
 3482SOL    HW210767   2.219   4.245   3.054
 3483SOL     OW10768   2.674   5.310   2.549
 3483SOL    HW110769   2.706   5.320   2.455
 3483SOL    HW210770   2.595   5.248   2.551
 3484SOL     OW10771   3.286   3.938   2.974
 3484SOL    HW110772   3.338   3.873   3.029
 3484SOL    HW210773   3.237   4.001   3.035
 3485SOL     OW10774   2.863   3.758   3.016
 3485SOL    HW110775   2.800   3.686   2.985
 3485SOL    HW210776   2.956   3.722   3.016
 3486SOL     OW10777   2.632   5.054   2.163
 3486SOL    HW110778   2.586   4.967   2.180
 3486SOL    HW210779   2.723   5.051   2.204
 3487SOL     OW10780   2.480   5.291   3.146
 3487SOL    HW110781   2.475   5.373   3.203
 3487SOL    HW210782   2.569   5.288   3.101
 3488SOL     OW10783   3.214   3.776   2.030
 3488SOL    HW110784   3.249   3.735   1.946
 3488SOL    HW210785   3.124   3.738   2.050
 3489SOL     OW10786   3.162   4.177   2.553
 3489SOL    HW110787   3.103   4.257   2.557
 3489SOL    HW210788   3.177   4.142   2.646
 3490SOL     OW10789   3.455   3.945   2.744
 3490SOL    HW110790   3.371   3.944   2.798
 3490SOL    HW210791   3.457   4.028   2.688
 3491SOL     OW10792   1.901   4.801   2.162
 3491SOL    HW110793   2.000   4.790   2.153
 3491SOL    HW210794   1.861   4.715   2.194
 3492SOL     OW10795   2.737   5.370   2.199
 3492SOL    HW110796   2.660   5.335   2.145
 3492SOL    HW210797   2.705   5.441   2.261
 3493SOL     OW10798   2.092   4.352   3.837
 3493SOL    HW110799   1.999   4.350   3.874
 3493SOL    HW210800   2.093   4.313   3.745
 3494SOL     OW10801   2.087   3.999   4.720
 3494SOL    HW110802   2.122   3.982   4.812
 3494SOL    HW210803   1.999   3.954   4.708
 3495SOL     OW10804   1.881   4.092   4.371
 3495SOL    HW110805   1.799   4.135   4.410
 3495SOL    HW210806   1.853   4.019   4.308
 3496SOL     OW10807   2.431   4.999   4.889
 3496SOL    HW110808   2.338   4.992   4.852
 3496SOL    HW210809   2.442   5.088   4.933
 3497SOL     OW10810   3.417   5.235   4.427
 3497SOL    HW110811   3.360   5.219   4.508
 3497SOL    HW210812   3.358   5.245   4.347
 3498SOL     OW10813   2.997   4.427   4.441
 3498SOL    HW110814   3.054   4.505   4.416
 3498SOL    HW210815   2.937   4.453   4.517
 3499SOL     OW10816   3.617   4.331   3.955
 3499SOL    HW110817   3.605   4.318   3.856
 3499SOL    HW210818   3.587   4.250   4.004
 3500SOL     OW10819   2.630   4.868   4.747
 3500SOL    HW110820   2.552   4.885   4.807
 3500SOL    HW210821   2.664   4.955   4.711
 3501SOL     OW10822   2.712   4.522   5.547
 3501SOL    HW110823   2.708   4.598   5.612
 3501SOL    HW210824   2.734   4.558   5.456
 3502SOL     OW10825   2.547   4.736   4.389
 3502SOL    HW110826   2.616   4.720   4.459
 3502SOL    HW210827   2.474   4.793   4.427
 3503SOL     OW10828   2.548   4.885   5.527
 3503SOL    HW110829   2.608   4.964   5.541
 3503SOL    HW210830   2.462   4.916   5.486
 3504SOL     OW10831   2.197   5.159   4.785
 3504SOL    HW110832   2.119   5.128   4.732
 3504SOL    HW210833   2.255   5.217   4.728
 3505SOL     OW10834   3.322   5.229   5.063
 3505SOL    HW110835   3.346   5.323   5.089
 3505SOL    HW210836   3.306   5.175   5.145
 3506SOL     OW10837   2.300   4.116   5.223
 3506SOL    HW110838   2.382   4.060   5.232
 3506SOL    HW210839   2.219   4.058   5.227
 3507SOL     OW10840   3.465   4.171   4.461
 3507SOL    HW110841   3.391   4.217   4.411
 3507SOL    HW210842   3.516   4.239   4.514
 3508SOL     OW10843   2.093   5.437   4.207
 3508SOL    HW110844   2.127   5.514   4.261
 3508SOL    HW210845   2.137   5.437   4.117
 3509SOL     OW10846   2.989   5.065   5.414
 3509SOL    HW110847   3.036   5.065   5.502
 3509SOL    HW210848   2.941   4.978   5.403
 3510SOL     OW10849   2.092   5.158   4.262
 3510SOL    HW110850   2.066   5.254   4.262
 3510SOL    HW210851   2.021   5.104   4.307
 3511SOL     OW10852   2.102   4.815   4.610
 3511SOL    HW110853   2.116   4.731   4.662
 3511SOL    HW210854   2.047   4.879   4.665
 3512SOL     OW10855   2.482   5.510   5.163
 3512SOL    HW110856   2.390   5.493   5.198
 3512SOL    HW210857   2.510   5.602   5.189
 3513SOL     OW10858   2.468   4.688   3.847
 3513SOL    HW110859   2.475   4.772   3.793
 3513SOL    HW210860   2.514   4.701   3.935
 3514SOL     OW10861   3.456   3.838   5.204
 3514SOL    HW110862   3.438   3.905   5.132
 3514SOL    HW210863   3.453   3.884   5.293
 3515SOL     OW10864   1.984   4.367   4.287
 3515SOL    HW110865   1.939   4.279   4.304
 3515SOL    HW210866   1.983   4.421   4.371
 3516SOL     OW10867   3.704   5.491   4.083
 3516SOL    HW110868   3.758   5.462   4.163
 3516SOL    HW210869   3.734   5.581   4.054
 3517SOL     OW10870   1.889   5.320   3.841
 3517SOL    HW110871   1.870   5.224   3.862
 3517SOL    HW210872   1.856   5.378   3.916
 3518SOL     OW10873   3.551   4.646   4.336
 3518SOL    HW110874   3.646   4.617   4.344
 3518SOL    HW210875   3.543   4.711   4.261
 3519SOL     OW10876   3.503   4.832   4.156
 3519SOL    HW110877   3.589   4.834   4.104
 3519SOL    HW210878   3.517   4.879   4.244
 3520SOL     OW10879   1.975   4.461   5.321
 3520SOL    HW110880   2.063   4.448   5.366
 3520SOL    HW210881   1.962   4.558   5.299
 3521SOL     OW10882   2.475   5.089   4.450
 3521SOL    HW110883   2.426   5.002   4.459
 3521SOL    HW210884   2.452   5.132   4.363
 3522SOL     OW10885   3.155   4.952   5.147
 3522SOL    HW110886   3.192   4.879   5.089
 3522SOL    HW210887   3.207   4.957   5.232
 3523SOL     OW10888   2.671   3.728   4.226
 3523SOL    HW110889   2.711   3.819   4.217
 3523SOL    HW210890   2.571   3.736   4.232
 3524SOL     OW10891   2.059   4.700   4.988
 3524SOL    HW110892   2.148   4.655   4.974
 3524SOL    HW210893   1.986   4.635   4.969
 3525SOL     OW10894   3.387   4.723   3.914
 3525SOL    HW110895   3.324   4.647   3.927
 3525SOL    HW210896   3.435   4.741   4.000
 3526SOL     OW10897   3.049   5.516   5.340
 3526SOL    HW110898   3.073   5.576   5.264
 3526SOL    HW210899   3.056   5.421   5.310
 3527SOL     OW10900   2.179   3.975   5.525
 3527SOL    HW110901   2.250   4.046   5.531
 3527SOL    HW210902   2.091   4.014   5.553
 3528SOL     OW10903   3.328   5.141   4.677
 3528SOL    HW110904   3.269   5.147   4.757
 3528SOL    HW210905   3.313   5.053   4.631
 3529SOL     OW10906   3.529   5.438   4.296
 3529SOL    HW110907   3.488   5.415   4.208
 3529SOL    HW210908   3.511   5.364   4.361
 3530SOL     OW10909   2.460   4.453   3.994
 3530SOL    HW110910   2.484   4.522   3.926
 3530SOL    HW210911   2.382   4.486   4.048
 3531SOL     OW10912   3.143   4.069   4.668
 3531SOL    HW110913   3.057   4.019   4.655
 3531SOL    HW210914   3.205   4.015   4.724
 3532SOL     OW10915   3.438   5.386   4.031
 3532SOL    HW110916   3.527   5.432   4.034
 3532SOL    HW210917   3.417   5.362   3.936
 3533SOL     OW10918   2.669   4.329   5.189
 3533SOL    HW110919   2.622   4.326   5.278
 3533SOL    HW210920   2.618   4.274   5.123
 3534SOL     OW10921   3.256   4.193   5.398
 3534SOL    HW110922   3.236   4.236   5.486
 3534SOL    HW210923   3.334   4.131   5.407
 3535SOL     OW10924   2.835   4.614   5.296
 3535SOL    HW110925   2.881   4.530   5.267
 3535SOL    HW210926   2.779   4.648   5.221
 3536SOL     OW10927   2.853   4.134   4.966
 3536SOL    HW110928   2.776   4.168   5.020
 3536SOL    HW210929   2.819   4.083   4.887
 3537SOL     OW10930   2.903   4.425   4.153
 3537SOL    HW110931   2.929   4.421   4.249
 3537SOL    HW210932   2.818   4.374   4.139
 3538SOL     OW10933   1.938   4.535   4.513
 3538SOL    HW110934   2.037   4.523   4.522
 3538SOL    HW210935   1.914   4.630   4.534
 3539SOL     OW10936   1.992   5.545   5.295
 3539SOL    HW110937   1.982   5.530   5.394
 3539SOL    HW210938   1.906   5.581   5.259
 3540SOL     OW10939   2.727   4.072   3.919
 3540SOL    HW110940   2.786   4.135   3.870
 3540SOL    HW210941   2.746   3.978   3.890
 3541SOL     OW10942   3.581   4.309   5.555
 3541SOL    HW110943   3.555   4.398   5.519
 3541SOL    HW210944   3.579   4.241   5.482
 3542SOL     OW10945   3.224   4.868   4.269
 3542SOL    HW110946   3.307   4.839   4.221
 3542SOL    HW210947   3.175   4.935   4.213
 3543SOL     OW10948   2.412   3.920   4.609
 3543SOL    HW110949   2.407   3.915   4.709
 3543SOL    HW210950   2.414   4.016   4.580
 3544SOL     OW10951   2.870   5.180   4.201
 3544SOL    HW110952   2.824   5.252   4.149
 3544SOL    HW210953   2.866   5.200   4.299
 3545SOL     OW10954   2.213   5.525   4.577
 3545SOL    HW110955   2.263   5.439   4.583
 3545SOL    HW210956   2.278   5.602   4.574
 3546SOL     OW10957   3.657   4.790   4.597
 3546SOL    HW110958   3.595   4.775   4.521
 3546SOL    HW210959   3.605   4.801   4.682
 3547SOL     OW10960   3.089   5.274   5.230
 3547SOL    HW110961   3.095   5.197   5.294
 3547SOL    HW210962   3.037   5.248   5.150
 3548SOL     OW10963   2.183   4.667   3.966
 3548SOL    HW110964   2.265   4.706   3.924
 3548SOL    HW210965   2.156   4.585   3.917
 3549SOL     OW10966   3.320   4.459   4.452
 3549SOL    HW110967   3.315   4.394   4.527
 3549SOL    HW210968   3.400   4.518   4.465
 3550SOL     OW10969   2.323   4.990   5.451
 3550SOL    HW110970   2.273   4.991   5.365
 3550SOL    HW210971   2.260   4.972   5.527
 3551SOL     OW10972   2.973   5.500   3.961
 3551SOL    HW110973   2.913   5.438   4.011
 3551SOL    HW210974   3.004   5.456   3.876
 3552SOL     OW10975   2.064   4.009   5.222
 3552SOL    HW110976   1.984   4.069   5.209
 3552SOL    HW210977   2.054   3.960   5.308
 3553SOL     OW10978   3.494   5.101   3.805
 3553SOL    HW110979   3.462   5.195   3.795
 3553SOL    HW210980   3.418   5.038   3.793
 3554SOL     OW10981   2.326   5.467   4.047
 3554SOL    HW110982   2.359   5.506   4.133
 3554SOL    HW210983   2.402   5.460   3.982
 3555SOL     OW10984   3.262   3.831   4.150
 3555SOL    HW110985   3.238   3.794   4.060
 3555SOL    HW210986   3.361   3.847   4.154
 3556SOL     OW10987   2.111   5.509   4.965
 3556SOL    HW110988   2.168   5.444   5.015
 3556SOL    HW210989   2.095   5.476   4.872
 3557SOL     OW10990   2.802   5.422   4.628
 3557SOL    HW110991   2.882   5.365   4.649
 3557SOL    HW210992   2.753   5.382   4.551
 3558SOL     OW10993   2.244   4.424   4.204
 3558SOL    HW110994   2.289   4.334   4.201
 3558SOL    HW210995   2.150   4.413   4.237
 3559SOL     OW10996   3.409   3.946   5.453
 3559SOL    HW110997   3.404   3.983   5.545
 3559SOL    HW210998   3.337   3.877   5.441
 3560SOL     OW10999   2.476   3.846   3.841
 3560SOL    HW111000   2.574   3.824   3.848
 3560SOL    HW211001   2.445   3.829   3.748
 3561SOL     OW11002   2.643   3.988   5.473
 3561SOL    HW111003   2.710   3.927   5.516
 3561SOL    HW211004   2.570   4.007   5.538
 3562SOL     OW11005   2.750   5.238   4.919
 3562SOL    HW111006   2.727   5.213   4.825
 3562SOL    HW211007   2.811   5.169   4.958
 3563SOL     OW11008   3.213   4.314   5.157
 3563SOL    HW111009   3.241   4.271   5.242
 3563SOL    HW211010   3.238   4.410   5.158
 3564SOL     OW11011   2.665   5.126   4.648
 3564SOL    HW111012   2.755   5.140   4.606
 3564SOL    HW211013   2.594   5.128   4.577
 3565SOL     OW11014   2.784   4.227   4.623
 3565SOL    HW111015   2.759   4.218   4.527
 3565SOL    HW211016   2.832   4.145   4.654
 3566SOL     OW11017   2.401   3.788   4.236
 3566SOL    HW111018   2.320   3.789   4.294
 3566SOL    HW211019   2.404   3.871   4.181
 3567SOL     OW11020   3.296   4.912   3.765
 3567SOL    HW111021   3.328   4.836   3.822
 3567SOL    HW211022   3.204   4.939   3.795
 3568SOL     OW11023   2.159   3.759   3.895
 3568SOL    HW111024   2.208   3.843   3.874
 3568SOL    HW211025   2.221   3.694   3.940
 3569SOL     OW11026   2.797   3.960   4.204
 3569SOL    HW111027   2.749   4.001   4.126
 3569SOL    HW211028   2.896   3.958   4.185
 3570SOL     OW11029   2.938   4.407   5.188
 3570SOL    HW111030   2.858   4.346   5.191
 3570SOL    HW211031   3.019   4.354   5.164
 3571SOL     OW11032   3.089   5.294   4.517
 3571SOL    HW111033   3.110   5.368   4.452
 3571SOL    HW211034   3.157   5.294   4.590
 3572SOL     OW11035   2.321   4.876   4.465
 3572SOL    HW111036   2.250   4.849   4.530
 3572SOL    HW211037   2.295   4.848   4.372
 3573SOL     OW11038   3.133   5.521   4.315
 3573SOL    HW111039   3.177   5.585   4.251
 3573SOL    HW211040   3.083   5.573   4.385
 3574SOL     OW11041   2.894   4.273   3.740
 3574SOL    HW111042   2.853   4.355   3.701
 3574SOL    HW211043   2.958   4.299   3.813
 3575SOL     OW11044   1.940   4.280   5.110
 3575SOL    HW111045   2.032   4.279   5.069
 3575SOL    HW211046   1.934   4.354   5.177
 3576SOL     OW11047   2.423   3.946   4.871
 3576SOL    HW111048   2.461   3.862   4.908
 3576SOL    HW211049   2.335   3.965   4.915
 3577SOL     OW11050   2.728   4.178   4.366
 3577SOL    HW111051   2.696   4.250   4.304
 3577SOL    HW211052   2.752   4.097   4.313
 3578SOL     OW11053   2.879   3.763   4.477
 3578SOL    HW111054   2.807   3.768   4.408
 3578SOL    HW211055   2.855   3.694   4.546
 3579SOL     OW11056   3.291   4.897   4.591
 3579SOL    HW111057   3.236   4.813   4.584
 3579SOL    HW211058   3.317   4.926   4.499
 3580SOL     OW11059   3.328   4.314   4.716
 3580SOL    HW111060   3.298   4.219   4.723
 3580SOL    HW211061   3.401   4.330   4.782
 3581SOL     OW11062   3.719   4.557   4.101
 3581SOL    HW111063   3.761   4.493   4.165
 3581SOL    HW211064   3.681   4.506   4.023
 3582SOL     OW11065   2.350   5.109   3.898
 3582SOL    HW111066   2.263   5.094   3.945
 3582SOL    HW211067   2.333   5.135   3.803
 3583SOL     OW11068   3.526   5.004   4.381
 3583SOL    HW111069   3.625   5.012   4.395
 3583SOL    HW211070   3.481   5.088   4.412
 3584SOL     OW11071   3.252   4.299   3.802
 3584SOL    HW111072   3.198   4.278   3.883
 3584SOL    HW211073   3.343   4.258   3.811
 3585SOL     OW11074   2.389   3.980   4.052
 3585SOL    HW111075   2.416   3.921   3.977
 3585SOL    HW211076   2.389   4.075   4.021
 3586SOL     OW11077   3.616   4.947   5.312
 3586SOL    HW111078   3.707   4.908   5.299
 3586SOL    HW211079   3.624   5.043   5.336
 3587SOL     OW11080   2.926   5.071   5.064
 3587SOL    HW111081   2.846   5.048   5.119
 3587SOL    HW211082   3.009   5.045   5.113
 3588SOL     OW11083   3.454   5.353   5.349
 3588SOL    HW111084   3.481   5.387   5.259
 3588SOL    HW211085   3.533   5.315   5.395
 3589SOL     OW11086   2.973   4.919   4.824
 3589SOL    HW111087   2.933   4.963   4.905
 3589SOL    HW211088   2.932   4.956   4.741
 3590SOL     OW11089   3.500   4.823   4.803
 3590SOL    HW111090   3.505   4.904   4.862
 3590SOL    HW211091   3.414   4.825   4.752
 3591SOL     OW11092   2.777   3.813   5.126
 3591SOL    HW111093   2.802   3.793   5.031
 3591SOL    HW211094   2.849   3.869   5.168
 3592SOL     OW11095   2.842   4.840   5.443
 3592SOL    HW111096   2.743   4.846   5.453
 3592SOL    HW211097   2.865   4.760   5.387
 3593SOL     OW11098   2.567   4.774   4.092
 3593SOL    HW111099   2.553   4.781   4.191
 3593SOL    HW211100   2.651   4.723   4.074
 3594SOL     OW11101   2.272   4.537   4.975
 3594SOL    HW111102   2.358   4.549   5.025
 3594SOL    HW211103   2.230   4.450   5.002
 3595SOL     OW11104   3.136   4.110   4.986
 3595SOL    HW111105   3.157   4.184   5.050
 3595SOL    HW211106   3.047   4.127   4.943
 3596SOL     OW11107   1.926   5.288   5.055
 3596SOL    HW111108   1.880   5.370   5.021
 3596SOL    HW211109   2.024   5.307   5.064
 3597SOL     OW11110   2.229   4.824   4.225
 3597SOL    HW111111   2.222   4.907   4.169
 3597SOL    HW211112   2.233   4.744   4.165
 3598SOL     OW11113   2.428   4.261   4.589
 3598SOL    HW111114   2.440   4.327   4.515
 3598SOL    HW211115   2.474   4.295   4.672
 3599SOL     OW11116   3.114   5.072   4.112
 3599SOL    HW111117   3.164   5.149   4.152
 3599SOL    HW211118   3.019   5.074   4.144
 3600SOL     OW11119   3.134   5.169   4.866
 3600SOL    HW111120   3.181   5.182   4.953
 3600SOL    HW211121   3.068   5.095   4.875
 3601SOL     OW11122   3.444   4.363   4.196
 3601SOL    HW111123   3.413   4.424   4.269
 3601SOL    HW211124   3.494   4.415   4.127
 3602SOL     OW11125   2.216   5.234   5.053
 3602SOL    HW111126   2.195   5.190   4.966
 3602SOL    HW211127   2.313   5.260   5.056
 3603SOL     OW11128   2.264   4.475   5.322
 3603SOL    HW111129   2.332   4.530   5.275
 3603SOL    HW211130   2.304   4.387   5.349
 3604SOL     OW11131   3.449   4.503   5.394
 3604SOL    HW111132   3.357   4.541   5.389
 3604SOL    HW211133   3.509   4.550   5.329
 3605SOL     OW11134   2.875   3.829   5.494
 3605SOL    HW111135   2.881   3.914   5.442
 3605SOL    HW211136   2.907   3.753   5.437
 3606SOL     OW11137   2.366   3.774   5.464
 3606SOL    HW111138   2.324   3.717   5.394
 3606SOL    HW211139   2.300   3.843   5.496
 3607SOL     OW11140   2.435   4.594   4.753
 3607SOL    HW111141   2.479   4.683   4.744
 3607SOL    HW211142   2.372   4.594   4.830
 3608SOL     OW11143   3.222   4.586   4.769
 3608SOL    HW111144   3.147   4.586   4.703
 3608SOL    HW211145   3.259   4.494   4.778
 3609SOL     OW11146   3.071   4.249   3.999
 3609SOL    HW111147   3.084   4.165   4.053
 3609SOL    HW211148   3.042   4.323   4.059
 3610SOL     OW11149   2.169   3.937   4.955
 3610SOL    HW111150   2.146   3.974   5.045
 3610SOL    HW211151   2.139   3.842   4.949
 3611SOL     OW11152   1.899   5.034   5.006
 3611SOL    HW111153   1.952   4.985   5.074
 3611SOL    HW211154   1.921   5.132   5.011
 3612SOL     OW11155   2.594   4.358   4.788
 3612SOL    HW111156   2.653   4.332   4.712
 3612SOL    HW211157   2.566   4.454   4.777
 3613SOL     OW11158   3.590   4.659   5.578
 3613SOL    HW111159   3.544   4.652   5.489
 3613SOL    HW211160   3.528   4.703   5.644
 3614SOL     OW11161   2.169   3.787   4.342
 3614SOL    HW111162   2.158   3.881   4.375
 3614SOL    HW211163   2.164   3.724   4.419
 3615SOL     OW11164   3.484   4.091   4.098
 3615SOL    HW111165   3.486   4.015   4.162
 3615SOL    HW211166   3.436   4.168   4.138
 3616SOL     OW11167   2.885   4.490   4.690
 3616SOL    HW111168   2.900   4.511   4.786
 3616SOL    HW211169   2.855   4.395   4.681
 3617SOL     OW11170   2.842   5.297   5.424
 3617SOL    HW111171   2.822   5.341   5.336
 3617SOL    HW211172   2.881   5.206   5.408
 3618SOL     OW11173   3.721   5.242   5.329
 3618SOL    HW111174   3.735   5.269   5.234
 3618SOL    HW211175   3.804   5.264   5.382
 3619SOL     OW11176   2.212   4.622   5.528
 3619SOL    HW111177   2.288   4.666   5.576
 3619SOL    HW211178   2.247   4.575   5.446
 3620SOL     OW11179   3.402   3.998   3.849
 3620SOL    HW111180   3.341   3.923   3.872
 3620SOL    HW211181   3.424   4.050   3.932
 3621SOL     OW11182   3.165   4.562   3.766
 3621SOL    HW111183   3.199   4.469   3.781
 3621SOL    HW211184   3.183   4.589   3.671
 3622SOL     OW11185   2.930   5.057   4.573
 3622SOL    HW111186   2.937   4.973   4.518
 3622SOL    HW211187   2.992   5.126   4.537
 3623SOL     OW11188   2.201   4.233   4.730
 3623SOL    HW111189   2.149   4.150   4.713
 3623SOL    HW211190   2.278   4.238   4.666
 3624SOL     OW11191   3.000   4.104   5.402
 3624SOL    HW111192   2.955   4.167   5.466
 3624SOL    HW211193   3.093   4.135   5.385
 3625SOL     OW11194   3.022   3.931   5.201
 3625SOL    HW111195   3.022   3.995   5.278
 3625SOL    HW211196   3.050   3.979   5.118
 3626SOL     OW11197   1.870   5.050   3.924
 3626SOL    HW111198   1.777   5.071   3.893
 3626SOL    HW211199   1.880   4.951   3.937
 3627SOL     OW11200   1.950   5.525   4.651
 3627SOL    HW111201   1.908   5.439   4.624
 3627SOL    HW211202   2.044   5.528   4.617
 3628SOL     OW11203   2.366   5.292   4.634
 3628SOL    HW111204   2.432   5.366   4.643
 3628SOL    HW211205   2.410   5.213   4.592
 3629SOL     OW11206   2.864   4.520   4.962
 3629SOL    HW111207   2.905   4.488   5.048
 3629SOL    HW211208   2.768   4.493   4.959
 3630SOL     OW11209   1.902   4.268   4.838
 3630SOL    HW111210   1.987   4.235   4.797
 3630SOL    HW211211   1.915   4.283   4.936
 3631SOL     OW11212   2.051   4.244   5.446
 3631SOL    HW111213   2.110   4.204   5.376
 3631SOL    HW211214   1.993   4.315   5.405
 3632SOL     OW11215   3.231   4.674   5.384
 3632SOL    HW111216   3.270   4.763   5.404
 3632SOL    HW211217   3.241   4.654   5.287
 3633SOL     OW11218   2.677   4.296   4.049
 3633SOL    HW111219   2.684   4.207   4.003
 3633SOL    HW211220   2.583   4.330   4.041
 3634SOL     OW11221   3.519   4.328   4.930
 3634SOL    HW111222   3.481   4.259   4.992
 3634SOL    HW211223   3.601   4.292   4.886
 3635SOL     OW11224   2.114   5.288   5.468
 3635SOL    HW111225   2.084   5.345   5.544
 3635SOL    HW211226   2.107   5.191   5.494
 3636SOL     OW11227   2.533   4.188   4.993
 3636SOL    HW111228   2.499   4.099   4.963
 3636SOL    HW211229   2.559   4.242   4.913
 3637SOL     OW11230   2.792   5.402   5.189
 3637SOL    HW111231   2.768   5.384   5.094
 3637SOL    HW211232   2.822   5.496   5.199
 3638SOL     OW11233   2.335   4.224   3.915
 3638SOL    HW111234   2.396   4.304   3.919
 3638SOL    HW211235   2.240   4.255   3.922
 3639SOL     OW11236   2.021   4.861   5.190
 3639SOL    HW111237   2.043   4.800   5.266
 3639SOL    HW211238   2.031   4.812   5.104
 3640SOL     OW11239   3.209   4.783   4.958
 3640SOL    HW111240   3.233   4.720   4.884
 3640SOL    HW211241   3.119   4.823   4.940
 3641SOL     OW11242   3.164   4.579   4.033
 3641SOL    HW111243   3.078   4.548   4.075
 3641SOL    HW211244   3.160   4.565   3.934
 3642SOL     OW11245   3.621   5.471   4.878
 3642SOL    HW111246   3.682   5.501   4.805
 3642SOL    HW211247   3.583   5.382   4.856
 3643SOL     OW11248   3.114   5.455   4.852
 3643SOL    HW111249   3.198   5.460   4.798
 3643SOL    HW211250   3.091   5.359   4.870
 3644SOL     OW11251   1.945   4.982   4.746
 3644SOL    HW111252   1.940   4.981   4.846
 3644SOL    HW211253   1.862   4.941   4.708
 3645SOL     OW11254   2.550   5.386   5.440
 3645SOL    HW111255   2.494   5.467   5.449
 3645SOL    HW211256   2.602   5.390   5.354
 3646SOL     OW11257   3.588   3.859   4.247
 3646SOL    HW111258   3.661   3.842   4.180
 3646SOL    HW211259   3.557   3.772   4.285
 3647SOL     OW11260   3.250   5.297   4.201
 3647SOL    HW111261   3.317   5.309   4.127
 3647SOL    HW211262   3.210   5.386   4.224
 3648SOL     OW11263   1.992   5.518   5.575
 3648SOL    HW111264   1.951   5.444   5.628
 3648SOL    HW211265   2.056   5.569   5.633
 3649SOL     OW11266   3.142   4.651   4.396
 3649SOL    HW111267   3.202   4.570   4.398
 3649SOL    HW211268   3.182   4.720   4.336
 3650SOL     OW11269   2.692   4.997   5.146
 3650SOL    HW111270   2.687   5.030   5.241
 3650SOL    HW211271   2.606   5.016   5.100
 3651SOL     OW11272   2.534   5.340   3.878
 3651SOL    HW111273   2.543   5.350   3.779
 3651SOL    HW211274   2.494   5.251   3.899
 3652SOL     OW11275   3.512   5.444   5.118
 3652SOL    HW111276   3.565   5.454   5.034
 3652SOL    HW211277   3.485   5.534   5.152
 3653SOL     OW11278   3.703   3.899   4.687
 3653SOL    HW111279   3.742   3.814   4.651
 3653SOL    HW211280   3.605   3.901   4.668
 3654SOL     OW11281   2.125   4.050   4.444
 3654SOL    HW111282   2.046   4.101   4.410
 3654SOL    HW211283   2.116   4.035   4.542
 3655SOL     OW11284   3.056   5.336   3.755
 3655SOL    HW111285   3.062   5.243   3.792
 3655SOL    HW211286   2.997   5.336   3.675
 3656SOL     OW11287   2.684   4.726   5.096
 3656SOL    HW111288   2.724   4.725   5.004
 3656SOL    HW211289   2.694   4.818   5.136
 3657SOL     OW11290   2.778   4.634   4.015
 3657SOL    HW111291   2.841   4.672   3.947
 3657SOL    HW211292   2.818   4.551   4.054
 3658SOL     OW11293   3.366   5.331   3.768
 3658SOL    HW111294   3.274   5.368   3.775
 3658SOL    HW211295   3.404   5.351   3.678
 3659SOL     OW11296   2.234   5.012   5.214
 3659SOL    HW111297   2.221   5.105   5.180
 3659SOL    HW211298   2.150   4.960   5.201
 3660SOL     OW11299   3.476   5.016   5.013
 3660SOL    HW111300   3.536   5.019   5.093
 3660SOL    HW211301   3.401   5.080   5.026
 3661SOL     OW11302   2.901   4.822   4.420
 3661SOL    HW111303   2.831   4.775   4.474
 3661SOL    HW211304   2.960   4.754   4.377
 3662SOL     OW11305   2.876   3.960   4.695
 3662SOL    HW111306   2.868   3.924   4.602
 3662SOL    HW211307   2.874   3.884   4.760
 3663SOL     OW11308   2.452   5.211   4.215
 3663SOL    HW111309   2.494   5.153   4.145
 3663SOL    HW211310   2.408   5.290   4.171
 3664SOL     OW11311   3.571   4.109   5.105
 3664SOL    HW111312   3.644   4.178   5.109
 3664SOL    HW211313   3.599   4.034   5.046
 3665SOL     OW11314   2.117   5.072   4.014
 3665SOL    HW111315   2.021   5.073   3.987
 3665SOL    HW211316   2.129   5.125   4.098
 3666SOL     OW11317   1.967   4.737   5.450
 3666SOL    HW111318   1.890   4.704   5.504
 3666SOL    HW211319   2.052   4.707   5.492
 3667SOL     OW11320   2.534   3.927   5.213
 3667SOL    HW111321   2.624   3.911   5.173
 3667SOL    HW211322   2.542   3.932   5.312
 3668SOL     OW11323   1.937   4.069   3.757
 3668SOL    HW111324   1.845   4.041   3.728
 3668SOL    HW211325   1.968   4.146   3.701
 3669SOL     OW11326   3.302   4.580   5.122
 3669SOL    HW111327   3.245   4.632   5.059
 3669SOL    HW211328   3.398   4.592   5.098
 3670SOL     OW11329   1.934   3.890   4.042
 3670SOL    HW111330   1.917   3.973   3.988
 3670SOL    HW211331   2.024   3.853   4.020
 3671SOL     OW11332   3.045   5.059   3.843
 3671SOL    HW111333   2.946   5.048   3.845
 3671SOL    HW211334   3.079   5.074   3.936
 3672SOL     OW11335   2.475   4.566   5.155
 3672SOL    HW111336   2.531   4.647   5.138
 3672SOL    HW211337   2.534   4.486   5.158
 3673SOL     OW11338   3.355   5.491   4.683
 3673SOL    HW111339   3.388   5.555   4.614
 3673SOL    HW211340   3.421   5.485   4.758
 3674SOL     OW11341   2.578   4.289   5.432
 3674SOL    HW111342   2.597   4.354   5.506
 3674SOL    HW211343   2.638   4.209   5.441
 3675SOL     OW11344   3.312   4.944   5.357
 3675SOL    HW111345   3.303   4.934   5.456
 3675SOL    HW211346   3.408   4.937   5.331
 3676SOL     OW11347   2.252   5.465   5.284
 3676SOL    HW111348   2.161   5.506   5.282
 3676SOL    HW211349   2.245   5.371   5.316
 3677SOL     OW11350   3.536   4.607   4.978
 3677SOL    HW111351   3.509   4.518   4.941
 3677SOL    HW211352   3.537   4.675   4.905
 3678SOL     OW11353   3.087   4.049   4.173
 3678SOL    HW111354   3.152   3.975   4.162
 3678SOL    HW211355   3.107   4.099   4.257
 3679SOL     OW11356   2.456   4.469   4.376
 3679SOL    HW111357   2.506   4.554   4.357
 3679SOL    HW211358   2.368   4.471   4.328
 3680SOL     OW11359   3.639   4.066   5.366
 3680SOL    HW111360   3.622   4.097   5.272
 3680SOL    HW211361   3.555   4.029   5.404
 3681SOL     OW11362   3.592   4.658   5.241
 3681SOL    HW111363   3.630   4.749   5.256
 3681SOL    HW211364   3.584   4.641   5.142
 3682SOL     OW11365   2.721   5.098   3.740
 3682SOL    HW111366   2.675   5.113   3.828
 3682SOL    HW211367   2.765   5.183   3.710
 3683SOL     OW11368   2.523   5.514   4.677
 3683SOL    HW111369   2.477   5.602   4.664
 3683SOL    HW211370   2.622   5.526   4.670
 3684SOL     OW11371   2.721   4.680   4.585
 3684SOL    HW111372   2.775   4.611   4.633
 3684SOL    HW211373   2.689   4.749   4.651
 3685SOL     OW11374   2.945   4.708   3.811
 3685SOL    HW111375   2.922   4.761   3.729
 3685SOL    HW211376   3.026   4.652   3.792
 3686SOL     OW11377   3.723   5.293   4.575
 3686SOL    HW111378   3.652   5.281   4.505
 3686SOL    HW211379   3.724   5.214   4.635
 3687SOL     OW11380   2.083   5.038   5.568
 3687SOL    HW111381   2.018   4.965   5.547
 3687SOL    HW211382   2.087   5.052   5.666
 3688SOL     OW11383   1.941   4.964   4.377
 3688SOL    HW111384   1.940   4.917   4.465
 3688SOL    HW211385   2.023   4.936   4.326
 3689SOL     OW11386   2.534   5.115   5.348
 3689SOL    HW111387   2.456   5.065   5.386
 3689SOL    HW211388   2.531   5.210   5.379
 3690SOL     OW11389   3.686   3.916   4.951
 3690SOL    HW111390   3.682   3.826   4.995
 3690SOL    HW211391   3.689   3.905   4.852
 3691SOL     OW11392   2.290   4.148   4.244
 3691SOL    HW111393   2.320   4.076   4.182
 3691SOL    HW211394   2.251   4.108   4.327
 3692SOL     OW11395   3.567   5.211   4.828
 3692SOL    HW111396   3.474   5.186   4.801
 3692SOL    HW211397   3.593   5.161   4.910
 3693SOL     OW11398   2.179   4.271   5.004
 3693SOL    HW111399   2.217   4.212   5.076
 3693SOL    HW211400   2.219   4.245   4.916
 3694SOL     OW11401   2.674   5.310   4.411
 3694SOL    HW111402   2.706   5.320   4.317
 3694SOL    HW211403   2.595   5.248   4.413
 3695SOL     OW11404   3.286   3.938   4.836
 3695SOL    HW111405   3.338   3.873   4.891
 3695SOL    HW211406   3.237   4.001   4.897
 3696SOL     OW11407   2.863   3.758   4.878
 3696SOL    HW111408   2.800   3.686   4.847
 3696SOL    HW211409   2.956   3.722   4.878
 3697SOL     OW11410   2.632   5.054   4.025
 3697SOL    HW111411   2.586   4.967   4.042
 3697SOL    HW211412   2.723   5.051   4.066
 3698SOL     OW11413   2.480   5.291   5.008
 3698SOL    HW111414   2.475   5.373   5.065
 3698SOL    HW211415   2.569   5.288   4.963
 3699SOL     OW11416   3.214   3.776   3.892
 3699SOL    HW111417   3.249   3.735   3.808
 3699SOL    HW211418   3.124   3.738   3.912
 3700SOL     OW11419   3.162   4.177   4.415
 3700SOL    HW111420   3.103   4.257   4.419
 3700SOL    HW211421   3.177   4.142   4.508
 3701SOL     OW11422   3.455   3.945   4.606
 3701SOL    HW111423   3.371   3.944   4.660
 3701SOL    HW211424   3.457   4.028   4.550
 3702SOL     OW11425   1.901   4.801   4.024
 3702SOL    HW111426   2.000   4.790   4.015
 3702SOL    HW211427   1.861   4.715   4.056
 3703SOL     OW11428   2.737   5.370   4.061
 3703SOL    HW111429   2.660   5.335   4.007
 3703SOL    HW211430   2.705   5.441   4.123
 3704SOL     OW11431   3.954   0.628   0.113
 3704SOL    HW111432   3.861   0.626   0.150
 3704SOL    HW211433   3.955   0.589   0.021
 3705SOL     OW11434   3.949   0.275   0.996
 3705SOL    HW111435   3.984   0.258   1.088
 3705SOL    HW211436   3.861   0.230   0.984
 3706SOL     OW11437   3.743   0.368   0.647
 3706SOL    HW111438   3.661   0.411   0.686
 3706SOL    HW211439   3.715   0.295   0.584
 3707SOL     OW11440   4.293   1.275   1.165
 3707SOL    HW111441   4.200   1.268   1.128
 3707SOL    HW211442   4.304   1.364   1.209
 3708SOL     OW11443   5.279   1.511   0.703
 3708SOL    HW111444   5.222   1.495   0.784
 3708SOL    HW211445   5.220   1.521   0.623
 3709SOL     OW11446   4.859   0.703   0.717
 3709SOL    HW111447   4.916   0.781   0.692
 3709SOL    HW211448   4.799   0.729   0.793
 3710SOL     OW11449   5.479   0.607   0.231
 3710SOL    HW111450   5.467   0.594   0.132
 3710SOL    HW211451   5.449   0.526   0.280
 3711SOL     OW11452   4.492   1.144   1.023
 3711SOL    HW111453   4.414   1.161   1.083
 3711SOL    HW211454   4.526   1.231   0.987
 3712SOL     OW11455   4.574   0.798   1.823
 3712SOL    HW111456   4.570   0.874   1.888
 3712SOL    HW211457   4.596   0.834   1.732
 3713SOL     OW11458   4.409   1.012   0.665
 3713SOL    HW111459   4.478   0.996   0.735
 3713SOL    HW211460   4.336   1.069   0.703
 3714SOL     OW11461   4.410   1.161   1.803
 3714SOL    HW111462   4.470   1.240   1.817
 3714SOL    HW211463   4.324   1.192   1.762
 3715SOL     OW11464   4.059   1.435   1.061
 3715SOL    HW111465   3.981   1.404   1.008
 3715SOL    HW211466   4.117   1.493   1.004
 3716SOL     OW11467   5.184   1.505   1.339
 3716SOL    HW111468   5.208   1.599   1.365
 3716SOL    HW211469   5.168   1.451   1.421
 3717SOL     OW11470   4.162   0.392   1.499
 3717SOL    HW111471   4.244   0.336   1.508
 3717SOL    HW211472   4.081   0.334   1.503
 3718SOL     OW11473   5.327   0.447   0.737
 3718SOL    HW111474   5.253   0.493   0.687
 3718SOL    HW211475   5.378   0.515   0.790
 3719SOL     OW11476   3.955   1.713   0.483
 3719SOL    HW111477   3.989   1.790   0.537
 3719SOL    HW211478   3.999   1.713   0.393
 3720SOL     OW11479   4.851   1.341   1.690
 3720SOL    HW111480   4.898   1.341   1.778
 3720SOL    HW211481   4.803   1.254   1.679
 3721SOL     OW11482   3.954   1.434   0.538
 3721SOL    HW111483   3.928   1.530   0.538
 3721SOL    HW211484   3.883   1.380   0.583
 3722SOL     OW11485   3.964   1.091   0.886
 3722SOL    HW111486   3.978   1.007   0.938
 3722SOL    HW211487   3.909   1.155   0.941
 3723SOL     OW11488   4.344   1.786   1.439
 3723SOL    HW111489   4.252   1.769   1.474
 3723SOL    HW211490   4.372   1.878   1.465
 3724SOL     OW11491   4.330   0.964   0.123
 3724SOL    HW111492   4.337   1.048   0.069
 3724SOL    HW211493   4.376   0.977   0.211
 3725SOL     OW11494   5.318   0.114   1.480
 3725SOL    HW111495   5.300   0.181   1.408
 3725SOL    HW211496   5.315   0.160   1.569
 3726SOL     OW11497   3.846   0.643   0.563
 3726SOL    HW111498   3.801   0.555   0.580
 3726SOL    HW211499   3.845   0.697   0.647
 3727SOL     OW11500   5.566   1.767   0.359
 3727SOL    HW111501   5.620   1.738   0.439
 3727SOL    HW211502   5.596   1.857   0.330
 3728SOL     OW11503   3.751   1.596   0.117
 3728SOL    HW111504   3.732   1.500   0.138
 3728SOL    HW211505   3.718   1.654   0.192
 3729SOL     OW11506   5.413   0.922   0.612
 3729SOL    HW111507   5.508   0.893   0.620
 3729SOL    HW211508   5.405   0.987   0.537
 3730SOL     OW11509   5.365   1.108   0.432
 3730SOL    HW111510   5.451   1.110   0.380
 3730SOL    HW211511   5.379   1.155   0.520
 3731SOL     OW11512   3.837   0.737   1.597
 3731SOL    HW111513   3.925   0.724   1.642
 3731SOL    HW211514   3.824   0.834   1.575
 3732SOL     OW11515   4.337   1.365   0.726
 3732SOL    HW111516   4.288   1.278   0.735
 3732SOL    HW211517   4.314   1.408   0.639
 3733SOL     OW11518   5.017   1.228   1.423
 3733SOL    HW111519   5.054   1.155   1.365
 3733SOL    HW211520   5.069   1.233   1.508
 3734SOL     OW11521   4.533   0.004   0.502
 3734SOL    HW111522   4.573   0.095   0.493
 3734SOL    HW211523   4.433   0.012   0.508
 3735SOL     OW11524   3.921   0.976   1.264
 3735SOL    HW111525   4.010   0.931   1.250
 3735SOL    HW211526   3.848   0.911   1.245
 3736SOL     OW11527   5.249   0.999   0.190
 3736SOL    HW111528   5.186   0.923   0.203
 3736SOL    HW211529   5.297   1.017   0.276
 3737SOL     OW11530   4.911   1.792   1.616
 3737SOL    HW111531   4.935   1.852   1.540
 3737SOL    HW211532   4.918   1.697   1.586
 3738SOL     OW11533   4.041   0.251   1.801
 3738SOL    HW111534   4.112   0.322   1.807
 3738SOL    HW211535   3.953   0.290   1.829
 3739SOL     OW11536   5.190   1.417   0.953
 3739SOL    HW111537   5.131   1.423   1.033
 3739SOL    HW211538   5.175   1.329   0.907
 3740SOL     OW11539   5.391   1.714   0.572
 3740SOL    HW111540   5.350   1.691   0.484
 3740SOL    HW211541   5.373   1.640   0.637
 3741SOL     OW11542   4.322   0.729   0.270
 3741SOL    HW111543   4.346   0.798   0.202
 3741SOL    HW211544   4.244   0.762   0.324
 3742SOL     OW11545   5.005   0.345   0.944
 3742SOL    HW111546   4.919   0.295   0.931
 3742SOL    HW211547   5.067   0.291   1.000
 3743SOL     OW11548   5.300   1.662   0.307
 3743SOL    HW111549   5.389   1.708   0.310
 3743SOL    HW211550   5.279   1.638   0.212
 3744SOL     OW11551   4.531   0.605   1.465
 3744SOL    HW111552   4.484   0.602   1.554
 3744SOL    HW211553   4.480   0.550   1.399
 3745SOL     OW11554   5.118   0.469   1.674
 3745SOL    HW111555   5.098   0.512   1.762
 3745SOL    HW211556   5.196   0.407   1.683
 3746SOL     OW11557   4.697   0.890   1.572
 3746SOL    HW111558   4.743   0.806   1.543
 3746SOL    HW211559   4.641   0.924   1.497
 3747SOL     OW11560   4.715   0.410   1.242
 3747SOL    HW111561   4.638   0.444   1.296
 3747SOL    HW211562   4.681   0.359   1.163
 3748SOL     OW11563   4.765   0.701   0.429
 3748SOL    HW111564   4.791   0.697   0.525
 3748SOL    HW211565   4.680   0.650   0.415
 3749SOL     OW11566   3.800   0.811   0.789
 3749SOL    HW111567   3.899   0.799   0.798
 3749SOL    HW211568   3.776   0.906   0.810
 3750SOL     OW11569   3.854   1.821   1.571
 3750SOL    HW111570   3.844   1.806   1.670
 3750SOL    HW211571   3.768   1.857   1.535
 3751SOL     OW11572   4.589   0.348   0.195
 3751SOL    HW111573   4.648   0.411   0.146
 3751SOL    HW211574   4.608   0.254   0.166
 3752SOL     OW11575   5.443   0.585   1.831
 3752SOL    HW111576   5.417   0.674   1.795
 3752SOL    HW211577   5.441   0.517   1.758
 3753SOL     OW11578   5.086   1.144   0.545
 3753SOL    HW111579   5.169   1.115   0.497
 3753SOL    HW211580   5.037   1.211   0.489
 3754SOL     OW11581   4.274   0.196   0.885
 3754SOL    HW111582   4.269   0.191   0.985
 3754SOL    HW211583   4.276   0.292   0.856
 3755SOL     OW11584   4.732   1.456   0.477
 3755SOL    HW111585   4.686   1.528   0.425
 3755SOL    HW211586   4.728   1.476   0.575
 3756SOL     OW11587   4.075   1.801   0.853
 3756SOL    HW111588   4.125   1.715   0.859
 3756SOL    HW211589   4.140   1.878   0.850
 3757SOL     OW11590   5.519   1.066   0.873
 3757SOL    HW111591   5.457   1.051   0.797
 3757SOL    HW211592   5.467   1.077   0.958
 3758SOL     OW11593   4.951   1.550   1.506
 3758SOL    HW111594   4.957   1.473   1.570
 3758SOL    HW211595   4.899   1.524   1.426
 3759SOL     OW11596   4.045   0.943   0.242
 3759SOL    HW111597   4.127   0.982   0.200
 3759SOL    HW211598   4.018   0.861   0.193
 3760SOL     OW11599   5.182   0.735   0.728
 3760SOL    HW111600   5.177   0.670   0.803
 3760SOL    HW211601   5.262   0.794   0.741
 3761SOL     OW11602   4.185   1.266   1.727
 3761SOL    HW111603   4.135   1.267   1.641
 3761SOL    HW211604   4.122   1.248   1.803
 3762SOL     OW11605   4.835   1.776   0.237
 3762SOL    HW111606   4.775   1.714   0.287
 3762SOL    HW211607   4.866   1.732   0.152
 3763SOL     OW11608   3.926   0.285   1.498
 3763SOL    HW111609   3.846   0.345   1.485
 3763SOL    HW211610   3.916   0.236   1.584
 3764SOL     OW11611   5.356   1.377   0.081
 3764SOL    HW111612   5.324   1.471   0.071
 3764SOL    HW211613   5.280   1.314   0.069
 3765SOL     OW11614   4.188   1.743   0.323
 3765SOL    HW111615   4.221   1.782   0.409
 3765SOL    HW211616   4.264   1.736   0.258
 3766SOL     OW11617   5.124   0.107   0.426
 3766SOL    HW111618   5.100   0.070   0.336
 3766SOL    HW211619   5.223   0.123   0.430
 3767SOL     OW11620   3.973   1.785   1.241
 3767SOL    HW111621   4.030   1.720   1.291
 3767SOL    HW211622   3.957   1.752   1.148
 3768SOL     OW11623   4.664   1.698   0.904
 3768SOL    HW111624   4.744   1.641   0.925
 3768SOL    HW211625   4.615   1.658   0.827
 3769SOL     OW11626   4.106   0.700   0.480
 3769SOL    HW111627   4.151   0.610   0.477
 3769SOL    HW211628   4.012   0.689   0.513
 3770SOL     OW11629   5.271   0.222   1.729
 3770SOL    HW111630   5.266   0.259   1.821
 3770SOL    HW211631   5.199   0.153   1.717
 3771SOL     OW11632   4.338   0.122   0.117
 3771SOL    HW111633   4.436   0.100   0.124
 3771SOL    HW211634   4.307   0.105   0.024
 3772SOL     OW11635   4.505   0.264   1.749
 3772SOL    HW111636   4.572   0.203   1.792
 3772SOL    HW211637   4.432   0.283   1.814
 3773SOL     OW11638   4.612   1.514   1.195
 3773SOL    HW111639   4.589   1.489   1.101
 3773SOL    HW211640   4.673   1.445   1.234
 3774SOL     OW11641   5.075   0.590   1.433
 3774SOL    HW111642   5.103   0.547   1.518
 3774SOL    HW211643   5.100   0.686   1.434
 3775SOL     OW11644   4.527   1.402   0.924
 3775SOL    HW111645   4.617   1.416   0.882
 3775SOL    HW211646   4.456   1.404   0.853
 3776SOL     OW11647   4.646   0.503   0.899
 3776SOL    HW111648   4.621   0.494   0.803
 3776SOL    HW211649   4.694   0.421   0.930
 3777SOL     OW11650   4.263   0.064   0.512
 3777SOL    HW111651   4.182   0.065   0.570
 3777SOL    HW211652   4.266   0.147   0.457
 3778SOL     OW11653   5.158   1.188   0.041
 3778SOL    HW111654   5.190   1.112   0.098
 3778SOL    HW211655   5.066   1.215   0.071
 3779SOL     OW11656   4.021   0.035   0.171
 3779SOL    HW111657   4.070   0.119   0.150
 3779SOL    HW211658   4.083  -0.030   0.216
 3780SOL     OW11659   4.659   0.236   0.480
 3780SOL    HW111660   4.611   0.277   0.402
 3780SOL    HW211661   4.758   0.234   0.461
 3781SOL     OW11662   4.800   0.683   1.464
 3781SOL    HW111663   4.720   0.622   1.467
 3781SOL    HW211664   4.881   0.630   1.440
 3782SOL     OW11665   4.951   1.570   0.793
 3782SOL    HW111666   4.972   1.644   0.728
 3782SOL    HW211667   5.019   1.570   0.866
 3783SOL     OW11668   4.183   1.152   0.741
 3783SOL    HW111669   4.112   1.125   0.806
 3783SOL    HW211670   4.157   1.124   0.648
 3784SOL     OW11671   4.995   1.797   0.591
 3784SOL    HW111672   5.039   1.861   0.527
 3784SOL    HW211673   4.945   1.849   0.661
 3785SOL     OW11674   4.756   0.549   0.016
 3785SOL    HW111675   4.715   0.631  -0.023
 3785SOL    HW211676   4.820   0.575   0.089
 3786SOL     OW11677   3.802   0.556   1.386
 3786SOL    HW111678   3.894   0.555   1.345
 3786SOL    HW211679   3.796   0.630   1.453
 3787SOL     OW11680   4.285   0.222   1.147
 3787SOL    HW111681   4.323   0.138   1.184
 3787SOL    HW211682   4.197   0.241   1.191
 3788SOL     OW11683   4.590   0.454   0.642
 3788SOL    HW111684   4.558   0.526   0.580
 3788SOL    HW211685   4.614   0.373   0.589
 3789SOL     OW11686   4.741   0.039   0.753
 3789SOL    HW111687   4.669   0.044   0.684
 3789SOL    HW211688   4.717  -0.030   0.822
 3790SOL     OW11689   5.153   1.173   0.867
 3790SOL    HW111690   5.098   1.089   0.860
 3790SOL    HW211691   5.179   1.202   0.775
 3791SOL     OW11692   5.190   0.590   0.992
 3791SOL    HW111693   5.160   0.495   0.999
 3791SOL    HW211694   5.263   0.606   1.058
 3792SOL     OW11695   5.581   0.833   0.377
 3792SOL    HW111696   5.623   0.769   0.441
 3792SOL    HW211697   5.543   0.782   0.299
 3793SOL     OW11698   4.212   1.385   0.174
 3793SOL    HW111699   4.125   1.370   0.221
 3793SOL    HW211700   4.195   1.411   0.079
 3794SOL     OW11701   5.388   1.280   0.657
 3794SOL    HW111702   5.487   1.288   0.671
 3794SOL    HW211703   5.343   1.364   0.688
 3795SOL     OW11704   5.114   0.575   0.078
 3795SOL    HW111705   5.060   0.554   0.159
 3795SOL    HW211706   5.205   0.534   0.087
 3796SOL     OW11707   4.251   0.256   0.328
 3796SOL    HW111708   4.278   0.197   0.253
 3796SOL    HW211709   4.251   0.351   0.297
 3797SOL     OW11710   5.478   1.223   1.588
 3797SOL    HW111711   5.569   1.184   1.575
 3797SOL    HW211712   5.486   1.319   1.612
 3798SOL     OW11713   4.788   1.347   1.340
 3798SOL    HW111714   4.708   1.324   1.395
 3798SOL    HW211715   4.871   1.321   1.389
 3799SOL     OW11716   5.316   1.629   1.625
 3799SOL    HW111717   5.343   1.663   1.535
 3799SOL    HW211718   5.395   1.591   1.671
 3800SOL     OW11719   4.835   1.195   1.100
 3800SOL    HW111720   4.795   1.239   1.181
 3800SOL    HW211721   4.794   1.232   1.017
 3801SOL     OW11722   5.362   1.099   1.079
 3801SOL    HW111723   5.367   1.180   1.138
 3801SOL    HW211724   5.276   1.101   1.028
 3802SOL     OW11725   4.639   0.089   1.402
 3802SOL    HW111726   4.664   0.069   1.307
 3802SOL    HW211727   4.711   0.145   1.444
 3803SOL     OW11728   4.704   1.116   1.719
 3803SOL    HW111729   4.605   1.122   1.729
 3803SOL    HW211730   4.727   1.036   1.663
 3804SOL     OW11731   4.429   1.050   0.368
 3804SOL    HW111732   4.415   1.057   0.467
 3804SOL    HW211733   4.513   0.999   0.350
 3805SOL     OW11734   4.134   0.813   1.251
 3805SOL    HW111735   4.220   0.825   1.301
 3805SOL    HW211736   4.092   0.726   1.278
 3806SOL     OW11737   4.998   0.386   1.262
 3806SOL    HW111738   5.019   0.460   1.326
 3806SOL    HW211739   4.909   0.403   1.219
 3807SOL     OW11740   3.788   1.564   1.331
 3807SOL    HW111741   3.742   1.646   1.297
 3807SOL    HW211742   3.886   1.583   1.340
 3808SOL     OW11743   4.091   1.100   0.501
 3808SOL    HW111744   4.084   1.183   0.445
 3808SOL    HW211745   4.095   1.020   0.441
 3809SOL     OW11746   4.290   0.537   0.865
 3809SOL    HW111747   4.302   0.603   0.791
 3809SOL    HW211748   4.336   0.571   0.948
 3810SOL     OW11749   4.976   1.348   0.388
 3810SOL    HW111750   5.026   1.425   0.428
 3810SOL    HW211751   4.881   1.350   0.420
 3811SOL     OW11752   4.996   1.445   1.142
 3811SOL    HW111753   5.043   1.458   1.229
 3811SOL    HW211754   4.930   1.371   1.151
 3812SOL     OW11755   5.306   0.639   0.472
 3812SOL    HW111756   5.275   0.700   0.545
 3812SOL    HW211757   5.356   0.691   0.403
 3813SOL     OW11758   4.078   1.510   1.329
 3813SOL    HW111759   4.057   1.466   1.242
 3813SOL    HW211760   4.175   1.536   1.332
 3814SOL     OW11761   4.126   0.751   1.598
 3814SOL    HW111762   4.194   0.806   1.551
 3814SOL    HW211763   4.166   0.663   1.625
 3815SOL     OW11764   5.311   0.779   1.670
 3815SOL    HW111765   5.219   0.817   1.665
 3815SOL    HW211766   5.371   0.826   1.605
 3816SOL     OW11767   4.737   0.105   1.770
 3816SOL    HW111768   4.743   0.190   1.718
 3816SOL    HW211769   4.769   0.029   1.713
 3817SOL     OW11770   4.228   0.050   1.740
 3817SOL    HW111771   4.186  -0.007   1.670
 3817SOL    HW211772   4.162   0.119   1.772
 3818SOL     OW11773   4.297   0.870   1.029
 3818SOL    HW111774   4.341   0.959   1.020
 3818SOL    HW211775   4.234   0.870   1.106
 3819SOL     OW11776   5.084   0.862   1.045
 3819SOL    HW111777   5.009   0.862   0.979
 3819SOL    HW211778   5.121   0.770   1.054
 3820SOL     OW11779   4.933   0.525   0.275
 3820SOL    HW111780   4.946   0.441   0.329
 3820SOL    HW211781   4.904   0.599   0.335
 3821SOL     OW11782   4.031   0.213   1.231
 3821SOL    HW111783   4.008   0.250   1.321
 3821SOL    HW211784   4.001   0.118   1.225
 3822SOL     OW11785   3.761   1.310   1.282
 3822SOL    HW111786   3.814   1.261   1.350
 3822SOL    HW211787   3.783   1.408   1.287
 3823SOL     OW11788   4.456   0.634   1.064
 3823SOL    HW111789   4.515   0.608   0.988
 3823SOL    HW211790   4.428   0.730   1.053
 3824SOL     OW11791   5.452   0.935   1.854
 3824SOL    HW111792   5.406   0.928   1.765
 3824SOL    HW211793   5.390   0.979   1.920
 3825SOL     OW11794   4.031   0.063   0.618
 3825SOL    HW111795   4.020   0.157   0.651
 3825SOL    HW211796   4.026   0.000   0.695
 3826SOL     OW11797   5.346   0.367   0.374
 3826SOL    HW111798   5.348   0.291   0.438
 3826SOL    HW211799   5.298   0.444   0.414
 3827SOL     OW11800   4.747   0.766   0.966
 3827SOL    HW111801   4.762   0.787   1.062
 3827SOL    HW211802   4.717   0.671   0.957
 3828SOL     OW11803   4.704   1.573   1.700
 3828SOL    HW111804   4.684   1.617   1.612
 3828SOL    HW211805   4.743   1.482   1.684
 3829SOL     OW11806   5.583   1.518   1.605
 3829SOL    HW111807   5.597   1.545   1.510
 3829SOL    HW211808   5.666   1.540   1.658
 3830SOL     OW11809   4.074   0.898   1.804
 3830SOL    HW111810   4.150   0.942   1.852
 3830SOL    HW211811   4.109   0.851   1.722
 3831SOL     OW11812   5.264   0.274   0.125
 3831SOL    HW111813   5.203   0.199   0.148
 3831SOL    HW211814   5.286   0.326   0.208
 3832SOL     OW11815   5.027   0.838   0.042
 3832SOL    HW111816   5.061   0.745   0.057
 3832SOL    HW211817   5.045   0.865  -0.053
 3833SOL     OW11818   4.792   1.333   0.849
 3833SOL    HW111819   4.799   1.249   0.794
 3833SOL    HW211820   4.854   1.402   0.813
 3834SOL     OW11821   4.043   0.810   0.949
 3834SOL    HW111822   4.136   0.846   0.954
 3834SOL    HW211823   4.037   0.725   1.001
 3835SOL     OW11824   4.063   0.509   1.006
 3835SOL    HW111825   4.011   0.426   0.989
 3835SOL    HW211826   4.140   0.514   0.942
 3836SOL     OW11827   4.862   0.380   1.678
 3836SOL    HW111828   4.817   0.443   1.742
 3836SOL    HW211829   4.955   0.411   1.661
 3837SOL     OW11830   4.884   0.207   1.477
 3837SOL    HW111831   4.884   0.271   1.554
 3837SOL    HW211832   4.912   0.255   1.394
 3838SOL     OW11833   3.732   1.326   0.200
 3838SOL    HW111834   3.639   1.347   0.169
 3838SOL    HW211835   3.742   1.227   0.213
 3839SOL     OW11836   3.812   1.801   0.927
 3839SOL    HW111837   3.770   1.715   0.900
 3839SOL    HW211838   3.906   1.804   0.893
 3840SOL     OW11839   4.228   1.568   0.910
 3840SOL    HW111840   4.294   1.642   0.919
 3840SOL    HW211841   4.272   1.489   0.868
 3841SOL     OW11842   4.726   0.796   1.238
 3841SOL    HW111843   4.767   0.764   1.324
 3841SOL    HW211844   4.630   0.769   1.235
 3842SOL     OW11845   3.764   0.544   1.114
 3842SOL    HW111846   3.849   0.511   1.073
 3842SOL    HW211847   3.777   0.559   1.212
 3843SOL     OW11848   3.913   0.520   1.722
 3843SOL    HW111849   3.972   0.480   1.652
 3843SOL    HW211850   3.855   0.591   1.681
 3844SOL     OW11851   5.093   0.950   1.660
 3844SOL    HW111852   5.132   1.039   1.680
 3844SOL    HW211853   5.103   0.930   1.563
 3845SOL     OW11854   4.539   0.572   0.325
 3845SOL    HW111855   4.546   0.483   0.279
 3845SOL    HW211856   4.445   0.606   0.317
 3846SOL     OW11857   5.381   0.604   1.206
 3846SOL    HW111858   5.343   0.535   1.268
 3846SOL    HW211859   5.463   0.568   1.162
 3847SOL     OW11860   3.976   1.564   1.744
 3847SOL    HW111861   3.946   1.621   1.820
 3847SOL    HW211862   3.969   1.467   1.770
 3848SOL     OW11863   4.395   0.464   1.269
 3848SOL    HW111864   4.361   0.375   1.239
 3848SOL    HW211865   4.421   0.518   1.189
 3849SOL     OW11866   4.654   1.678   1.465
 3849SOL    HW111867   4.630   1.660   1.370
 3849SOL    HW211868   4.684   1.772   1.475
 3850SOL     OW11869   4.197   0.500   0.191
 3850SOL    HW111870   4.258   0.580   0.195
 3850SOL    HW211871   4.102   0.531   0.198
 3851SOL     OW11872   3.883   1.137   1.466
 3851SOL    HW111873   3.905   1.076   1.542
 3851SOL    HW211874   3.893   1.088   1.380
 3852SOL     OW11875   5.071   1.059   1.234
 3852SOL    HW111876   5.095   0.996   1.160
 3852SOL    HW211877   4.981   1.099   1.216
 3853SOL     OW11878   5.026   0.855   0.309
 3853SOL    HW111879   4.940   0.824   0.351
 3853SOL    HW211880   5.022   0.841   0.210
 3854SOL     OW11881   5.483   1.747   1.154
 3854SOL    HW111882   5.544   1.777   1.081
 3854SOL    HW211883   5.445   1.658   1.132
 3855SOL     OW11884   4.976   1.731   1.128
 3855SOL    HW111885   5.060   1.736   1.074
 3855SOL    HW211886   4.953   1.635   1.146
 3856SOL     OW11887   3.807   1.258   1.022
 3856SOL    HW111888   3.802   1.257   1.122
 3856SOL    HW211889   3.724   1.217   0.984
 3857SOL     OW11890   4.412   1.662   1.716
 3857SOL    HW111891   4.356   1.743   1.725
 3857SOL    HW211892   4.464   1.666   1.630
 3858SOL     OW11893   4.627   0.086   0.133
 3858SOL    HW111894   4.678   0.087   0.047
 3858SOL    HW211895   4.683   0.044   0.204
 3859SOL     OW11896   5.450   0.135   0.523
 3859SOL    HW111897   5.523   0.118   0.456
 3859SOL    HW211898   5.419   0.048   0.561
 3860SOL     OW11899   5.112   1.573   0.477
 3860SOL    HW111900   5.179   1.585   0.403
 3860SOL    HW211901   5.072   1.662   0.500
 3861SOL     OW11902   3.854   1.794   1.851
 3861SOL    HW111903   3.813   1.720   1.904
 3861SOL    HW211904   3.918   1.845   1.909
 3862SOL     OW11905   5.004   0.927   0.672
 3862SOL    HW111906   5.064   0.846   0.674
 3862SOL    HW211907   5.044   0.996   0.612
 3863SOL     OW11908   4.554   1.273   1.422
 3863SOL    HW111909   4.549   1.306   1.517
 3863SOL    HW211910   4.468   1.292   1.376
 3864SOL     OW11911   4.396   1.616   0.154
 3864SOL    HW111912   4.405   1.626   0.055
 3864SOL    HW211913   4.356   1.527   0.175
 3865SOL     OW11914   5.374   1.720   1.394
 3865SOL    HW111915   5.427   1.730   1.310
 3865SOL    HW211916   5.347   1.810   1.428
 3866SOL     OW11917   5.565   0.175   0.963
 3866SOL    HW111918   5.604   0.090   0.927
 3866SOL    HW211919   5.467   0.177   0.944
 3867SOL     OW11920   3.987   0.326   0.720
 3867SOL    HW111921   3.908   0.377   0.686
 3867SOL    HW211922   3.978   0.311   0.818
 3868SOL     OW11923   4.918   1.612   0.031
 3868SOL    HW111924   4.924   1.519   0.068
 3868SOL    HW211925   4.859   1.612  -0.049
 3869SOL     OW11926   4.546   1.002   1.372
 3869SOL    HW111927   4.586   1.001   1.280
 3869SOL    HW211928   4.556   1.094   1.412
 3870SOL     OW11929   4.640   0.910   0.291
 3870SOL    HW111930   4.703   0.948   0.223
 3870SOL    HW211931   4.680   0.827   0.330
 3871SOL     OW11932   5.228   1.607   0.044
 3871SOL    HW111933   5.136   1.644   0.051
 3871SOL    HW211934   5.266   1.627  -0.046
 3872SOL     OW11935   4.096   1.288   1.490
 3872SOL    HW111936   4.083   1.381   1.456
 3872SOL    HW211937   4.012   1.236   1.477
 3873SOL     OW11938   5.338   1.292   1.289
 3873SOL    HW111939   5.398   1.295   1.369
 3873SOL    HW211940   5.263   1.356   1.302
 3874SOL     OW11941   4.763   1.098   0.696
 3874SOL    HW111942   4.693   1.051   0.750
 3874SOL    HW211943   4.822   1.030   0.653
 3875SOL     OW11944   4.738   0.236   0.971
 3875SOL    HW111945   4.730   0.200   0.878
 3875SOL    HW211946   4.736   0.160   1.036
 3876SOL     OW11947   4.314   1.487   0.491
 3876SOL    HW111948   4.356   1.429   0.421
 3876SOL    HW211949   4.270   1.566   0.447
 3877SOL     OW11950   5.433   0.385   1.381
 3877SOL    HW111951   5.506   0.454   1.385
 3877SOL    HW211952   5.461   0.310   1.322
 3878SOL     OW11953   3.979   1.348   0.290
 3878SOL    HW111954   3.883   1.349   0.263
 3878SOL    HW211955   3.991   1.401   0.374
 3879SOL     OW11956   3.829   1.013   1.726
 3879SOL    HW111957   3.752   0.980   1.780
 3879SOL    HW211958   3.914   0.983   1.768
 3880SOL     OW11959   4.396   0.203   1.489
 3880SOL    HW111960   4.486   0.187   1.449
 3880SOL    HW211961   4.404   0.208   1.588
 3881SOL     OW11962   3.799   0.345   0.033
 3881SOL    HW111963   3.707   0.317   0.004
 3881SOL    HW211964   3.830   0.422  -0.023
 3882SOL     OW11965   5.164   0.856   1.398
 3882SOL    HW111966   5.107   0.908   1.335
 3882SOL    HW211967   5.260   0.868   1.374
 3883SOL     OW11968   3.796   0.166   0.318
 3883SOL    HW111969   3.779   0.249   0.264
 3883SOL    HW211970   3.886   0.129   0.296
 3884SOL     OW11971   4.907   1.335   0.119
 3884SOL    HW111972   4.808   1.324   0.121
 3884SOL    HW211973   4.941   1.350   0.212
 3885SOL     OW11974   4.337   0.842   1.431
 3885SOL    HW111975   4.393   0.923   1.414
 3885SOL    HW211976   4.396   0.762   1.434
 3886SOL     OW11977   5.217   1.767   0.959
 3886SOL    HW111978   5.250   1.831   0.890
 3886SOL    HW211979   5.283   1.761   1.034
 3887SOL     OW11980   4.440   0.565   1.708
 3887SOL    HW111981   4.459   0.630   1.782
 3887SOL    HW211982   4.500   0.485   1.717
 3888SOL     OW11983   5.174   1.220   1.633
 3888SOL    HW111984   5.165   1.210   1.732
 3888SOL    HW211985   5.270   1.213   1.607
 3889SOL     OW11986   4.114   1.741   1.560
 3889SOL    HW111987   4.023   1.782   1.558
 3889SOL    HW211988   4.107   1.647   1.592
 3890SOL     OW11989   5.398   0.883   1.254
 3890SOL    HW111990   5.371   0.794   1.217
 3890SOL    HW211991   5.399   0.951   1.181
 3891SOL     OW11992   4.949   0.325   0.449
 3891SOL    HW111993   5.014   0.251   0.438
 3891SOL    HW211994   4.969   0.375   0.533
 3892SOL     OW11995   4.318   0.745   0.652
 3892SOL    HW111996   4.368   0.830   0.633
 3892SOL    HW211997   4.230   0.747   0.604
 3893SOL     OW11998   5.501   0.342   1.642
 3893SOL    HW111999   5.484   0.373   1.548
 3893SOL    HW212000   5.417   0.305   1.680
 3894SOL     OW12001   5.454   0.934   1.517
 3894SOL    HW112002   5.492   1.025   1.532
 3894SOL    HW212003   5.446   0.917   1.418
 3895SOL     OW12004   4.583   1.374   0.016
 3895SOL    HW112005   4.537   1.389   0.104
 3895SOL    HW212006   4.627   1.459  -0.014
 3896SOL     OW12007   4.385   1.790   0.953
 3896SOL    HW112008   4.339   1.878   0.940
 3896SOL    HW212009   4.484   1.802   0.946
 3897SOL     OW12010   4.583   0.956   0.861
 3897SOL    HW112011   4.637   0.887   0.909
 3897SOL    HW212012   4.551   1.025   0.927
 3898SOL     OW12013   4.807   0.984   0.087
 3898SOL    HW112014   4.784   1.037   0.005
 3898SOL    HW212015   4.888   0.928   0.068
 3899SOL     OW12016   5.585   1.569   0.851
 3899SOL    HW112017   5.514   1.557   0.781
 3899SOL    HW212018   5.586   1.490   0.911
 3900SOL     OW12019   3.945   1.314   1.844
 3900SOL    HW112020   3.880   1.241   1.823
 3900SOL    HW212021   3.949   1.328   1.942
 3901SOL     OW12022   3.803   1.240   0.653
 3901SOL    HW112023   3.802   1.193   0.741
 3901SOL    HW212024   3.885   1.212   0.602
 3902SOL     OW12025   4.396   1.391   1.624
 3902SOL    HW112026   4.318   1.341   1.662
 3902SOL    HW212027   4.393   1.486   1.655
 3903SOL     OW12028   5.548   0.192   1.227
 3903SOL    HW112029   5.544   0.102   1.271
 3903SOL    HW212030   5.551   0.181   1.128
 3904SOL     OW12031   4.152   0.424   0.520
 3904SOL    HW112032   4.182   0.352   0.458
 3904SOL    HW212033   4.113   0.384   0.603
 3905SOL     OW12034   5.429   1.487   1.104
 3905SOL    HW112035   5.336   1.462   1.077
 3905SOL    HW212036   5.455   1.437   1.186
 3906SOL     OW12037   4.041   0.547   1.280
 3906SOL    HW112038   4.079   0.488   1.352
 3906SOL    HW212039   4.081   0.521   1.192
 3907SOL     OW12040   4.536   1.586   0.687
 3907SOL    HW112041   4.568   1.596   0.593
 3907SOL    HW212042   4.457   1.524   0.689
 3908SOL     OW12043   5.148   0.214   1.112
 3908SOL    HW112044   5.200   0.149   1.167
 3908SOL    HW212045   5.099   0.277   1.173
 3909SOL     OW12046   4.725   0.034   1.154
 3909SOL    HW112047   4.662  -0.038   1.123
 3909SOL    HW212048   4.818  -0.002   1.154
 3910SOL     OW12049   4.494   1.330   0.301
 3910SOL    HW112050   4.448   1.243   0.318
 3910SOL    HW212051   4.585   1.327   0.342
 3911SOL     OW12052   4.342   1.567   1.284
 3911SOL    HW112053   4.337   1.649   1.341
 3911SOL    HW212054   4.431   1.564   1.239
 3912SOL     OW12055   5.076   0.052   0.168
 3912SOL    HW112056   5.111   0.011   0.084
 3912SOL    HW212057   4.986   0.014   0.188
 3913SOL     OW12058   5.024   0.453   0.691
 3913SOL    HW112059   4.965   0.533   0.695
 3913SOL    HW212060   5.039   0.418   0.784
 3914SOL     OW12061   5.317   0.221   0.882
 3914SOL    HW112062   5.233   0.220   0.936
 3914SOL    HW212063   5.319   0.304   0.826
 3915SOL     OW12064   3.763   1.077   0.300
 3915SOL    HW112065   3.862   1.066   0.291
 3915SOL    HW212066   3.723   0.991   0.332
 3916SOL     OW12067   4.599   1.646   0.337
 3916SOL    HW112068   4.522   1.611   0.283
 3916SOL    HW212069   4.567   1.717   0.399
 3917SOL     OW12070   3.954   0.628   1.975
 3917SOL    HW112071   3.861   0.626   2.012
 3917SOL    HW212072   3.955   0.589   1.883
 3918SOL     OW12073   3.949   0.275   2.858
 3918SOL    HW112074   3.984   0.258   2.950
 3918SOL    HW212075   3.861   0.230   2.846
 3919SOL     OW12076   3.743   0.368   2.509
 3919SOL    HW112077   3.661   0.411   2.548
 3919SOL    HW212078   3.715   0.295   2.446
 3920SOL     OW12079   4.293   1.275   3.027
 3920SOL    HW112080   4.200   1.268   2.990
 3920SOL    HW212081   4.304   1.364   3.071
 3921SOL     OW12082   5.279   1.511   2.565
 3921SOL    HW112083   5.222   1.495   2.646
 3921SOL    HW212084   5.220   1.521   2.485
 3922SOL     OW12085   4.859   0.703   2.579
 3922SOL    HW112086   4.916   0.781   2.554
 3922SOL    HW212087   4.799   0.729   2.655
 3923SOL     OW12088   5.479   0.607   2.093
 3923SOL    HW112089   5.467   0.594   1.994
 3923SOL    HW212090   5.449   0.526   2.142
 3924SOL     OW12091   4.492   1.144   2.885
 3924SOL    HW112092   4.414   1.161   2.945
 3924SOL    HW212093   4.526   1.231   2.849
 3925SOL     OW12094   4.574   0.798   3.685
 3925SOL    HW112095   4.570   0.874   3.750
 3925SOL    HW212096   4.596   0.834   3.594
 3926SOL     OW12097   4.409   1.012   2.527
 3926SOL    HW112098   4.478   0.996   2.597
 3926SOL    HW212099   4.336   1.069   2.565
 3927SOL     OW12100   4.410   1.161   3.665
 3927SOL    HW112101   4.470   1.240   3.679
 3927SOL    HW212102   4.324   1.192   3.624
 3928SOL     OW12103   4.059   1.435   2.923
 3928SOL    HW112104   3.981   1.404   2.870
 3928SOL    HW212105   4.117   1.493   2.866
 3929SOL     OW12106   5.184   1.505   3.201
 3929SOL    HW112107   5.208   1.599   3.227
 3929SOL    HW212108   5.168   1.451   3.283
 3930SOL     OW12109   4.162   0.392   3.361
 3930SOL    HW112110   4.244   0.336   3.370
 3930SOL    HW212111   4.081   0.334   3.365
 3931SOL     OW12112   5.327   0.447   2.599
 3931SOL    HW112113   5.253   0.493   2.549
 3931SOL    HW212114   5.378   0.515   2.652
 3932SOL     OW12115   3.955   1.713   2.345
 3932SOL    HW112116   3.989   1.790   2.399
 3932SOL    HW212117   3.999   1.713   2.255
 3933SOL     OW12118   4.851   1.341   3.552
 3933SOL    HW112119   4.898   1.341   3.640
 3933SOL    HW212120   4.803   1.254   3.541
 3934SOL     OW12121   3.954   1.434   2.400
 3934SOL    HW112122   3.928   1.530   2.400
 3934SOL    HW212123   3.883   1.380   2.445
 3935SOL     OW12124   3.964   1.091   2.748
 3935SOL    HW112125   3.978   1.007   2.800
 3935SOL    HW212126   3.909   1.155   2.803
 3936SOL     OW12127   4.344   1.786   3.301
 3936SOL    HW112128   4.252   1.769   3.336
 3936SOL    HW212129   4.372   1.878   3.327
 3937SOL     OW12130   4.330   0.964   1.985
 3937SOL    HW112131   4.337   1.048   1.931
 3937SOL    HW212132   4.376   0.977   2.073
 3938SOL     OW12133   5.318   0.114   3.342
 3938SOL    HW112134   5.300   0.181   3.270
 3938SOL    HW212135   5.315   0.160   3.431
 3939SOL     OW12136   3.846   0.643   2.425
 3939SOL    HW112137   3.801   0.555   2.442
 3939SOL    HW212138   3.845   0.697   2.509
 3940SOL     OW12139   5.566   1.767   2.221
 3940SOL    HW112140   5.620   1.738   2.301
 3940SOL    HW212141   5.596   1.857   2.192
 3941SOL     OW12142   3.751   1.596   1.979
 3941SOL    HW112143   3.732   1.500   2.000
 3941SOL    HW212144   3.718   1.654   2.054
 3942SOL     OW12145   5.413   0.922   2.474
 3942SOL    HW112146   5.508   0.893   2.482
 3942SOL    HW212147   5.405   0.987   2.399
 3943SOL     OW12148   5.365   1.108   2.294
 3943SOL    HW112149   5.451   1.110   2.242
 3943SOL    HW212150   5.379   1.155   2.382
 3944SOL     OW12151   3.837   0.737   3.459
 3944SOL    HW112152   3.925   0.724   3.504
 3944SOL    HW212153   3.824   0.834   3.437
 3945SOL     OW12154   4.337   1.365   2.588
 3945SOL    HW112155   4.288   1.278   2.597
 3945SOL    HW212156   4.314   1.408   2.501
 3946SOL     OW12157   5.017   1.228   3.285
 3946SOL    HW112158   5.054   1.155   3.227
 3946SOL    HW212159   5.069   1.233   3.370
 3947SOL     OW12160   4.533   0.004   2.364
 3947SOL    HW112161   4.573   0.095   2.355
 3947SOL    HW212162   4.433   0.012   2.370
 3948SOL     OW12163   3.921   0.976   3.126
 3948SOL    HW112164   4.010   0.931   3.112
 3948SOL    HW212165   3.848   0.911   3.107
 3949SOL     OW12166   5.249   0.999   2.052
 3949SOL    HW112167   5.186   0.923   2.065
 3949SOL    HW212168   5.297   1.017   2.138
 3950SOL     OW12169   4.911   1.792   3.478
 3950SOL    HW112170   4.935   1.852   3.402
 3950SOL    HW212171   4.918   1.697   3.448
 3951SOL     OW12172   4.041   0.251   3.663
 3951SOL    HW112173   4.112   0.322   3.669
 3951SOL    HW212174   3.953   0.290   3.691
 3952SOL     OW12175   5.190   1.417   2.815
 3952SOL    HW112176   5.131   1.423   2.895
 3952SOL    HW212177   5.175   1.329   2.769
 3953SOL     OW12178   5.391   1.714   2.434
 3953SOL    HW112179   5.350   1.691   2.346
 3953SOL    HW212180   5.373   1.640   2.499
 3954SOL     OW12181   4.322   0.729   2.132
 3954SOL    HW112182   4.346   0.798   2.064
 3954SOL    HW212183   4.244   0.762   2.186
 3955SOL     OW12184   5.005   0.345   2.806
 3955SOL    HW112185   4.919   0.295   2.793
 3955SOL    HW212186   5.067   0.291   2.862
 3956SOL     OW12187   5.300   1.662   2.169
 3956SOL    HW112188   5.389   1.708   2.172
 3956SOL    HW212189   5.279   1.638   2.074
 3957SOL     OW12190   4.531   0.605   3.327
 3957SOL    HW112191   4.484   0.602   3.416
 3957SOL    HW212192   4.480   0.550   3.261
 3958SOL     OW12193   5.118   0.469   3.536
 3958SOL    HW112194   5.098   0.512   3.624
 3958SOL    HW212195   5.196   0.407   3.545
 3959SOL     OW12196   4.697   0.890   3.434
 3959SOL    HW112197   4.743   0.806   3.405
 3959SOL    HW212198   4.641   0.924   3.359
 3960SOL     OW12199   4.715   0.410   3.104
 3960SOL    HW112200   4.638   0.444   3.158
 3960SOL    HW212201   4.681   0.359   3.025
 3961SOL     OW12202   4.765   0.701   2.291
 3961SOL    HW112203   4.791   0.697   2.387
 3961SOL    HW212204   4.680   0.650   2.277
 3962SOL     OW12205   3.800   0.811   2.651
 3962SOL    HW112206   3.899   0.799   2.660
 3962SOL    HW212207   3.776   0.906   2.672
 3963SOL     OW12208   3.854   1.821   3.433
 3963SOL    HW112209   3.844   1.806   3.532
 3963SOL    HW212210   3.768   1.857   3.397
 3964SOL     OW12211   4.589   0.348   2.057
 3964SOL    HW112212   4.648   0.411   2.008
 3964SOL    HW212213   4.608   0.254   2.028
 3965SOL     OW12214   5.443   0.585   3.693
 3965SOL    HW112215   5.417   0.674   3.657
 3965SOL    HW212216   5.441   0.517   3.620
 3966SOL     OW12217   5.086   1.144   2.407
 3966SOL    HW112218   5.169   1.115   2.359
 3966SOL    HW212219   5.037   1.211   2.351
 3967SOL     OW12220   4.274   0.196   2.747
 3967SOL    HW112221   4.269   0.191   2.847
 3967SOL    HW212222   4.276   0.292   2.718
 3968SOL     OW12223   4.732   1.456   2.339
 3968SOL    HW112224   4.686   1.528   2.287
 3968SOL    HW212225   4.728   1.476   2.437
 3969SOL     OW12226   4.075   1.801   2.715
 3969SOL    HW112227   4.125   1.715   2.721
 3969SOL    HW212228   4.140   1.878   2.712
 3970SOL     OW12229   5.519   1.066   2.735
 3970SOL    HW112230   5.457   1.051   2.659
 3970SOL    HW212231   5.467   1.077   2.820
 3971SOL     OW12232   4.045   0.943   2.104
 3971SOL    HW112233   4.127   0.982   2.062
 3971SOL    HW212234   4.018   0.861   2.055
 3972SOL     OW12235   5.182   0.735   2.590
 3972SOL    HW112236   5.177   0.670   2.665
 3972SOL    HW212237   5.262   0.794   2.603
 3973SOL     OW12238   4.185   1.266   3.589
 3973SOL    HW112239   4.135   1.267   3.503
 3973SOL    HW212240   4.122   1.248   3.665
 3974SOL     OW12241   4.835   1.776   2.099
 3974SOL    HW112242   4.775   1.714   2.149
 3974SOL    HW212243   4.866   1.732   2.014
 3975SOL     OW12244   3.926   0.285   3.360
 3975SOL    HW112245   3.846   0.345   3.347
 3975SOL    HW212246   3.916   0.236   3.446
 3976SOL     OW12247   5.356   1.377   1.943
 3976SOL    HW112248   5.324   1.471   1.933
 3976SOL    HW212249   5.280   1.314   1.931
 3977SOL     OW12250   4.188   1.743   2.185
 3977SOL    HW112251   4.221   1.782   2.271
 3977SOL    HW212252   4.264   1.736   2.120
 3978SOL     OW12253   5.124   0.107   2.288
 3978SOL    HW112254   5.100   0.070   2.198
 3978SOL    HW212255   5.223   0.123   2.292
 3979SOL     OW12256   3.973   1.785   3.103
 3979SOL    HW112257   4.030   1.720   3.153
 3979SOL    HW212258   3.957   1.752   3.010
 3980SOL     OW12259   4.664   1.698   2.766
 3980SOL    HW112260   4.744   1.641   2.787
 3980SOL    HW212261   4.615   1.658   2.689
 3981SOL     OW12262   4.106   0.700   2.342
 3981SOL    HW112263   4.151   0.610   2.339
 3981SOL    HW212264   4.012   0.689   2.375
 3982SOL     OW12265   5.271   0.222   3.591
 3982SOL    HW112266   5.266   0.259   3.683
 3982SOL    HW212267   5.199   0.153   3.579
 3983SOL     OW12268   4.338   0.122   1.979
 3983SOL    HW112269   4.436   0.100   1.986
 3983SOL    HW212270   4.307   0.105   1.886
 3984SOL     OW12271   4.505   0.264   3.611
 3984SOL    HW112272   4.572   0.203   3.654
 3984SOL    HW212273   4.432   0.283   3.676
 3985SOL     OW12274   4.612   1.514   3.057
 3985SOL    HW112275   4.589   1.489   2.963
 3985SOL    HW212276   4.673   1.445   3.096
 3986SOL     OW12277   5.075   0.590   3.295
 3986SOL    HW112278   5.103   0.547   3.380
 3986SOL    HW212279   5.100   0.686   3.296
 3987SOL     OW12280   4.527   1.402   2.786
 3987SOL    HW112281   4.617   1.416   2.744
 3987SOL    HW212282   4.456   1.404   2.715
 3988SOL     OW12283   4.646   0.503   2.761
 3988SOL    HW112284   4.621   0.494   2.665
 3988SOL    HW212285   4.694   0.421   2.792
 3989SOL     OW12286   4.263   0.064   2.374
 3989SOL    HW112287   4.182   0.065   2.432
 3989SOL    HW212288   4.266   0.147   2.319
 3990SOL     OW12289   5.158   1.188   1.903
 3990SOL    HW112290   5.190   1.112   1.960
 3990SOL    HW212291   5.066   1.215   1.933
 3991SOL     OW12292   4.021   0.035   2.033
 3991SOL    HW112293   4.070   0.119   2.012
 3991SOL    HW212294   4.083  -0.030   2.078
 3992SOL     OW12295   4.659   0.236   2.342
 3992SOL    HW112296   4.611   0.277   2.264
 3992SOL    HW212297   4.758   0.234   2.323
 3993SOL     OW12298   4.800   0.683   3.326
 3993SOL    HW112299   4.720   0.622   3.329
 3993SOL    HW212300   4.881   0.630   3.302
 3994SOL     OW12301   4.951   1.570   2.655
 3994SOL    HW112302   4.972   1.644   2.590
 3994SOL    HW212303   5.019   1.570   2.728
 3995SOL     OW12304   4.183   1.152   2.603
 3995SOL    HW112305   4.112   1.125   2.668
 3995SOL    HW212306   4.157   1.124   2.510
 3996SOL     OW12307   4.995   1.797   2.453
 3996SOL    HW112308   5.039   1.861   2.389
 3996SOL    HW212309   4.945   1.849   2.523
 3997SOL     OW12310   4.756   0.549   1.878
 3997SOL    HW112311   4.715   0.631   1.839
 3997SOL    HW212312   4.820   0.575   1.951
 3998SOL     OW12313   3.802   0.556   3.248
 3998SOL    HW112314   3.894   0.555   3.207
 3998SOL    HW212315   3.796   0.630   3.315
 3999SOL     OW12316   4.285   0.222   3.009
 3999SOL    HW112317   4.323   0.138   3.046
 3999SOL    HW212318   4.197   0.241   3.053
 4000SOL     OW12319   4.590   0.454   2.504
 4000SOL    HW112320   4.558   0.526   2.442
 4000SOL    HW212321   4.614   0.373   2.451
 4001SOL     OW12322   4.741   0.039   2.615
 4001SOL    HW112323   4.669   0.044   2.546
 4001SOL    HW212324   4.717  -0.030   2.684
 4002SOL     OW12325   5.153   1.173   2.729
 4002SOL    HW112326   5.098   1.089   2.722
 4002SOL    HW212327   5.179   1.202   2.637
 4003SOL     OW12328   5.190   0.590   2.854
 4003SOL    HW112329   5.160   0.495   2.861
 4003SOL    HW212330   5.263   0.606   2.920
 4004SOL     OW12331   5.581   0.833   2.239
 4004SOL    HW112332   5.623   0.769   2.303
 4004SOL    HW212333   5.543   0.782   2.161
 4005SOL     OW12334   4.212   1.385   2.036
 4005SOL    HW112335   4.125   1.370   2.083
 4005SOL    HW212336   4.195   1.411   1.941
 4006SOL     OW12337   5.388   1.280   2.519
 4006SOL    HW112338   5.487   1.288   2.533
 4006SOL    HW212339   5.343   1.364   2.550
 4007SOL     OW12340   5.114   0.575   1.940
 4007SOL    HW112341   5.060   0.554   2.021
 4007SOL    HW212342   5.205   0.534   1.949
 4008SOL     OW12343   4.251   0.256   2.190
 4008SOL    HW112344   4.278   0.197   2.115
 4008SOL    HW212345   4.251   0.351   2.159
 4009SOL     OW12346   5.478   1.223   3.450
 4009SOL    HW112347   5.569   1.184   3.437
 4009SOL    HW212348   5.486   1.319   3.474
 4010SOL     OW12349   4.788   1.347   3.202
 4010SOL    HW112350   4.708   1.324   3.257
 4010SOL    HW212351   4.871   1.321   3.251
 4011SOL     OW12352   5.316   1.629   3.487
 4011SOL    HW112353   5.343   1.663   3.397
 4011SOL    HW212354   5.395   1.591   3.533
 4012SOL     OW12355   4.835   1.195   2.962
 4012SOL    HW112356   4.795   1.239   3.043
 4012SOL    HW212357   4.794   1.232   2.879
 4013SOL     OW12358   5.362   1.099   2.941
 4013SOL    HW112359   5.367   1.180   3.000
 4013SOL    HW212360   5.276   1.101   2.890
 4014SOL     OW12361   4.639   0.089   3.264
 4014SOL    HW112362   4.664   0.069   3.169
 4014SOL    HW212363   4.711   0.145   3.306
 4015SOL     OW12364   4.704   1.116   3.581
 4015SOL    HW112365   4.605   1.122   3.591
 4015SOL    HW212366   4.727   1.036   3.525
 4016SOL     OW12367   4.429   1.050   2.230
 4016SOL    HW112368   4.415   1.057   2.329
 4016SOL    HW212369   4.513   0.999   2.212
 4017SOL     OW12370   4.134   0.813   3.113
 4017SOL    HW112371   4.220   0.825   3.163
 4017SOL    HW212372   4.092   0.726   3.140
 4018SOL     OW12373   4.998   0.386   3.124
 4018SOL    HW112374   5.019   0.460   3.188
 4018SOL    HW212375   4.909   0.403   3.081
 4019SOL     OW12376   3.788   1.564   3.193
 4019SOL    HW112377   3.742   1.646   3.159
 4019SOL    HW212378   3.886   1.583   3.202
 4020SOL     OW12379   4.091   1.100   2.363
 4020SOL    HW112380   4.084   1.183   2.307
 4020SOL    HW212381   4.095   1.020   2.303
 4021SOL     OW12382   4.290   0.537   2.727
 4021SOL    HW112383   4.302   0.603   2.653
 4021SOL    HW212384   4.336   0.571   2.810
 4022SOL     OW12385   4.976   1.348   2.250
 4022SOL    HW112386   5.026   1.425   2.290
 4022SOL    HW212387   4.881   1.350   2.282
 4023SOL     OW12388   4.996   1.445   3.004
 4023SOL    HW112389   5.043   1.458   3.091
 4023SOL    HW212390   4.930   1.371   3.013
 4024SOL     OW12391   5.306   0.639   2.334
 4024SOL    HW112392   5.275   0.700   2.407
 4024SOL    HW212393   5.356   0.691   2.265
 4025SOL     OW12394   4.078   1.510   3.191
 4025SOL    HW112395   4.057   1.466   3.104
 4025SOL    HW212396   4.175   1.536   3.194
 4026SOL     OW12397   4.126   0.751   3.460
 4026SOL    HW112398   4.194   0.806   3.413
 4026SOL    HW212399   4.166   0.663   3.487
 4027SOL     OW12400   5.311   0.779   3.532
 4027SOL    HW112401   5.219   0.817   3.527
 4027SOL    HW212402   5.371   0.826   3.467
 4028SOL     OW12403   4.737   0.105   3.632
 4028SOL    HW112404   4.743   0.190   3.580
 4028SOL    HW212405   4.769   0.029   3.575
 4029SOL     OW12406   4.228   0.050   3.602
 4029SOL    HW112407   4.186  -0.007   3.532
 4029SOL    HW212408   4.162   0.119   3.634
 4030SOL     OW12409   4.297   0.870   2.891
 4030SOL    HW112410   4.341   0.959   2.882
 4030SOL    HW212411   4.234   0.870   2.968
 4031SOL     OW12412   5.084   0.862   2.907
 4031SOL    HW112413   5.009   0.862   2.841
 4031SOL    HW212414   5.121   0.770   2.916
 4032SOL     OW12415   4.933   0.525   2.137
 4032SOL    HW112416   4.946   0.441   2.191
 4032SOL    HW212417   4.904   0.599   2.197
 4033SOL     OW12418   4.031   0.213   3.093
 4033SOL    HW112419   4.008   0.250   3.183
 4033SOL    HW212420   4.001   0.118   3.087
 4034SOL     OW12421   3.761   1.310   3.144
 4034SOL    HW112422   3.814   1.261   3.212
 4034SOL    HW212423   3.783   1.408   3.149
 4035SOL     OW12424   4.456   0.634   2.926
 4035SOL    HW112425   4.515   0.608   2.850
 4035SOL    HW212426   4.428   0.730   2.915
 4036SOL     OW12427   5.452   0.935   3.716
 4036SOL    HW112428   5.406   0.928   3.627
 4036SOL    HW212429   5.390   0.979   3.782
 4037SOL     OW12430   4.031   0.063   2.480
 4037SOL    HW112431   4.020   0.157   2.513
 4037SOL    HW212432   4.026   0.000   2.557
 4038SOL     OW12433   5.346   0.367   2.236
 4038SOL    HW112434   5.348   0.291   2.300
 4038SOL    HW212435   5.298   0.444   2.276
 4039SOL     OW12436   4.747   0.766   2.828
 4039SOL    HW112437   4.762   0.787   2.924
 4039SOL    HW212438   4.717   0.671   2.819
 4040SOL     OW12439   4.704   1.573   3.562
 4040SOL    HW112440   4.684   1.617   3.474
 4040SOL    HW212441   4.743   1.482   3.546
 4041SOL     OW12442   5.583   1.518   3.467
 4041SOL    HW112443   5.597   1.545   3.372
 4041SOL    HW212444   5.666   1.540   3.520
 4042SOL     OW12445   4.074   0.898   3.666
 4042SOL    HW112446   4.150   0.942   3.714
 4042SOL    HW212447   4.109   0.851   3.584
 4043SOL     OW12448   5.264   0.274   1.987
 4043SOL    HW112449   5.203   0.199   2.010
 4043SOL    HW212450   5.286   0.326   2.070
 4044SOL     OW12451   5.027   0.838   1.904
 4044SOL    HW112452   5.061   0.745   1.919
 4044SOL    HW212453   5.045   0.865   1.809
 4045SOL     OW12454   4.792   1.333   2.711
 4045SOL    HW112455   4.799   1.249   2.656
 4045SOL    HW212456   4.854   1.402   2.675
 4046SOL     OW12457   4.043   0.810   2.811
 4046SOL    HW112458   4.136   0.846   2.816
 4046SOL    HW212459   4.037   0.725   2.863
 4047SOL     OW12460   4.063   0.509   2.868
 4047SOL    HW112461   4.011   0.426   2.851
 4047SOL    HW212462   4.140   0.514   2.804
 4048SOL     OW12463   4.862   0.380   3.540
 4048SOL    HW112464   4.817   0.443   3.604
 4048SOL    HW212465   4.955   0.411   3.523
 4049SOL     OW12466   4.884   0.207   3.339
 4049SOL    HW112467   4.884   0.271   3.416
 4049SOL    HW212468   4.912   0.255   3.256
 4050SOL     OW12469   3.732   1.326   2.062
 4050SOL    HW112470   3.639   1.347   2.031
 4050SOL    HW212471   3.742   1.227   2.075
 4051SOL     OW12472   3.812   1.801   2.789
 4051SOL    HW112473   3.770   1.715   2.762
 4051SOL    HW212474   3.906   1.804   2.755
 4052SOL     OW12475   4.228   1.568   2.772
 4052SOL    HW112476   4.294   1.642   2.781
 4052SOL    HW212477   4.272   1.489   2.730
 4053SOL     OW12478   4.726   0.796   3.100
 4053SOL    HW112479   4.767   0.764   3.186
 4053SOL    HW212480   4.630   0.769   3.097
 4054SOL     OW12481   3.764   0.544   2.976
 4054SOL    HW112482   3.849   0.511   2.935
 4054SOL    HW212483   3.777   0.559   3.074
 4055SOL     OW12484   3.913   0.520   3.584
 4055SOL    HW112485   3.972   0.480   3.514
 4055SOL    HW212486   3.855   0.591   3.543
 4056SOL     OW12487   5.093   0.950   3.522
 4056SOL    HW112488   5.132   1.039   3.542
 4056SOL    HW212489   5.103   0.930   3.425
 4057SOL     OW12490   4.539   0.572   2.187
 4057SOL    HW112491   4.546   0.483   2.141
 4057SOL    HW212492   4.445   0.606   2.179
 4058SOL     OW12493   5.381   0.604   3.068
 4058SOL    HW112494   5.343   0.535   3.130
 4058SOL    HW212495   5.463   0.568   3.024
 4059SOL     OW12496   3.976   1.564   3.606
 4059SOL    HW112497   3.946   1.621   3.682
 4059SOL    HW212498   3.969   1.467   3.632
 4060SOL     OW12499   4.395   0.464   3.131
 4060SOL    HW112500   4.361   0.375   3.101
 4060SOL    HW212501   4.421   0.518   3.051
 4061SOL     OW12502   4.654   1.678   3.327
 4061SOL    HW112503   4.630   1.660   3.232
 4061SOL    HW212504   4.684   1.772   3.337
 4062SOL     OW12505   4.197   0.500   2.053
 4062SOL    HW112506   4.258   0.580   2.057
 4062SOL    HW212507   4.102   0.531   2.060
 4063SOL     OW12508   3.883   1.137   3.328
 4063SOL    HW112509   3.905   1.076   3.404
 4063SOL    HW212510   3.893   1.088   3.242
 4064SOL     OW12511   5.071   1.059   3.096
 4064SOL    HW112512   5.095   0.996   3.022
 4064SOL    HW212513   4.981   1.099   3.078
 4065SOL     OW12514   5.026   0.855   2.171
 4065SOL    HW112515   4.940   0.824   2.213
 4065SOL    HW212516   5.022   0.841   2.072
 4066SOL     OW12517   5.483   1.747   3.016
 4066SOL    HW112518   5.544   1.777   2.943
 4066SOL    HW212519   5.445   1.658   2.994
 4067SOL     OW12520   4.976   1.731   2.990
 4067SOL    HW112521   5.060   1.736   2.936
 4067SOL    HW212522   4.953   1.635   3.008
 4068SOL     OW12523   3.807   1.258   2.884
 4068SOL    HW112524   3.802   1.257   2.984
 4068SOL    HW212525   3.724   1.217   2.846
 4069SOL     OW12526   4.412   1.662   3.578
 4069SOL    HW112527   4.356   1.743   3.587
 4069SOL    HW212528   4.464   1.666   3.492
 4070SOL     OW12529   5.450   0.135   2.385
 4070SOL    HW112530   5.523   0.118   2.318
 4070SOL    HW212531   5.419   0.048   2.423
 4071SOL     OW12532   5.112   1.573   2.339
 4071SOL    HW112533   5.179   1.585   2.265
 4071SOL    HW212534   5.072   1.662   2.362
 4072SOL     OW12535   3.854   1.794   3.713
 4072SOL    HW112536   3.813   1.720   3.766
 4072SOL    HW212537   3.918   1.845   3.771
 4073SOL     OW12538   5.004   0.927   2.534
 4073SOL    HW112539   5.064   0.846   2.536
 4073SOL    HW212540   5.044   0.996   2.474
 4074SOL     OW12541   4.554   1.273   3.284
 4074SOL    HW112542   4.549   1.306   3.379
 4074SOL    HW212543   4.468   1.292   3.238
 4075SOL     OW12544   4.396   1.616   2.016
 4075SOL    HW112545   4.405   1.626   1.917
 4075SOL    HW212546   4.356   1.527   2.037
 4076SOL     OW12547   5.374   1.720   3.256
 4076SOL    HW112548   5.427   1.730   3.172
 4076SOL    HW212549   5.347   1.810   3.290
 4077SOL     OW12550   5.565   0.175   2.825
 4077SOL    HW112551   5.604   0.090   2.789
 4077SOL    HW212552   5.467   0.177   2.806
 4078SOL     OW12553   3.987   0.326   2.582
 4078SOL    HW112554   3.908   0.377   2.548
 4078SOL    HW212555   3.978   0.311   2.680
 4079SOL     OW12556   4.918   1.612   1.893
 4079SOL    HW112557   4.924   1.519   1.930
 4079SOL    HW212558   4.859   1.612   1.813
 4080SOL     OW12559   4.546   1.002   3.234
 4080SOL    HW112560   4.586   1.001   3.142
 4080SOL    HW212561   4.556   1.094   3.274
 4081SOL     OW12562   4.640   0.910   2.153
 4081SOL    HW112563   4.703   0.948   2.085
 4081SOL    HW212564   4.680   0.827   2.192
 4082SOL     OW12565   5.228   1.607   1.906
 4082SOL    HW112566   5.136   1.644   1.913
 4082SOL    HW212567   5.266   1.627   1.816
 4083SOL     OW12568   4.096   1.288   3.352
 4083SOL    HW112569   4.083   1.381   3.318
 4083SOL    HW212570   4.012   1.236   3.339
 4084SOL     OW12571   5.338   1.292   3.151
 4084SOL    HW112572   5.398   1.295   3.231
 4084SOL    HW212573   5.263   1.356   3.164
 4085SOL     OW12574   4.763   1.098   2.558
 4085SOL    HW112575   4.693   1.051   2.612
 4085SOL    HW212576   4.822   1.030   2.515
 4086SOL     OW12577   4.738   0.236   2.833
 4086SOL    HW112578   4.730   0.200   2.740
 4086SOL    HW212579   4.736   0.160   2.898
 4087SOL     OW12580   4.314   1.487   2.353
 4087SOL    HW112581   4.356   1.429   2.283
 4087SOL    HW212582   4.270   1.566   2.309
 4088SOL     OW12583   5.433   0.385   3.243
 4088SOL    HW112584   5.506   0.454   3.247
 4088SOL    HW212585   5.461   0.310   3.184
 4089SOL     OW12586   3.979   1.348   2.152
 4089SOL    HW112587   3.883   1.349   2.125
 4089SOL    HW212588   3.991   1.401   2.236
 4090SOL     OW12589   3.829   1.013   3.588
 4090SOL    HW112590   3.752   0.980   3.642
 4090SOL    HW212591   3.914   0.983   3.630
 4091SOL     OW12592   4.396   0.203   3.351
 4091SOL    HW112593   4.486   0.187   3.311
 4091SOL    HW212594   4.404   0.208   3.450
 4092SOL     OW12595   3.799   0.345   1.895
 4092SOL    HW112596   3.707   0.317   1.866
 4092SOL    HW212597   3.830   0.422   1.839
 4093SOL     OW12598   5.164   0.856   3.260
 4093SOL    HW112599   5.107   0.908   3.197
 4093SOL    HW212600   5.260   0.868   3.236
 4094SOL     OW12601   3.796   0.166   2.180
 4094SOL    HW112602   3.779   0.249   2.126
 4094SOL    HW212603   3.886   0.129   2.158
 4095SOL     OW12604   4.907   1.335   1.981
 4095SOL    HW112605   4.808   1.324   1.983
 4095SOL    HW212606   4.941   1.350   2.074
 4096SOL     OW12607   4.337   0.842   3.293
 4096SOL    HW112608   4.393   0.923   3.276
 4096SOL    HW212609   4.396   0.762   3.296
 4097SOL     OW12610   5.217   1.767   2.821
 4097SOL    HW112611   5.250   1.831   2.752
 4097SOL    HW212612   5.283   1.761   2.896
 4098SOL     OW12613   4.440   0.565   3.570
 4098SOL    HW112614   4.459   0.630   3.644
 4098SOL    HW212615   4.500   0.485   3.579
 4099SOL     OW12616   5.174   1.220   3.495
 4099SOL    HW112617   5.165   1.210   3.594
 4099SOL    HW212618   5.270   1.213   3.469
 4100SOL     OW12619   4.114   1.741   3.422
 4100SOL    HW112620   4.023   1.782   3.420
 4100SOL    HW212621   4.107   1.647   3.454
 4101SOL     OW12622   5.398   0.883   3.116
 4101SOL    HW112623   5.371   0.794   3.079
 4101SOL    HW212624   5.399   0.951   3.043
 4102SOL     OW12625   4.949   0.325   2.311
 4102SOL    HW112626   5.014   0.251   2.300
 4102SOL    HW212627   4.969   0.375   2.395
 4103SOL     OW12628   4.318   0.745   2.514
 4103SOL    HW112629   4.368   0.830   2.495
 4103SOL    HW212630   4.230   0.747   2.466
 4104SOL     OW12631   5.501   0.342   3.504
 4104SOL    HW112632   5.484   0.373   3.410
 4104SOL    HW212633   5.417   0.305   3.542
 4105SOL     OW12634   5.454   0.934   3.379
 4105SOL    HW112635   5.492   1.025   3.394
 4105SOL    HW212636   5.446   0.917   3.280
 4106SOL     OW12637   4.583   1.374   1.878
 4106SOL    HW112638   4.537   1.389   1.966
 4106SOL    HW212639   4.627   1.459   1.848
 4107SOL     OW12640   4.385   1.790   2.815
 4107SOL    HW112641   4.339   1.878   2.802
 4107SOL    HW212642   4.484   1.802   2.808
 4108SOL     OW12643   4.583   0.956   2.723
 4108SOL    HW112644   4.637   0.887   2.771
 4108SOL    HW212645   4.551   1.025   2.789
 4109SOL     OW12646   4.807   0.984   1.949
 4109SOL    HW112647   4.784   1.037   1.867
 4109SOL    HW212648   4.888   0.928   1.930
 4110SOL     OW12649   5.585   1.569   2.713
 4110SOL    HW112650   5.514   1.557   2.643
 4110SOL    HW212651   5.586   1.490   2.773
 4111SOL     OW12652   3.945   1.314   3.706
 4111SOL    HW112653   3.880   1.241   3.685
 4111SOL    HW212654   3.949   1.328   3.804
 4112SOL     OW12655   3.803   1.240   2.515
 4112SOL    HW112656   3.802   1.193   2.603
 4112SOL    HW212657   3.885   1.212   2.464
 4113SOL     OW12658   4.396   1.391   3.486
 4113SOL    HW112659   4.318   1.341   3.524
 4113SOL    HW212660   4.393   1.486   3.517
 4114SOL     OW12661   5.548   0.192   3.089
 4114SOL    HW112662   5.544   0.102   3.133
 4114SOL    HW212663   5.551   0.181   2.990
 4115SOL     OW12664   4.152   0.424   2.382
 4115SOL    HW112665   4.182   0.352   2.320
 4115SOL    HW212666   4.113   0.384   2.465
 4116SOL     OW12667   5.429   1.487   2.966
 4116SOL    HW112668   5.336   1.462   2.939
 4116SOL    HW212669   5.455   1.437   3.048
 4117SOL     OW12670   4.041   0.547   3.142
 4117SOL    HW112671   4.079   0.488   3.214
 4117SOL    HW212672   4.081   0.521   3.054
 4118SOL     OW12673   4.536   1.586   2.549
 4118SOL    HW112674   4.568   1.596   2.455
 4118SOL    HW212675   4.457   1.524   2.551
 4119SOL     OW12676   5.148   0.214   2.974
 4119SOL    HW112677   5.200   0.149   3.029
 4119SOL    HW212678   5.099   0.277   3.035
 4120SOL     OW12679   4.725   0.034   3.016
 4120SOL    HW112680   4.662  -0.038   2.985
 4120SOL    HW212681   4.818  -0.002   3.016
 4121SOL     OW12682   4.494   1.330   2.163
 4121SOL    HW112683   4.448   1.243   2.180
 4121SOL    HW212684   4.585   1.327   2.204
 4122SOL     OW12685   4.342   1.567   3.146
 4122SOL    HW112686   4.337   1.649   3.203
 4122SOL    HW212687   4.431   1.564   3.101
 4123SOL     OW12688   5.076   0.052   2.030
 4123SOL    HW112689   5.111   0.011   1.946
 4123SOL    HW212690   4.986   0.014   2.050
 4124SOL     OW12691   5.024   0.453   2.553
 4124SOL    HW112692   4.965   0.533   2.557
 4124SOL    HW212693   5.039   0.418   2.646
 4125SOL     OW12694   5.317   0.221   2.744
 4125SOL    HW112695   5.233   0.220   2.798
 4125SOL    HW212696   5.319   0.304   2.688
 4126SOL     OW12697   3.763   1.077   2.162
 4126SOL    HW112698   3.862   1.066   2.153
 4126SOL    HW212699   3.723   0.991   2.194
 4127SOL     OW12700   4.599   1.646   2.199
 4127SOL    HW112701   4.522   1.611   2.145
 4127SOL    HW212702   4.567   1.717   2.261
 4128SOL     OW12703   3.954   0.628   3.837
 4128SOL    HW112704   3.861   0.626   3.874
 4128SOL    HW212705   3.955   0.589   3.745
 4129SOL     OW12706   3.949   0.275   4.720
 4129SOL    HW112707   3.984   0.258   4.812
 4129SOL    HW212708   3.861   0.230   4.708
 4130SOL     OW12709   3.743   0.368   4.371
 4130SOL    HW112710   3.661   0.411   4.410
 4130SOL    HW212711   3.715   0.295   4.308
 4131SOL     OW12712   4.293   1.275   4.889
 4131SOL    HW112713   4.200   1.268   4.852
 4131SOL    HW212714   4.304   1.364   4.933
 4132SOL     OW12715   5.279   1.511   4.427
 4132SOL    HW112716   5.222   1.495   4.508
 4132SOL    HW212717   5.220   1.521   4.347
 4133SOL     OW12718   4.859   0.703   4.441
 4133SOL    HW112719   4.916   0.781   4.416
 4133SOL    HW212720   4.799   0.729   4.517
 4134SOL     OW12721   5.479   0.607   3.955
 4134SOL    HW112722   5.467   0.594   3.856
 4134SOL    HW212723   5.449   0.526   4.004
 4135SOL     OW12724   4.492   1.144   4.747
 4135SOL    HW112725   4.414   1.161   4.807
 4135SOL    HW212726   4.526   1.231   4.711
 4136SOL     OW12727   4.574   0.798   5.547
 4136SOL    HW112728   4.570   0.874   5.612
 4136SOL    HW212729   4.596   0.834   5.456
 4137SOL     OW12730   4.409   1.012   4.389
 4137SOL    HW112731   4.478   0.996   4.459
 4137SOL    HW212732   4.336   1.069   4.427
 4138SOL     OW12733   4.410   1.161   5.527
 4138SOL    HW112734   4.470   1.240   5.541
 4138SOL    HW212735   4.324   1.192   5.486
 4139SOL     OW12736   4.059   1.435   4.785
 4139SOL    HW112737   3.981   1.404   4.732
 4139SOL    HW212738   4.117   1.493   4.728
 4140SOL     OW12739   5.184   1.505   5.063
 4140SOL    HW112740   5.208   1.599   5.089
 4140SOL    HW212741   5.168   1.451   5.145
 4141SOL     OW12742   4.162   0.392   5.223
 4141SOL    HW112743   4.244   0.336   5.232
 4141SOL    HW212744   4.081   0.334   5.227
 4142SOL     OW12745   5.327   0.447   4.461
 4142SOL    HW112746   5.253   0.493   4.411
 4142SOL    HW212747   5.378   0.515   4.514
 4143SOL     OW12748   3.955   1.713   4.207
 4143SOL    HW112749   3.989   1.790   4.261
 4143SOL    HW212750   3.999   1.713   4.117
 4144SOL     OW12751   4.851   1.341   5.414
 4144SOL    HW112752   4.898   1.341   5.502
 4144SOL    HW212753   4.803   1.254   5.403
 4145SOL     OW12754   3.954   1.434   4.262
 4145SOL    HW112755   3.928   1.530   4.262
 4145SOL    HW212756   3.883   1.380   4.307
 4146SOL     OW12757   3.964   1.091   4.610
 4146SOL    HW112758   3.978   1.007   4.662
 4146SOL    HW212759   3.909   1.155   4.665
 4147SOL     OW12760   4.344   1.786   5.163
 4147SOL    HW112761   4.252   1.769   5.198
 4147SOL    HW212762   4.372   1.878   5.189
 4148SOL     OW12763   4.330   0.964   3.847
 4148SOL    HW112764   4.337   1.048   3.793
 4148SOL    HW212765   4.376   0.977   3.935
 4149SOL     OW12766   5.318   0.114   5.204
 4149SOL    HW112767   5.300   0.181   5.132
 4149SOL    HW212768   5.315   0.160   5.293
 4150SOL     OW12769   3.846   0.643   4.287
 4150SOL    HW112770   3.801   0.555   4.304
 4150SOL    HW212771   3.845   0.697   4.371
 4151SOL     OW12772   5.566   1.767   4.083
 4151SOL    HW112773   5.620   1.738   4.163
 4151SOL    HW212774   5.596   1.857   4.054
 4152SOL     OW12775   3.751   1.596   3.841
 4152SOL    HW112776   3.732   1.500   3.862
 4152SOL    HW212777   3.718   1.654   3.916
 4153SOL     OW12778   5.413   0.922   4.336
 4153SOL    HW112779   5.508   0.893   4.344
 4153SOL    HW212780   5.405   0.987   4.261
 4154SOL     OW12781   5.365   1.108   4.156
 4154SOL    HW112782   5.451   1.110   4.104
 4154SOL    HW212783   5.379   1.155   4.244
 4155SOL     OW12784   3.837   0.737   5.321
 4155SOL    HW112785   3.925   0.724   5.366
 4155SOL    HW212786   3.824   0.834   5.299
 4156SOL     OW12787   4.337   1.365   4.450
 4156SOL    HW112788   4.288   1.278   4.459
 4156SOL    HW212789   4.314   1.408   4.363
 4157SOL     OW12790   5.017   1.228   5.147
 4157SOL    HW112791   5.054   1.155   5.089
 4157SOL    HW212792   5.069   1.233   5.232
 4158SOL     OW12793   4.533   0.004   4.226
 4158SOL    HW112794   4.573   0.095   4.217
 4158SOL    HW212795   4.433   0.012   4.232
 4159SOL     OW12796   3.921   0.976   4.988
 4159SOL    HW112797   4.010   0.931   4.974
 4159SOL    HW212798   3.848   0.911   4.969
 4160SOL     OW12799   5.249   0.999   3.914
 4160SOL    HW112800   5.186   0.923   3.927
 4160SOL    HW212801   5.297   1.017   4.000
 4161SOL     OW12802   4.911   1.792   5.340
 4161SOL    HW112803   4.935   1.852   5.264
 4161SOL    HW212804   4.918   1.697   5.310
 4162SOL     OW12805   4.041   0.251   5.525
 4162SOL    HW112806   4.112   0.322   5.531
 4162SOL    HW212807   3.953   0.290   5.553
 4163SOL     OW12808   5.190   1.417   4.677
 4163SOL    HW112809   5.131   1.423   4.757
 4163SOL    HW212810   5.175   1.329   4.631
 4164SOL     OW12811   5.391   1.714   4.296
 4164SOL    HW112812   5.350   1.691   4.208
 4164SOL    HW212813   5.373   1.640   4.361
 4165SOL     OW12814   4.322   0.729   3.994
 4165SOL    HW112815   4.346   0.798   3.926
 4165SOL    HW212816   4.244   0.762   4.048
 4166SOL     OW12817   5.005   0.345   4.668
 4166SOL    HW112818   4.919   0.295   4.655
 4166SOL    HW212819   5.067   0.291   4.724
 4167SOL     OW12820   5.300   1.662   4.031
 4167SOL    HW112821   5.389   1.708   4.034
 4167SOL    HW212822   5.279   1.638   3.936
 4168SOL     OW12823   4.531   0.605   5.189
 4168SOL    HW112824   4.484   0.602   5.278
 4168SOL    HW212825   4.480   0.550   5.123
 4169SOL     OW12826   5.118   0.469   5.398
 4169SOL    HW112827   5.098   0.512   5.486
 4169SOL    HW212828   5.196   0.407   5.407
 4170SOL     OW12829   4.697   0.890   5.296
 4170SOL    HW112830   4.743   0.806   5.267
 4170SOL    HW212831   4.641   0.924   5.221
 4171SOL     OW12832   4.715   0.410   4.966
 4171SOL    HW112833   4.638   0.444   5.020
 4171SOL    HW212834   4.681   0.359   4.887
 4172SOL     OW12835   4.765   0.701   4.153
 4172SOL    HW112836   4.791   0.697   4.249
 4172SOL    HW212837   4.680   0.650   4.139
 4173SOL     OW12838   3.800   0.811   4.513
 4173SOL    HW112839   3.899   0.799   4.522
 4173SOL    HW212840   3.776   0.906   4.534
 4174SOL     OW12841   3.854   1.821   5.295
 4174SOL    HW112842   3.844   1.806   5.394
 4174SOL    HW212843   3.768   1.857   5.259
 4175SOL     OW12844   4.589   0.348   3.919
 4175SOL    HW112845   4.648   0.411   3.870
 4175SOL    HW212846   4.608   0.254   3.890
 4176SOL     OW12847   5.443   0.585   5.555
 4176SOL    HW112848   5.417   0.674   5.519
 4176SOL    HW212849   5.441   0.517   5.482
 4177SOL     OW12850   5.086   1.144   4.269
 4177SOL    HW112851   5.169   1.115   4.221
 4177SOL    HW212852   5.037   1.211   4.213
 4178SOL     OW12853   4.274   0.196   4.609
 4178SOL    HW112854   4.269   0.191   4.709
 4178SOL    HW212855   4.276   0.292   4.580
 4179SOL     OW12856   4.732   1.456   4.201
 4179SOL    HW112857   4.686   1.528   4.149
 4179SOL    HW212858   4.728   1.476   4.299
 4180SOL     OW12859   4.075   1.801   4.577
 4180SOL    HW112860   4.125   1.715   4.583
 4180SOL    HW212861   4.140   1.878   4.574
 4181SOL     OW12862   5.519   1.066   4.597
 4181SOL    HW112863   5.457   1.051   4.521
 4181SOL    HW212864   5.467   1.077   4.682
 4182SOL     OW12865   4.951   1.550   5.230
 4182SOL    HW112866   4.957   1.473   5.294
 4182SOL    HW212867   4.899   1.524   5.150
 4183SOL     OW12868   4.045   0.943   3.966
 4183SOL    HW112869   4.127   0.982   3.924
 4183SOL    HW212870   4.018   0.861   3.917
 4184SOL     OW12871   5.182   0.735   4.452
 4184SOL    HW112872   5.177   0.670   4.527
 4184SOL    HW212873   5.262   0.794   4.465
 4185SOL     OW12874   4.185   1.266   5.451
 4185SOL    HW112875   4.135   1.267   5.365
 4185SOL    HW212876   4.122   1.248   5.527
 4186SOL     OW12877   4.835   1.776   3.961
 4186SOL    HW112878   4.775   1.714   4.011
 4186SOL    HW212879   4.866   1.732   3.876
 4187SOL     OW12880   3.926   0.285   5.222
 4187SOL    HW112881   3.846   0.345   5.209
 4187SOL    HW212882   3.916   0.236   5.308
 4188SOL     OW12883   5.356   1.377   3.805
 4188SOL    HW112884   5.324   1.471   3.795
 4188SOL    HW212885   5.280   1.314   3.793
 4189SOL     OW12886   4.188   1.743   4.047
 4189SOL    HW112887   4.221   1.782   4.133
 4189SOL    HW212888   4.264   1.736   3.982
 4190SOL     OW12889   5.124   0.107   4.150
 4190SOL    HW112890   5.100   0.070   4.060
 4190SOL    HW212891   5.223   0.123   4.154
 4191SOL     OW12892   3.973   1.785   4.965
 4191SOL    HW112893   4.030   1.720   5.015
 4191SOL    HW212894   3.957   1.752   4.872
 4192SOL     OW12895   4.664   1.698   4.628
 4192SOL    HW112896   4.744   1.641   4.649
 4192SOL    HW212897   4.615   1.658   4.551
 4193SOL     OW12898   4.106   0.700   4.204
 4193SOL    HW112899   4.151   0.610   4.201
 4193SOL    HW212900   4.012   0.689   4.237
 4194SOL     OW12901   5.271   0.222   5.453
 4194SOL    HW112902   5.266   0.259   5.545
 4194SOL    HW212903   5.199   0.153   5.441
 4195SOL     OW12904   4.338   0.122   3.841
 4195SOL    HW112905   4.436   0.100   3.848
 4195SOL    HW212906   4.307   0.105   3.748
 4196SOL     OW12907   4.505   0.264   5.473
 4196SOL    HW112908   4.572   0.203   5.516
 4196SOL    HW212909   4.432   0.283   5.538
 4197SOL     OW12910   4.612   1.514   4.919
 4197SOL    HW112911   4.589   1.489   4.825
 4197SOL    HW212912   4.673   1.445   4.958
 4198SOL     OW12913   5.075   0.590   5.157
 4198SOL    HW112914   5.103   0.547   5.242
 4198SOL    HW212915   5.100   0.686   5.158
 4199SOL     OW12916   4.527   1.402   4.648
 4199SOL    HW112917   4.617   1.416   4.606
 4199SOL    HW212918   4.456   1.404   4.577
 4200SOL     OW12919   4.646   0.503   4.623
 4200SOL    HW112920   4.621   0.494   4.527
 4200SOL    HW212921   4.694   0.421   4.654
 4201SOL     OW12922   4.263   0.064   4.236
 4201SOL    HW112923   4.182   0.065   4.294
 4201SOL    HW212924   4.266   0.147   4.181
 4202SOL     OW12925   5.158   1.188   3.765
 4202SOL    HW112926   5.190   1.112   3.822
 4202SOL    HW212927   5.066   1.215   3.795
 4203SOL     OW12928   4.021   0.035   3.895
 4203SOL    HW112929   4.070   0.119   3.874
 4203SOL    HW212930   4.083  -0.030   3.940
 4204SOL     OW12931   4.659   0.236   4.204
 4204SOL    HW112932   4.611   0.277   4.126
 4204SOL    HW212933   4.758   0.234   4.185
 4205SOL     OW12934   4.800   0.683   5.188
 4205SOL    HW112935   4.720   0.622   5.191
 4205SOL    HW212936   4.881   0.630   5.164
 4206SOL     OW12937   4.951   1.570   4.517
 4206SOL    HW112938   4.972   1.644   4.452
 4206SOL    HW212939   5.019   1.570   4.590
 4207SOL     OW12940   4.183   1.152   4.465
 4207SOL    HW112941   4.112   1.125   4.530
 4207SOL    HW212942   4.157   1.124   4.372
 4208SOL     OW12943   4.995   1.797   4.315
 4208SOL    HW112944   5.039   1.861   4.251
 4208SOL    HW212945   4.945   1.849   4.385
 4209SOL     OW12946   4.756   0.549   3.740
 4209SOL    HW112947   4.715   0.631   3.701
 4209SOL    HW212948   4.820   0.575   3.813
 4210SOL     OW12949   3.802   0.556   5.110
 4210SOL    HW112950   3.894   0.555   5.069
 4210SOL    HW212951   3.796   0.630   5.177
 4211SOL     OW12952   4.285   0.222   4.871
 4211SOL    HW112953   4.323   0.138   4.908
 4211SOL    HW212954   4.197   0.241   4.915
 4212SOL     OW12955   4.590   0.454   4.366
 4212SOL    HW112956   4.558   0.526   4.304
 4212SOL    HW212957   4.614   0.373   4.313
 4213SOL     OW12958   4.741   0.039   4.477
 4213SOL    HW112959   4.669   0.044   4.408
 4213SOL    HW212960   4.717  -0.030   4.546
 4214SOL     OW12961   5.153   1.173   4.591
 4214SOL    HW112962   5.098   1.089   4.584
 4214SOL    HW212963   5.179   1.202   4.499
 4215SOL     OW12964   5.190   0.590   4.716
 4215SOL    HW112965   5.160   0.495   4.723
 4215SOL    HW212966   5.263   0.606   4.782
 4216SOL     OW12967   5.581   0.833   4.101
 4216SOL    HW112968   5.623   0.769   4.165
 4216SOL    HW212969   5.543   0.782   4.023
 4217SOL     OW12970   4.212   1.385   3.898
 4217SOL    HW112971   4.125   1.370   3.945
 4217SOL    HW212972   4.195   1.411   3.803
 4218SOL     OW12973   5.388   1.280   4.381
 4218SOL    HW112974   5.487   1.288   4.395
 4218SOL    HW212975   5.343   1.364   4.412
 4219SOL     OW12976   5.114   0.575   3.802
 4219SOL    HW112977   5.060   0.554   3.883
 4219SOL    HW212978   5.205   0.534   3.811
 4220SOL     OW12979   4.251   0.256   4.052
 4220SOL    HW112980   4.278   0.197   3.977
 4220SOL    HW212981   4.251   0.351   4.021
 4221SOL     OW12982   5.478   1.223   5.312
 4221SOL    HW112983   5.569   1.184   5.299
 4221SOL    HW212984   5.486   1.319   5.336
 4222SOL     OW12985   4.788   1.347   5.064
 4222SOL    HW112986   4.708   1.324   5.119
 4222SOL    HW212987   4.871   1.321   5.113
 4223SOL     OW12988   5.316   1.629   5.349
 4223SOL    HW112989   5.343   1.663   5.259
 4223SOL    HW212990   5.395   1.591   5.395
 4224SOL     OW12991   4.835   1.195   4.824
 4224SOL    HW112992   4.795   1.239   4.905
 4224SOL    HW212993   4.794   1.232   4.741
 4225SOL     OW12994   5.362   1.099   4.803
 4225SOL    HW112995   5.367   1.180   4.862
 4225SOL    HW212996   5.276   1.101   4.752
 4226SOL     OW12997   4.639   0.089   5.126
 4226SOL    HW112998   4.664   0.069   5.031
 4226SOL    HW212999   4.711   0.145   5.168
 4227SOL     OW13000   4.704   1.116   5.443
 4227SOL    HW113001   4.605   1.122   5.453
 4227SOL    HW213002   4.727   1.036   5.387
 4228SOL     OW13003   4.429   1.050   4.092
 4228SOL    HW113004   4.415   1.057   4.191
 4228SOL    HW213005   4.513   0.999   4.074
 4229SOL     OW13006   4.134   0.813   4.975
 4229SOL    HW113007   4.220   0.825   5.025
 4229SOL    HW213008   4.092   0.726   5.002
 4230SOL     OW13009   4.998   0.386   4.986
 4230SOL    HW113010   5.019   0.460   5.050
 4230SOL    HW213011   4.909   0.403   4.943
 4231SOL     OW13012   3.788   1.564   5.055
 4231SOL    HW113013   3.742   1.646   5.021
 4231SOL    HW213014   3.886   1.583   5.064
 4232SOL     OW13015   4.091   1.100   4.225
 4232SOL    HW113016   4.084   1.183   4.169
 4232SOL    HW213017   4.095   1.020   4.165
 4233SOL     OW13018   4.290   0.537   4.589
 4233SOL    HW113019   4.302   0.603   4.515
 4233SOL    HW213020   4.336   0.571   4.672
 4234SOL     OW13021   4.976   1.348   4.112
 4234SOL    HW113022   5.026   1.425   4.152
 4234SOL    HW213023   4.881   1.350   4.144
 4235SOL     OW13024   4.996   1.445   4.866
 4235SOL    HW113025   5.043   1.458   4.953
 4235SOL    HW213026   4.930   1.371   4.875
 4236SOL     OW13027   5.306   0.639   4.196
 4236SOL    HW113028   5.275   0.700   4.269
 4236SOL    HW213029   5.356   0.691   4.127
 4237SOL     OW13030   4.078   1.510   5.053
 4237SOL    HW113031   4.057   1.466   4.966
 4237SOL    HW213032   4.175   1.536   5.056
 4238SOL     OW13033   4.126   0.751   5.322
 4238SOL    HW113034   4.194   0.806   5.275
 4238SOL    HW213035   4.166   0.663   5.349
 4239SOL     OW13036   5.311   0.779   5.394
 4239SOL    HW113037   5.219   0.817   5.389
 4239SOL    HW213038   5.371   0.826   5.329
 4240SOL     OW13039   4.737   0.105   5.494
 4240SOL    HW113040   4.743   0.190   5.442
 4240SOL    HW213041   4.769   0.029   5.437
 4241SOL     OW13042   4.297   0.870   4.753
 4241SOL    HW113043   4.341   0.959   4.744
 4241SOL    HW213044   4.234   0.870   4.830
 4242SOL     OW13045   5.084   0.862   4.769
 4242SOL    HW113046   5.009   0.862   4.703
 4242SOL    HW213047   5.121   0.770   4.778
 4243SOL     OW13048   4.933   0.525   3.999
 4243SOL    HW113049   4.946   0.441   4.053
 4243SOL    HW213050   4.904   0.599   4.059
 4244SOL     OW13051   4.031   0.213   4.955
 4244SOL    HW113052   4.008   0.250   5.045
 4244SOL    HW213053   4.001   0.118   4.949
 4245SOL     OW13054   3.761   1.310   5.006
 4245SOL    HW113055   3.814   1.261   5.074
 4245SOL    HW213056   3.783   1.408   5.011
 4246SOL     OW13057   4.456   0.634   4.788
 4246SOL    HW113058   4.515   0.608   4.712
 4246SOL    HW213059   4.428   0.730   4.777
 4247SOL     OW13060   5.452   0.935   5.578
 4247SOL    HW113061   5.406   0.928   5.489
 4247SOL    HW213062   5.390   0.979   5.644
 4248SOL     OW13063   4.031   0.063   4.342
 4248SOL    HW113064   4.020   0.157   4.375
 4248SOL    HW213065   4.026   0.000   4.419
 4249SOL     OW13066   5.346   0.367   4.098
 4249SOL    HW113067   5.348   0.291   4.162
 4249SOL    HW213068   5.298   0.444   4.138
 4250SOL     OW13069   4.747   0.766   4.690
 4250SOL    HW113070   4.762   0.787   4.786
 4250SOL    HW213071   4.717   0.671   4.681
 4251SOL     OW13072   4.704   1.573   5.424
 4251SOL    HW113073   4.684   1.617   5.336
 4251SOL    HW213074   4.743   1.482   5.408
 4252SOL     OW13075   5.583   1.518   5.329
 4252SOL    HW113076   5.597   1.545   5.234
 4252SOL    HW213077   5.666   1.540   5.382
 4253SOL     OW13078   4.074   0.898   5.528
 4253SOL    HW113079   4.150   0.942   5.576
 4253SOL    HW213080   4.109   0.851   5.446
 4254SOL     OW13081   5.264   0.274   3.849
 4254SOL    HW113082   5.203   0.199   3.872
 4254SOL    HW213083   5.286   0.326   3.932
 4255SOL     OW13084   4.792   1.333   4.573
 4255SOL    HW113085   4.799   1.249   4.518
 4255SOL    HW213086   4.854   1.402   4.537
 4256SOL     OW13087   4.043   0.810   4.673
 4256SOL    HW113088   4.136   0.846   4.678
 4256SOL    HW213089   4.037   0.725   4.725
 4257SOL     OW13090   4.063   0.509   4.730
 4257SOL    HW113091   4.011   0.426   4.713
 4257SOL    HW213092   4.140   0.514   4.666
 4258SOL     OW13093   4.862   0.380   5.402
 4258SOL    HW113094   4.817   0.443   5.466
 4258SOL    HW213095   4.955   0.411   5.385
 4259SOL     OW13096   4.884   0.207   5.201
 4259SOL    HW113097   4.884   0.271   5.278
 4259SOL    HW213098   4.912   0.255   5.118
 4260SOL     OW13099   3.732   1.326   3.924
 4260SOL    HW113100   3.639   1.347   3.893
 4260SOL    HW213101   3.742   1.227   3.937
 4261SOL     OW13102   3.812   1.801   4.651
 4261SOL    HW113103   3.770   1.715   4.624
 4261SOL    HW213104   3.906   1.804   4.617
 4262SOL     OW13105   4.228   1.568   4.634
 4262SOL    HW113106   4.294   1.642   4.643
 4262SOL    HW213107   4.272   1.489   4.592
 4263SOL     OW13108   4.726   0.796   4.962
 4263SOL    HW113109   4.767   0.764   5.048
 4263SOL    HW213110   4.630   0.769   4.959
 4264SOL     OW13111   3.764   0.544   4.838
 4264SOL    HW113112   3.849   0.511   4.797
 4264SOL    HW213113   3.777   0.559   4.936
 4265SOL     OW13114   3.913   0.520   5.446
 4265SOL    HW113115   3.972   0.480   5.376
 4265SOL    HW213116   3.855   0.591   5.405
 4266SOL     OW13117   5.093   0.950   5.384
 4266SOL    HW113118   5.132   1.039   5.404
 4266SOL    HW213119   5.103   0.930   5.287
 4267SOL     OW13120   4.539   0.572   4.049
 4267SOL    HW113121   4.546   0.483   4.003
 4267SOL    HW213122   4.445   0.606   4.041
 4268SOL     OW13123   5.381   0.604   4.930
 4268SOL    HW113124   5.343   0.535   4.992
 4268SOL    HW213125   5.463   0.568   4.886
 4269SOL     OW13126   3.976   1.564   5.468
 4269SOL    HW113127   3.946   1.621   5.544
 4269SOL    HW213128   3.969   1.467   5.494
 4270SOL     OW13129   4.395   0.464   4.993
 4270SOL    HW113130   4.361   0.375   4.963
 4270SOL    HW213131   4.421   0.518   4.913
 4271SOL     OW13132   4.654   1.678   5.189
 4271SOL    HW113133   4.630   1.660   5.094
 4271SOL    HW213134   4.684   1.772   5.199
 4272SOL     OW13135   4.197   0.500   3.915
 4272SOL    HW113136   4.258   0.580   3.919
 4272SOL    HW213137   4.102   0.531   3.922
 4273SOL     OW13138   3.883   1.137   5.190
 4273SOL    HW113139   3.905   1.076   5.266
 4273SOL    HW213140   3.893   1.088   5.104
 4274SOL     OW13141   5.026   0.855   4.033
 4274SOL    HW113142   4.940   0.824   4.075
 4274SOL    HW213143   5.022   0.841   3.934
 4275SOL     OW13144   5.483   1.747   4.878
 4275SOL    HW113145   5.544   1.777   4.805
 4275SOL    HW213146   5.445   1.658   4.856
 4276SOL     OW13147   4.976   1.731   4.852
 4276SOL    HW113148   5.060   1.736   4.798
 4276SOL    HW213149   4.953   1.635   4.870
 4277SOL     OW13150   3.807   1.258   4.746
 4277SOL    HW113151   3.802   1.257   4.846
 4277SOL    HW213152   3.724   1.217   4.708
 4278SOL     OW13153   4.412   1.662   5.440
 4278SOL    HW113154   4.356   1.743   5.449
 4278SOL    HW213155   4.464   1.666   5.354
 4279SOL     OW13156   5.450   0.135   4.247
 4279SOL    HW113157   5.523   0.118   4.180
 4279SOL    HW213158   5.419   0.048   4.285
 4280SOL     OW13159   5.112   1.573   4.201
 4280SOL    HW113160   5.179   1.585   4.127
 4280SOL    HW213161   5.072   1.662   4.224
 4281SOL     OW13162   3.854   1.794   5.575
 4281SOL    HW113163   3.813   1.720   5.628
 4281SOL    HW213164   3.918   1.845   5.633
 4282SOL     OW13165   5.004   0.927   4.396
 4282SOL    HW113166   5.064   0.846   4.398
 4282SOL    HW213167   5.044   0.996   4.336
 4283SOL     OW13168   4.554   1.273   5.146
 4283SOL    HW113169   4.549   1.306   5.241
 4283SOL    HW213170   4.468   1.292   5.100
 4284SOL     OW13171   4.396   1.616   3.878
 4284SOL    HW113172   4.405   1.626   3.779
 4284SOL    HW213173   4.356   1.527   3.899
 4285SOL     OW13174   5.374   1.720   5.118
 4285SOL    HW113175   5.427   1.730   5.034
 4285SOL    HW213176   5.347   1.810   5.152
 4286SOL     OW13177   5.565   0.175   4.687
 4286SOL    HW113178   5.604   0.090   4.651
 4286SOL    HW213179   5.467   0.177   4.668
 4287SOL     OW13180   3.987   0.326   4.444
 4287SOL    HW113181   3.908   0.377   4.410
 4287SOL    HW213182   3.978   0.311   4.542
 4288SOL     OW13183   4.918   1.612   3.755
 4288SOL    HW113184   4.924   1.519   3.792
 4288SOL    HW213185   4.859   1.612   3.675
 4289SOL     OW13186   4.546   1.002   5.096
 4289SOL    HW113187   4.586   1.001   5.004
 4289SOL    HW213188   4.556   1.094   5.136
 4290SOL     OW13189   4.640   0.910   4.015
 4290SOL    HW113190   4.703   0.948   3.947
 4290SOL    HW213191   4.680   0.827   4.054
 4291SOL     OW13192   5.228   1.607   3.768
 4291SOL    HW113193   5.136   1.644   3.775
 4291SOL    HW213194   5.266   1.627   3.678
 4292SOL     OW13195   4.096   1.288   5.214
 4292SOL    HW113196   4.083   1.381   5.180
 4292SOL    HW213197   4.012   1.236   5.201
 4293SOL     OW13198   5.338   1.292   5.013
 4293SOL    HW113199   5.398   1.295   5.093
 4293SOL    HW213200   5.263   1.356   5.026
 4294SOL     OW13201   4.763   1.098   4.420
 4294SOL    HW113202   4.693   1.051   4.474
 4294SOL    HW213203   4.822   1.030   4.377
 4295SOL     OW13204   4.738   0.236   4.695
 4295SOL    HW113205   4.730   0.200   4.602
 4295SOL    HW213206   4.736   0.160   4.760
 4296SOL     OW13207   4.314   1.487   4.215
 4296SOL    HW113208   4.356   1.429   4.145
 4296SOL    HW213209   4.270   1.566   4.171
 4297SOL     OW13210   5.433   0.385   5.105
 4297SOL    HW113211   5.506   0.454   5.109
 4297SOL    HW213212   5.461   0.310   5.046
 4298SOL     OW13213   3.979   1.348   4.014
 4298SOL    HW113214   3.883   1.349   3.987
 4298SOL    HW213215   3.991   1.401   4.098
 4299SOL     OW13216   3.829   1.013   5.450
 4299SOL    HW113217   3.752   0.980   5.504
 4299SOL    HW213218   3.914   0.983   5.492
 4300SOL     OW13219   4.396   0.203   5.213
 4300SOL    HW113220   4.486   0.187   5.173
 4300SOL    HW213221   4.404   0.208   5.312
 4301SOL     OW13222   3.799   0.345   3.757
 4301SOL    HW113223   3.707   0.317   3.728
 4301SOL    HW213224   3.830   0.422   3.701
 4302SOL     OW13225   5.164   0.856   5.122
 4302SOL    HW113226   5.107   0.908   5.059
 4302SOL    HW213227   5.260   0.868   5.098
 4303SOL     OW13228   3.796   0.166   4.042
 4303SOL    HW113229   3.779   0.249   3.988
 4303SOL    HW213230   3.886   0.129   4.020
 4304SOL     OW13231   4.907   1.335   3.843
 4304SOL    HW113232   4.808   1.324   3.845
 4304SOL    HW213233   4.941   1.350   3.936
 4305SOL     OW13234   4.337   0.842   5.155
 4305SOL    HW113235   4.393   0.923   5.138
 4305SOL    HW213236   4.396   0.762   5.158
 4306SOL     OW13237   5.217   1.767   4.683
 4306SOL    HW113238   5.250   1.831   4.614
 4306SOL    HW213239   5.283   1.761   4.758
 4307SOL     OW13240   4.440   0.565   5.432
 4307SOL    HW113241   4.459   0.630   5.506
 4307SOL    HW213242   4.500   0.485   5.441
 4308SOL     OW13243   5.174   1.220   5.357
 4308SOL    HW113244   5.165   1.210   5.456
 4308SOL    HW213245   5.270   1.213   5.331
 4309SOL     OW13246   4.114   1.741   5.284
 4309SOL    HW113247   4.023   1.782   5.282
 4309SOL    HW213248   4.107   1.647   5.316
 4310SOL     OW13249   5.398   0.883   4.978
 4310SOL    HW113250   5.371   0.794   4.941
 4310SOL    HW213251   5.399   0.951   4.905
 4311SOL     OW13252   4.949   0.325   4.173
 4311SOL    HW113253   5.014   0.251   4.162
 4311SOL    HW213254   4.969   0.375   4.257
 4312SOL     OW13255   4.318   0.745   4.376
 4312SOL    HW113256   4.368   0.830   4.357
 4312SOL    HW213257   4.230   0.747   4.328
 4313SOL     OW13258   5.501   0.342   5.366
 4313SOL    HW113259   5.484   0.373   5.272
 4313SOL    HW213260   5.417   0.305   5.404
 4314SOL     OW13261   5.454   0.934   5.241
 4314SOL    HW113262   5.492   1.025   5.256
 4314SOL    HW213263   5.446   0.917   5.142
 4315SOL     OW13264   4.583   1.374   3.740
 4315SOL    HW113265   4.537   1.389   3.828
 4315SOL    HW213266   4.627   1.459   3.710
 4316SOL     OW13267   4.385   1.790   4.677
 4316SOL    HW113268   4.339   1.878   4.664
 4316SOL    HW213269   4.484   1.802   4.670
 4317SOL     OW13270   4.583   0.956   4.585
 4317SOL    HW113271   4.637   0.887   4.633
 4317SOL    HW213272   4.551   1.025   4.651
 4318SOL     OW13273   4.807   0.984   3.811
 4318SOL    HW113274   4.784   1.037   3.729
 4318SOL    HW213275   4.888   0.928   3.792
 4319SOL     OW13276   5.585   1.569   4.575
 4319SOL    HW113277   5.514   1.557   4.505
 4319SOL    HW213278   5.586   1.490   4.635
 4320SOL     OW13279   3.803   1.240   4.377
 4320SOL    HW113280   3.802   1.193   4.465
 4320SOL    HW213281   3.885   1.212   4.326
 4321SOL     OW13282   4.396   1.391   5.348
 4321SOL    HW113283   4.318   1.341   5.386
 4321SOL    HW213284   4.393   1.486   5.379
 4322SOL     OW13285   5.548   0.192   4.951
 4322SOL    HW113286   5.544   0.102   4.995
 4322SOL    HW213287   5.551   0.181   4.852
 4323SOL     OW13288   4.152   0.424   4.244
 4323SOL    HW113289   4.182   0.352   4.182
 4323SOL    HW213290   4.113   0.384   4.327
 4324SOL     OW13291   5.429   1.487   4.828
 4324SOL    HW113292   5.336   1.462   4.801
 4324SOL    HW213293   5.455   1.437   4.910
 4325SOL     OW13294   4.041   0.547   5.004
 4325SOL    HW113295   4.079   0.488   5.076
 4325SOL    HW213296   4.081   0.521   4.916
 4326SOL     OW13297   4.536   1.586   4.411
 4326SOL    HW113298   4.568   1.596   4.317
 4326SOL    HW213299   4.457   1.524   4.413
 4327SOL     OW13300   5.148   0.214   4.836
 4327SOL    HW113301   5.200   0.149   4.891
 4327SOL    HW213302   5.099   0.277   4.897
 4328SOL     OW13303   4.725   0.034   4.878
 4328SOL    HW113304   4.662  -0.038   4.847
 4328SOL    HW213305   4.818  -0.002   4.878
 4329SOL     OW13306   4.494   1.330   4.025
 4329SOL    HW113307   4.448   1.243   4.042
 4329SOL    HW213308   4.585   1.327   4.066
 4330SOL     OW13309   4.342   1.567   5.008
 4330SOL    HW113310   4.337   1.649   5.065
 4330SOL    HW213311   4.431   1.564   4.963
 4331SOL     OW13312   5.076   0.052   3.892
 4331SOL    HW113313   5.111   0.011   3.808
 4331SOL    HW213314   4.986   0.014   3.912
 4332SOL     OW13315   5.024   0.453   4.415
 4332SOL    HW113316   4.965   0.533   4.419
 4332SOL    HW213317   5.039   0.418   4.508
 4333SOL     OW13318   5.317   0.221   4.606
 4333SOL    HW113319   5.233   0.220   4.660
 4333SOL    HW213320   5.319   0.304   4.550
 4334SOL     OW13321   3.763   1.077   4.024
 4334SOL    HW113322   3.862   1.066   4.015
 4334SOL    HW213323   3.723   0.991   4.056
 4335SOL     OW13324   4.599   1.646   4.061
 4335SOL    HW113325   4.522   1.611   4.007
 4335SOL    HW213326   4.567   1.717   4.123
 4336SOL     OW13327   3.954   2.490   0.113
 4336SOL    HW113328   3.861   2.488   0.150
 4336SOL    HW213329   3.955   2.451   0.021
 4337SOL     OW13330   3.949   2.137   0.996
 4337SOL    HW113331   3.984   2.120   1.088
 4337SOL    HW213332   3.861   2.092   0.984
 4338SOL     OW13333   3.743   2.230   0.647
 4338SOL    HW113334   3.661   2.273   0.686
 4338SOL    HW213335   3.715   2.157   0.584
 4339SOL     OW13336   4.293   3.137   1.165
 4339SOL    HW113337   4.200   3.130   1.128
 4339SOL    HW213338   4.304   3.226   1.209
 4340SOL     OW13339   5.279   3.373   0.703
 4340SOL    HW113340   5.222   3.357   0.784
 4340SOL    HW213341   5.220   3.383   0.623
 4341SOL     OW13342   4.859   2.565   0.717
 4341SOL    HW113343   4.916   2.643   0.692
 4341SOL    HW213344   4.799   2.591   0.793
 4342SOL     OW13345   5.479   2.469   0.231
 4342SOL    HW113346   5.467   2.456   0.132
 4342SOL    HW213347   5.449   2.388   0.280
 4343SOL     OW13348   4.492   3.006   1.023
 4343SOL    HW113349   4.414   3.023   1.083
 4343SOL    HW213350   4.526   3.093   0.987
 4344SOL     OW13351   4.574   2.660   1.823
 4344SOL    HW113352   4.570   2.736   1.888
 4344SOL    HW213353   4.596   2.696   1.732
 4345SOL     OW13354   4.409   2.874   0.665
 4345SOL    HW113355   4.478   2.858   0.735
 4345SOL    HW213356   4.336   2.931   0.703
 4346SOL     OW13357   4.410   3.023   1.803
 4346SOL    HW113358   4.470   3.102   1.817
 4346SOL    HW213359   4.324   3.054   1.762
 4347SOL     OW13360   4.059   3.297   1.061
 4347SOL    HW113361   3.981   3.266   1.008
 4347SOL    HW213362   4.117   3.355   1.004
 4348SOL     OW13363   5.184   3.367   1.339
 4348SOL    HW113364   5.208   3.461   1.365
 4348SOL    HW213365   5.168   3.313   1.421
 4349SOL     OW13366   4.162   2.254   1.499
 4349SOL    HW113367   4.244   2.198   1.508
 4349SOL    HW213368   4.081   2.196   1.503
 4350SOL     OW13369   5.327   2.309   0.737
 4350SOL    HW113370   5.253   2.355   0.687
 4350SOL    HW213371   5.378   2.377   0.790
 4351SOL     OW13372   3.955   3.575   0.483
 4351SOL    HW113373   3.989   3.652   0.537
 4351SOL    HW213374   3.999   3.575   0.393
 4352SOL     OW13375   4.851   3.203   1.690
 4352SOL    HW113376   4.898   3.203   1.778
 4352SOL    HW213377   4.803   3.116   1.679
 4353SOL     OW13378   3.954   3.296   0.538
 4353SOL    HW113379   3.928   3.392   0.538
 4353SOL    HW213380   3.883   3.242   0.583
 4354SOL     OW13381   3.964   2.953   0.886
 4354SOL    HW113382   3.978   2.869   0.938
 4354SOL    HW213383   3.909   3.017   0.941
 4355SOL     OW13384   4.344   3.648   1.439
 4355SOL    HW113385   4.252   3.631   1.474
 4355SOL    HW213386   4.372   3.740   1.465
 4356SOL     OW13387   4.330   2.826   0.123
 4356SOL    HW113388   4.337   2.910   0.069
 4356SOL    HW213389   4.376   2.839   0.211
 4357SOL     OW13390   5.318   1.976   1.480
 4357SOL    HW113391   5.300   2.043   1.408
 4357SOL    HW213392   5.315   2.022   1.569
 4358SOL     OW13393   3.846   2.505   0.563
 4358SOL    HW113394   3.801   2.417   0.580
 4358SOL    HW213395   3.845   2.559   0.647
 4359SOL     OW13396   5.566   3.629   0.359
 4359SOL    HW113397   5.620   3.600   0.439
 4359SOL    HW213398   5.596   3.719   0.330
 4360SOL     OW13399   3.751   3.458   0.117
 4360SOL    HW113400   3.732   3.362   0.138
 4360SOL    HW213401   3.718   3.516   0.192
 4361SOL     OW13402   5.413   2.784   0.612
 4361SOL    HW113403   5.508   2.755   0.620
 4361SOL    HW213404   5.405   2.849   0.537
 4362SOL     OW13405   5.365   2.970   0.432
 4362SOL    HW113406   5.451   2.972   0.380
 4362SOL    HW213407   5.379   3.017   0.520
 4363SOL     OW13408   3.837   2.599   1.597
 4363SOL    HW113409   3.925   2.586   1.642
 4363SOL    HW213410   3.824   2.696   1.575
 4364SOL     OW13411   4.337   3.227   0.726
 4364SOL    HW113412   4.288   3.140   0.735
 4364SOL    HW213413   4.314   3.270   0.639
 4365SOL     OW13414   5.017   3.090   1.423
 4365SOL    HW113415   5.054   3.017   1.365
 4365SOL    HW213416   5.069   3.095   1.508
 4366SOL     OW13417   4.533   1.866   0.502
 4366SOL    HW113418   4.573   1.957   0.493
 4366SOL    HW213419   4.433   1.874   0.508
 4367SOL     OW13420   3.921   2.838   1.264
 4367SOL    HW113421   4.010   2.793   1.250
 4367SOL    HW213422   3.848   2.773   1.245
 4368SOL     OW13423   5.249   2.861   0.190
 4368SOL    HW113424   5.186   2.785   0.203
 4368SOL    HW213425   5.297   2.879   0.276
 4369SOL     OW13426   4.911   3.654   1.616
 4369SOL    HW113427   4.935   3.714   1.540
 4369SOL    HW213428   4.918   3.559   1.586
 4370SOL     OW13429   4.041   2.113   1.801
 4370SOL    HW113430   4.112   2.184   1.807
 4370SOL    HW213431   3.953   2.152   1.829
 4371SOL     OW13432   5.190   3.279   0.953
 4371SOL    HW113433   5.131   3.285   1.033
 4371SOL    HW213434   5.175   3.191   0.907
 4372SOL     OW13435   5.391   3.576   0.572
 4372SOL    HW113436   5.350   3.553   0.484
 4372SOL    HW213437   5.373   3.502   0.637
 4373SOL     OW13438   4.322   2.591   0.270
 4373SOL    HW113439   4.346   2.660   0.202
 4373SOL    HW213440   4.244   2.624   0.324
 4374SOL     OW13441   5.005   2.207   0.944
 4374SOL    HW113442   4.919   2.157   0.931
 4374SOL    HW213443   5.067   2.153   1.000
 4375SOL     OW13444   5.300   3.524   0.307
 4375SOL    HW113445   5.389   3.570   0.310
 4375SOL    HW213446   5.279   3.500   0.212
 4376SOL     OW13447   4.531   2.467   1.465
 4376SOL    HW113448   4.484   2.464   1.554
 4376SOL    HW213449   4.480   2.412   1.399
 4377SOL     OW13450   5.118   2.331   1.674
 4377SOL    HW113451   5.098   2.374   1.762
 4377SOL    HW213452   5.196   2.269   1.683
 4378SOL     OW13453   4.697   2.752   1.572
 4378SOL    HW113454   4.743   2.668   1.543
 4378SOL    HW213455   4.641   2.786   1.497
 4379SOL     OW13456   4.715   2.272   1.242
 4379SOL    HW113457   4.638   2.306   1.296
 4379SOL    HW213458   4.681   2.221   1.163
 4380SOL     OW13459   4.765   2.563   0.429
 4380SOL    HW113460   4.791   2.559   0.525
 4380SOL    HW213461   4.680   2.512   0.415
 4381SOL     OW13462   3.800   2.673   0.789
 4381SOL    HW113463   3.899   2.661   0.798
 4381SOL    HW213464   3.776   2.768   0.810
 4382SOL     OW13465   4.589   2.210   0.195
 4382SOL    HW113466   4.648   2.273   0.146
 4382SOL    HW213467   4.608   2.116   0.166
 4383SOL     OW13468   5.443   2.447   1.831
 4383SOL    HW113469   5.417   2.536   1.795
 4383SOL    HW213470   5.441   2.379   1.758
 4384SOL     OW13471   5.086   3.006   0.545
 4384SOL    HW113472   5.169   2.977   0.497
 4384SOL    HW213473   5.037   3.073   0.489
 4385SOL     OW13474   4.274   2.058   0.885
 4385SOL    HW113475   4.269   2.053   0.985
 4385SOL    HW213476   4.276   2.154   0.856
 4386SOL     OW13477   4.732   3.318   0.477
 4386SOL    HW113478   4.686   3.390   0.425
 4386SOL    HW213479   4.728   3.338   0.575
 4387SOL     OW13480   4.075   3.663   0.853
 4387SOL    HW113481   4.125   3.577   0.859
 4387SOL    HW213482   4.140   3.740   0.850
 4388SOL     OW13483   5.519   2.928   0.873
 4388SOL    HW113484   5.457   2.913   0.797
 4388SOL    HW213485   5.467   2.939   0.958
 4389SOL     OW13486   4.951   3.412   1.506
 4389SOL    HW113487   4.957   3.335   1.570
 4389SOL    HW213488   4.899   3.386   1.426
 4390SOL     OW13489   4.045   2.805   0.242
 4390SOL    HW113490   4.127   2.844   0.200
 4390SOL    HW213491   4.018   2.723   0.193
 4391SOL     OW13492   5.182   2.597   0.728
 4391SOL    HW113493   5.177   2.532   0.803
 4391SOL    HW213494   5.262   2.656   0.741
 4392SOL     OW13495   4.185   3.128   1.727
 4392SOL    HW113496   4.135   3.129   1.641
 4392SOL    HW213497   4.122   3.110   1.803
 4393SOL     OW13498   4.835   3.638   0.237
 4393SOL    HW113499   4.775   3.576   0.287
 4393SOL    HW213500   4.866   3.594   0.152
 4394SOL     OW13501   3.926   2.147   1.498
 4394SOL    HW113502   3.846   2.207   1.485
 4394SOL    HW213503   3.916   2.098   1.584
 4395SOL     OW13504   5.356   3.239   0.081
 4395SOL    HW113505   5.324   3.333   0.071
 4395SOL    HW213506   5.280   3.176   0.069
 4396SOL     OW13507   4.188   3.605   0.323
 4396SOL    HW113508   4.221   3.644   0.409
 4396SOL    HW213509   4.264   3.598   0.258
 4397SOL     OW13510   5.124   1.969   0.426
 4397SOL    HW113511   5.100   1.932   0.336
 4397SOL    HW213512   5.223   1.985   0.430
 4398SOL     OW13513   3.973   3.647   1.241
 4398SOL    HW113514   4.030   3.582   1.291
 4398SOL    HW213515   3.957   3.614   1.148
 4399SOL     OW13516   4.664   3.560   0.904
 4399SOL    HW113517   4.744   3.503   0.925
 4399SOL    HW213518   4.615   3.520   0.827
 4400SOL     OW13519   4.106   2.562   0.480
 4400SOL    HW113520   4.151   2.472   0.477
 4400SOL    HW213521   4.012   2.551   0.513
 4401SOL     OW13522   5.271   2.084   1.729
 4401SOL    HW113523   5.266   2.121   1.821
 4401SOL    HW213524   5.199   2.015   1.717
 4402SOL     OW13525   4.338   1.984   0.117
 4402SOL    HW113526   4.436   1.962   0.124
 4402SOL    HW213527   4.307   1.967   0.024
 4403SOL     OW13528   4.505   2.126   1.749
 4403SOL    HW113529   4.572   2.065   1.792
 4403SOL    HW213530   4.432   2.145   1.814
 4404SOL     OW13531   4.612   3.376   1.195
 4404SOL    HW113532   4.589   3.351   1.101
 4404SOL    HW213533   4.673   3.307   1.234
 4405SOL     OW13534   5.075   2.452   1.433
 4405SOL    HW113535   5.103   2.409   1.518
 4405SOL    HW213536   5.100   2.548   1.434
 4406SOL     OW13537   4.527   3.264   0.924
 4406SOL    HW113538   4.617   3.278   0.882
 4406SOL    HW213539   4.456   3.266   0.853
 4407SOL     OW13540   4.646   2.365   0.899
 4407SOL    HW113541   4.621   2.356   0.803
 4407SOL    HW213542   4.694   2.283   0.930
 4408SOL     OW13543   4.263   1.926   0.512
 4408SOL    HW113544   4.182   1.927   0.570
 4408SOL    HW213545   4.266   2.009   0.457
 4409SOL     OW13546   5.158   3.050   0.041
 4409SOL    HW113547   5.190   2.974   0.098
 4409SOL    HW213548   5.066   3.077   0.071
 4410SOL     OW13549   4.021   1.897   0.171
 4410SOL    HW113550   4.070   1.981   0.150
 4410SOL    HW213551   4.083   1.832   0.216
 4411SOL     OW13552   4.659   2.098   0.480
 4411SOL    HW113553   4.611   2.139   0.402
 4411SOL    HW213554   4.758   2.096   0.461
 4412SOL     OW13555   4.800   2.545   1.464
 4412SOL    HW113556   4.720   2.484   1.467
 4412SOL    HW213557   4.881   2.492   1.440
 4413SOL     OW13558   4.951   3.432   0.793
 4413SOL    HW113559   4.972   3.506   0.728
 4413SOL    HW213560   5.019   3.432   0.866
 4414SOL     OW13561   4.183   3.014   0.741
 4414SOL    HW113562   4.112   2.987   0.806
 4414SOL    HW213563   4.157   2.986   0.648
 4415SOL     OW13564   4.995   3.659   0.591
 4415SOL    HW113565   5.039   3.723   0.527
 4415SOL    HW213566   4.945   3.711   0.661
 4416SOL     OW13567   4.756   2.411   0.016
 4416SOL    HW113568   4.715   2.493  -0.023
 4416SOL    HW213569   4.820   2.437   0.089
 4417SOL     OW13570   3.802   2.418   1.386
 4417SOL    HW113571   3.894   2.417   1.345
 4417SOL    HW213572   3.796   2.492   1.453
 4418SOL     OW13573   4.285   2.084   1.147
 4418SOL    HW113574   4.323   2.000   1.184
 4418SOL    HW213575   4.197   2.103   1.191
 4419SOL     OW13576   4.590   2.316   0.642
 4419SOL    HW113577   4.558   2.388   0.580
 4419SOL    HW213578   4.614   2.235   0.589
 4420SOL     OW13579   4.741   1.901   0.753
 4420SOL    HW113580   4.669   1.906   0.684
 4420SOL    HW213581   4.717   1.832   0.822
 4421SOL     OW13582   5.153   3.035   0.867
 4421SOL    HW113583   5.098   2.951   0.860
 4421SOL    HW213584   5.179   3.064   0.775
 4422SOL     OW13585   5.190   2.452   0.992
 4422SOL    HW113586   5.160   2.357   0.999
 4422SOL    HW213587   5.263   2.468   1.058
 4423SOL     OW13588   5.581   2.695   0.377
 4423SOL    HW113589   5.623   2.631   0.441
 4423SOL    HW213590   5.543   2.644   0.299
 4424SOL     OW13591   4.212   3.247   0.174
 4424SOL    HW113592   4.125   3.232   0.221
 4424SOL    HW213593   4.195   3.273   0.079
 4425SOL     OW13594   5.388   3.142   0.657
 4425SOL    HW113595   5.487   3.150   0.671
 4425SOL    HW213596   5.343   3.226   0.688
 4426SOL     OW13597   5.114   2.437   0.078
 4426SOL    HW113598   5.060   2.416   0.159
 4426SOL    HW213599   5.205   2.396   0.087
 4427SOL     OW13600   4.251   2.118   0.328
 4427SOL    HW113601   4.278   2.059   0.253
 4427SOL    HW213602   4.251   2.213   0.297
 4428SOL     OW13603   5.478   3.085   1.588
 4428SOL    HW113604   5.569   3.046   1.575
 4428SOL    HW213605   5.486   3.181   1.612
 4429SOL     OW13606   4.788   3.209   1.340
 4429SOL    HW113607   4.708   3.186   1.395
 4429SOL    HW213608   4.871   3.183   1.389
 4430SOL     OW13609   5.316   3.491   1.625
 4430SOL    HW113610   5.343   3.525   1.535
 4430SOL    HW213611   5.395   3.453   1.671
 4431SOL     OW13612   4.835   3.057   1.100
 4431SOL    HW113613   4.795   3.101   1.181
 4431SOL    HW213614   4.794   3.094   1.017
 4432SOL     OW13615   5.362   2.961   1.079
 4432SOL    HW113616   5.367   3.042   1.138
 4432SOL    HW213617   5.276   2.963   1.028
 4433SOL     OW13618   4.639   1.951   1.402
 4433SOL    HW113619   4.664   1.931   1.307
 4433SOL    HW213620   4.711   2.007   1.444
 4434SOL     OW13621   4.704   2.978   1.719
 4434SOL    HW113622   4.605   2.984   1.729
 4434SOL    HW213623   4.727   2.898   1.663
 4435SOL     OW13624   4.429   2.912   0.368
 4435SOL    HW113625   4.415   2.919   0.467
 4435SOL    HW213626   4.513   2.861   0.350
 4436SOL     OW13627   4.134   2.675   1.251
 4436SOL    HW113628   4.220   2.687   1.301
 4436SOL    HW213629   4.092   2.588   1.278
 4437SOL     OW13630   4.998   2.248   1.262
 4437SOL    HW113631   5.019   2.322   1.326
 4437SOL    HW213632   4.909   2.265   1.219
 4438SOL     OW13633   3.788   3.426   1.331
 4438SOL    HW113634   3.742   3.508   1.297
 4438SOL    HW213635   3.886   3.445   1.340
 4439SOL     OW13636   4.091   2.962   0.501
 4439SOL    HW113637   4.084   3.045   0.445
 4439SOL    HW213638   4.095   2.882   0.441
 4440SOL     OW13639   4.290   2.399   0.865
 4440SOL    HW113640   4.302   2.465   0.791
 4440SOL    HW213641   4.336   2.433   0.948
 4441SOL     OW13642   4.976   3.210   0.388
 4441SOL    HW113643   5.026   3.287   0.428
 4441SOL    HW213644   4.881   3.212   0.420
 4442SOL     OW13645   4.996   3.307   1.142
 4442SOL    HW113646   5.043   3.320   1.229
 4442SOL    HW213647   4.930   3.233   1.151
 4443SOL     OW13648   5.306   2.501   0.472
 4443SOL    HW113649   5.275   2.562   0.545
 4443SOL    HW213650   5.356   2.553   0.403
 4444SOL     OW13651   4.078   3.372   1.329
 4444SOL    HW113652   4.057   3.328   1.242
 4444SOL    HW213653   4.175   3.398   1.332
 4445SOL     OW13654   4.126   2.613   1.598
 4445SOL    HW113655   4.194   2.668   1.551
 4445SOL    HW213656   4.166   2.525   1.625
 4446SOL     OW13657   5.311   2.641   1.670
 4446SOL    HW113658   5.219   2.679   1.665
 4446SOL    HW213659   5.371   2.688   1.605
 4447SOL     OW13660   4.737   1.967   1.770
 4447SOL    HW113661   4.743   2.052   1.718
 4447SOL    HW213662   4.769   1.891   1.713
 4448SOL     OW13663   4.228   1.912   1.740
 4448SOL    HW113664   4.186   1.855   1.670
 4448SOL    HW213665   4.162   1.981   1.772
 4449SOL     OW13666   4.297   2.732   1.029
 4449SOL    HW113667   4.341   2.821   1.020
 4449SOL    HW213668   4.234   2.732   1.106
 4450SOL     OW13669   4.933   2.387   0.275
 4450SOL    HW113670   4.946   2.303   0.329
 4450SOL    HW213671   4.904   2.461   0.335
 4451SOL     OW13672   4.031   2.075   1.231
 4451SOL    HW113673   4.008   2.112   1.321
 4451SOL    HW213674   4.001   1.980   1.225
 4452SOL     OW13675   3.761   3.172   1.282
 4452SOL    HW113676   3.814   3.123   1.350
 4452SOL    HW213677   3.783   3.270   1.287
 4453SOL     OW13678   4.456   2.496   1.064
 4453SOL    HW113679   4.515   2.470   0.988
 4453SOL    HW213680   4.428   2.592   1.053
 4454SOL     OW13681   5.452   2.797   1.854
 4454SOL    HW113682   5.406   2.790   1.765
 4454SOL    HW213683   5.390   2.841   1.920
 4455SOL     OW13684   4.031   1.925   0.618
 4455SOL    HW113685   4.020   2.019   0.651
 4455SOL    HW213686   4.026   1.862   0.695
 4456SOL     OW13687   5.346   2.229   0.374
 4456SOL    HW113688   5.348   2.153   0.438
 4456SOL    HW213689   5.298   2.306   0.414
 4457SOL     OW13690   4.747   2.628   0.966
 4457SOL    HW113691   4.762   2.649   1.062
 4457SOL    HW213692   4.717   2.533   0.957
 4458SOL     OW13693   4.704   3.435   1.700
 4458SOL    HW113694   4.684   3.479   1.612
 4458SOL    HW213695   4.743   3.344   1.684
 4459SOL     OW13696   5.583   3.380   1.605
 4459SOL    HW113697   5.597   3.407   1.510
 4459SOL    HW213698   5.666   3.402   1.658
 4460SOL     OW13699   4.074   2.760   1.804
 4460SOL    HW113700   4.150   2.804   1.852
 4460SOL    HW213701   4.109   2.713   1.722
 4461SOL     OW13702   5.264   2.136   0.125
 4461SOL    HW113703   5.203   2.061   0.148
 4461SOL    HW213704   5.286   2.188   0.208
 4462SOL     OW13705   5.027   2.700   0.042
 4462SOL    HW113706   5.061   2.607   0.057
 4462SOL    HW213707   5.045   2.727  -0.053
 4463SOL     OW13708   4.792   3.195   0.849
 4463SOL    HW113709   4.799   3.111   0.794
 4463SOL    HW213710   4.854   3.264   0.813
 4464SOL     OW13711   4.043   2.672   0.949
 4464SOL    HW113712   4.136   2.708   0.954
 4464SOL    HW213713   4.037   2.587   1.001
 4465SOL     OW13714   4.063   2.371   1.006
 4465SOL    HW113715   4.011   2.288   0.989
 4465SOL    HW213716   4.140   2.376   0.942
 4466SOL     OW13717   4.862   2.242   1.678
 4466SOL    HW113718   4.817   2.305   1.742
 4466SOL    HW213719   4.955   2.273   1.661
 4467SOL     OW13720   4.884   2.069   1.477
 4467SOL    HW113721   4.884   2.133   1.554
 4467SOL    HW213722   4.912   2.117   1.394
 4468SOL     OW13723   3.732   3.188   0.200
 4468SOL    HW113724   3.639   3.209   0.169
 4468SOL    HW213725   3.742   3.089   0.213
 4469SOL     OW13726   3.812   3.663   0.927
 4469SOL    HW113727   3.770   3.577   0.900
 4469SOL    HW213728   3.906   3.666   0.893
 4470SOL     OW13729   4.228   3.430   0.910
 4470SOL    HW113730   4.294   3.504   0.919
 4470SOL    HW213731   4.272   3.351   0.868
 4471SOL     OW13732   4.726   2.658   1.238
 4471SOL    HW113733   4.767   2.626   1.324
 4471SOL    HW213734   4.630   2.631   1.235
 4472SOL     OW13735   3.764   2.406   1.114
 4472SOL    HW113736   3.849   2.373   1.073
 4472SOL    HW213737   3.777   2.421   1.212
 4473SOL     OW13738   3.913   2.382   1.722
 4473SOL    HW113739   3.972   2.342   1.652
 4473SOL    HW213740   3.855   2.453   1.681
 4474SOL     OW13741   5.093   2.812   1.660
 4474SOL    HW113742   5.132   2.901   1.680
 4474SOL    HW213743   5.103   2.792   1.563
 4475SOL     OW13744   4.539   2.434   0.325
 4475SOL    HW113745   4.546   2.345   0.279
 4475SOL    HW213746   4.445   2.468   0.317
 4476SOL     OW13747   5.381   2.466   1.206
 4476SOL    HW113748   5.343   2.397   1.268
 4476SOL    HW213749   5.463   2.430   1.162
 4477SOL     OW13750   3.976   3.426   1.744
 4477SOL    HW113751   3.946   3.483   1.820
 4477SOL    HW213752   3.969   3.329   1.770
 4478SOL     OW13753   4.395   2.326   1.269
 4478SOL    HW113754   4.361   2.237   1.239
 4478SOL    HW213755   4.421   2.380   1.189
 4479SOL     OW13756   4.654   3.540   1.465
 4479SOL    HW113757   4.630   3.522   1.370
 4479SOL    HW213758   4.684   3.634   1.475
 4480SOL     OW13759   4.197   2.362   0.191
 4480SOL    HW113760   4.258   2.442   0.195
 4480SOL    HW213761   4.102   2.393   0.198
 4481SOL     OW13762   3.883   2.999   1.466
 4481SOL    HW113763   3.905   2.938   1.542
 4481SOL    HW213764   3.893   2.950   1.380
 4482SOL     OW13765   5.071   2.921   1.234
 4482SOL    HW113766   5.095   2.858   1.160
 4482SOL    HW213767   4.981   2.961   1.216
 4483SOL     OW13768   5.026   2.717   0.309
 4483SOL    HW113769   4.940   2.686   0.351
 4483SOL    HW213770   5.022   2.703   0.210
 4484SOL     OW13771   5.483   3.609   1.154
 4484SOL    HW113772   5.544   3.639   1.081
 4484SOL    HW213773   5.445   3.520   1.132
 4485SOL     OW13774   4.976   3.593   1.128
 4485SOL    HW113775   5.060   3.598   1.074
 4485SOL    HW213776   4.953   3.497   1.146
 4486SOL     OW13777   3.807   3.120   1.022
 4486SOL    HW113778   3.802   3.119   1.122
 4486SOL    HW213779   3.724   3.079   0.984
 4487SOL     OW13780   4.412   3.524   1.716
 4487SOL    HW113781   4.356   3.605   1.725
 4487SOL    HW213782   4.464   3.528   1.630
 4488SOL     OW13783   4.627   1.948   0.133
 4488SOL    HW113784   4.678   1.949   0.047
 4488SOL    HW213785   4.683   1.906   0.204
 4489SOL     OW13786   5.450   1.997   0.523
 4489SOL    HW113787   5.523   1.980   0.456
 4489SOL    HW213788   5.419   1.910   0.561
 4490SOL     OW13789   5.112   3.435   0.477
 4490SOL    HW113790   5.179   3.447   0.403
 4490SOL    HW213791   5.072   3.524   0.500
 4491SOL     OW13792   3.854   3.656   1.851
 4491SOL    HW113793   3.813   3.582   1.904
 4491SOL    HW213794   3.918   3.707   1.909
 4492SOL     OW13795   5.004   2.789   0.672
 4492SOL    HW113796   5.064   2.708   0.674
 4492SOL    HW213797   5.044   2.858   0.612
 4493SOL     OW13798   4.554   3.135   1.422
 4493SOL    HW113799   4.549   3.168   1.517
 4493SOL    HW213800   4.468   3.154   1.376
 4494SOL     OW13801   4.396   3.478   0.154
 4494SOL    HW113802   4.405   3.488   0.055
 4494SOL    HW213803   4.356   3.389   0.175
 4495SOL     OW13804   5.374   3.582   1.394
 4495SOL    HW113805   5.427   3.592   1.310
 4495SOL    HW213806   5.347   3.672   1.428
 4496SOL     OW13807   5.565   2.037   0.963
 4496SOL    HW113808   5.604   1.952   0.927
 4496SOL    HW213809   5.467   2.039   0.944
 4497SOL     OW13810   3.987   2.188   0.720
 4497SOL    HW113811   3.908   2.239   0.686
 4497SOL    HW213812   3.978   2.173   0.818
 4498SOL     OW13813   4.918   3.474   0.031
 4498SOL    HW113814   4.924   3.381   0.068
 4498SOL    HW213815   4.859   3.474  -0.049
 4499SOL     OW13816   4.546   2.864   1.372
 4499SOL    HW113817   4.586   2.863   1.280
 4499SOL    HW213818   4.556   2.956   1.412
 4500SOL     OW13819   4.640   2.772   0.291
 4500SOL    HW113820   4.703   2.810   0.223
 4500SOL    HW213821   4.680   2.689   0.330
 4501SOL     OW13822   5.228   3.469   0.044
 4501SOL    HW113823   5.136   3.506   0.051
 4501SOL    HW213824   5.266   3.489  -0.046
 4502SOL     OW13825   4.096   3.150   1.490
 4502SOL    HW113826   4.083   3.243   1.456
 4502SOL    HW213827   4.012   3.098   1.477
 4503SOL     OW13828   5.338   3.154   1.289
 4503SOL    HW113829   5.398   3.157   1.369
 4503SOL    HW213830   5.263   3.218   1.302
 4504SOL     OW13831   4.763   2.960   0.696
 4504SOL    HW113832   4.693   2.913   0.750
 4504SOL    HW213833   4.822   2.892   0.653
 4505SOL     OW13834   4.738   2.098   0.971
 4505SOL    HW113835   4.730   2.062   0.878
 4505SOL    HW213836   4.736   2.022   1.036
 4506SOL     OW13837   5.433   2.247   1.381
 4506SOL    HW113838   5.506   2.316   1.385
 4506SOL    HW213839   5.461   2.172   1.322
 4507SOL     OW13840   3.979   3.210   0.290
 4507SOL    HW113841   3.883   3.211   0.263
 4507SOL    HW213842   3.991   3.263   0.374
 4508SOL     OW13843   3.829   2.875   1.726
 4508SOL    HW113844   3.752   2.842   1.780
 4508SOL    HW213845   3.914   2.845   1.768
 4509SOL     OW13846   4.396   2.065   1.489
 4509SOL    HW113847   4.486   2.049   1.449
 4509SOL    HW213848   4.404   2.070   1.588
 4510SOL     OW13849   3.799   2.207   0.033
 4510SOL    HW113850   3.707   2.179   0.004
 4510SOL    HW213851   3.830   2.284  -0.023
 4511SOL     OW13852   5.164   2.718   1.398
 4511SOL    HW113853   5.107   2.770   1.335
 4511SOL    HW213854   5.260   2.730   1.374
 4512SOL     OW13855   3.796   2.028   0.318
 4512SOL    HW113856   3.779   2.111   0.264
 4512SOL    HW213857   3.886   1.991   0.296
 4513SOL     OW13858   4.907   3.197   0.119
 4513SOL    HW113859   4.808   3.186   0.121
 4513SOL    HW213860   4.941   3.212   0.212
 4514SOL     OW13861   4.337   2.704   1.431
 4514SOL    HW113862   4.393   2.785   1.414
 4514SOL    HW213863   4.396   2.624   1.434
 4515SOL     OW13864   5.217   3.629   0.959
 4515SOL    HW113865   5.250   3.693   0.890
 4515SOL    HW213866   5.283   3.623   1.034
 4516SOL     OW13867   4.440   2.427   1.708
 4516SOL    HW113868   4.459   2.492   1.782
 4516SOL    HW213869   4.500   2.347   1.717
 4517SOL     OW13870   5.174   3.082   1.633
 4517SOL    HW113871   5.165   3.072   1.732
 4517SOL    HW213872   5.270   3.075   1.607
 4518SOL     OW13873   4.114   3.603   1.560
 4518SOL    HW113874   4.023   3.644   1.558
 4518SOL    HW213875   4.107   3.509   1.592
 4519SOL     OW13876   5.398   2.745   1.254
 4519SOL    HW113877   5.371   2.656   1.217
 4519SOL    HW213878   5.399   2.813   1.181
 4520SOL     OW13879   4.949   2.187   0.449
 4520SOL    HW113880   5.014   2.113   0.438
 4520SOL    HW213881   4.969   2.237   0.533
 4521SOL     OW13882   4.318   2.607   0.652
 4521SOL    HW113883   4.368   2.692   0.633
 4521SOL    HW213884   4.230   2.609   0.604
 4522SOL     OW13885   5.501   2.204   1.642
 4522SOL    HW113886   5.484   2.235   1.548
 4522SOL    HW213887   5.417   2.167   1.680
 4523SOL     OW13888   5.454   2.796   1.517
 4523SOL    HW113889   5.492   2.887   1.532
 4523SOL    HW213890   5.446   2.779   1.418
 4524SOL     OW13891   4.583   3.236   0.016
 4524SOL    HW113892   4.537   3.251   0.104
 4524SOL    HW213893   4.627   3.321  -0.014
 4525SOL     OW13894   4.385   3.652   0.953
 4525SOL    HW113895   4.339   3.740   0.940
 4525SOL    HW213896   4.484   3.664   0.946
 4526SOL     OW13897   4.583   2.818   0.861
 4526SOL    HW113898   4.637   2.749   0.909
 4526SOL    HW213899   4.551   2.887   0.927
 4527SOL     OW13900   4.807   2.846   0.087
 4527SOL    HW113901   4.784   2.899   0.005
 4527SOL    HW213902   4.888   2.790   0.068
 4528SOL     OW13903   5.585   3.431   0.851
 4528SOL    HW113904   5.514   3.419   0.781
 4528SOL    HW213905   5.586   3.352   0.911
 4529SOL     OW13906   3.945   3.176   1.844
 4529SOL    HW113907   3.880   3.103   1.823
 4529SOL    HW213908   3.949   3.190   1.942
 4530SOL     OW13909   3.803   3.102   0.653
 4530SOL    HW113910   3.802   3.055   0.741
 4530SOL    HW213911   3.885   3.074   0.602
 4531SOL     OW13912   4.396   3.253   1.624
 4531SOL    HW113913   4.318   3.203   1.662
 4531SOL    HW213914   4.393   3.348   1.655
 4532SOL     OW13915   5.548   2.054   1.227
 4532SOL    HW113916   5.544   1.964   1.271
 4532SOL    HW213917   5.551   2.043   1.128
 4533SOL     OW13918   4.152   2.286   0.520
 4533SOL    HW113919   4.182   2.214   0.458
 4533SOL    HW213920   4.113   2.246   0.603
 4534SOL     OW13921   5.429   3.349   1.104
 4534SOL    HW113922   5.336   3.324   1.077
 4534SOL    HW213923   5.455   3.299   1.186
 4535SOL     OW13924   4.041   2.409   1.280
 4535SOL    HW113925   4.079   2.350   1.352
 4535SOL    HW213926   4.081   2.383   1.192
 4536SOL     OW13927   4.536   3.448   0.687
 4536SOL    HW113928   4.568   3.458   0.593
 4536SOL    HW213929   4.457   3.386   0.689
 4537SOL     OW13930   5.148   2.076   1.112
 4537SOL    HW113931   5.200   2.011   1.167
 4537SOL    HW213932   5.099   2.139   1.173
 4538SOL     OW13933   4.725   1.896   1.154
 4538SOL    HW113934   4.662   1.824   1.123
 4538SOL    HW213935   4.818   1.860   1.154
 4539SOL     OW13936   4.494   3.192   0.301
 4539SOL    HW113937   4.448   3.105   0.318
 4539SOL    HW213938   4.585   3.189   0.342
 4540SOL     OW13939   4.342   3.429   1.284
 4540SOL    HW113940   4.337   3.511   1.341
 4540SOL    HW213941   4.431   3.426   1.239
 4541SOL     OW13942   5.076   1.914   0.168
 4541SOL    HW113943   5.111   1.873   0.084
 4541SOL    HW213944   4.986   1.876   0.188
 4542SOL     OW13945   5.024   2.315   0.691
 4542SOL    HW113946   4.965   2.395   0.695
 4542SOL    HW213947   5.039   2.280   0.784
 4543SOL     OW13948   5.317   2.083   0.882
 4543SOL    HW113949   5.233   2.082   0.936
 4543SOL    HW213950   5.319   2.166   0.826
 4544SOL     OW13951   3.763   2.939   0.300
 4544SOL    HW113952   3.862   2.928   0.291
 4544SOL    HW213953   3.723   2.853   0.332
 4545SOL     OW13954   4.599   3.508   0.337
 4545SOL    HW113955   4.522   3.473   0.283
 4545SOL    HW213956   4.567   3.579   0.399
 4546SOL     OW13957   3.954   2.490   1.975
 4546SOL    HW113958   3.861   2.488   2.012
 4546SOL    HW213959   3.955   2.451   1.883
 4547SOL     OW13960   3.949   2.137   2.858
 4547SOL    HW113961   3.984   2.120   2.950
 4547SOL    HW213962   3.861   2.092   2.846
 4548SOL     OW13963   3.743   2.230   2.509
 4548SOL    HW113964   3.661   2.273   2.548
 4548SOL    HW213965   3.715   2.157   2.446
 4549SOL     OW13966   4.293   3.137   3.027
 4549SOL    HW113967   4.200   3.130   2.990
 4549SOL    HW213968   4.304   3.226   3.071
 4550SOL     OW13969   5.279   3.373   2.565
 4550SOL    HW113970   5.222   3.357   2.646
 4550SOL    HW213971   5.220   3.383   2.485
 4551SOL     OW13972   4.859   2.565   2.579
 4551SOL    HW113973   4.916   2.643   2.554
 4551SOL    HW213974   4.799   2.591   2.655
 4552SOL     OW13975   5.479   2.469   2.093
 4552SOL    HW113976   5.467   2.456   1.994
 4552SOL    HW213977   5.449   2.388   2.142
 4553SOL     OW13978   4.492   3.006   2.885
 4553SOL    HW113979   4.414   3.023   2.945
 4553SOL    HW213980   4.526   3.093   2.849
 4554SOL     OW13981   4.574   2.660   3.685
 4554SOL    HW113982   4.570   2.736   3.750
 4554SOL    HW213983   4.596   2.696   3.594
 4555SOL     OW13984   4.409   2.874   2.527
 4555SOL    HW113985   4.478   2.858   2.597
 4555SOL    HW213986   4.336   2.931   2.565
 4556SOL     OW13987   4.410   3.023   3.665
 4556SOL    HW113988   4.470   3.102   3.679
 4556SOL    HW213989   4.324   3.054   3.624
 4557SOL     OW13990   4.059   3.297   2.923
 4557SOL    HW113991   3.981   3.266   2.870
 4557SOL    HW213992   4.117   3.355   2.866
 4558SOL     OW13993   5.184   3.367   3.201
 4558SOL    HW113994   5.208   3.461   3.227
 4558SOL    HW213995   5.168   3.313   3.283
 4559SOL     OW13996   4.162   2.254   3.361
 4559SOL    HW113997   4.244   2.198   3.370
 4559SOL    HW213998   4.081   2.196   3.365
 4560SOL     OW13999   5.327   2.309   2.599
 4560SOL    HW114000   5.253   2.355   2.549
 4560SOL    HW214001   5.378   2.377   2.652
 4561SOL     OW14002   3.955   3.575   2.345
 4561SOL    HW114003   3.989   3.652   2.399
 4561SOL    HW214004   3.999   3.575   2.255
 4562SOL     OW14005   4.851   3.203   3.552
 4562SOL    HW114006   4.898   3.203   3.640
 4562SOL    HW214007   4.803   3.116   3.541
 4563SOL     OW14008   3.954   3.296   2.400
 4563SOL    HW114009   3.928   3.392   2.400
 4563SOL    HW214010   3.883   3.242   2.445
 4564SOL     OW14011   3.964   2.953   2.748
 4564SOL    HW114012   3.978   2.869   2.800
 4564SOL    HW214013   3.909   3.017   2.803
 4565SOL     OW14014   4.344   3.648   3.301
 4565SOL    HW114015   4.252   3.631   3.336
 4565SOL    HW214016   4.372   3.740   3.327
 4566SOL     OW14017   4.330   2.826   1.985
 4566SOL    HW114018   4.337   2.910   1.931
 4566SOL    HW214019   4.376   2.839   2.073
 4567SOL     OW14020   5.318   1.976   3.342
 4567SOL    HW114021   5.300   2.043   3.270
 4567SOL    HW214022   5.315   2.022   3.431
 4568SOL     OW14023   3.846   2.505   2.425
 4568SOL    HW114024   3.801   2.417   2.442
 4568SOL    HW214025   3.845   2.559   2.509
 4569SOL     OW14026   5.566   3.629   2.221
 4569SOL    HW114027   5.620   3.600   2.301
 4569SOL    HW214028   5.596   3.719   2.192
 4570SOL     OW14029   3.751   3.458   1.979
 4570SOL    HW114030   3.732   3.362   2.000
 4570SOL    HW214031   3.718   3.516   2.054
 4571SOL     OW14032   5.413   2.784   2.474
 4571SOL    HW114033   5.508   2.755   2.482
 4571SOL    HW214034   5.405   2.849   2.399
 4572SOL     OW14035   5.365   2.970   2.294
 4572SOL    HW114036   5.451   2.972   2.242
 4572SOL    HW214037   5.379   3.017   2.382
 4573SOL     OW14038   3.837   2.599   3.459
 4573SOL    HW114039   3.925   2.586   3.504
 4573SOL    HW214040   3.824   2.696   3.437
 4574SOL     OW14041   4.337   3.227   2.588
 4574SOL    HW114042   4.288   3.140   2.597
 4574SOL    HW214043   4.314   3.270   2.501
 4575SOL     OW14044   5.017   3.090   3.285
 4575SOL    HW114045   5.054   3.017   3.227
 4575SOL    HW214046   5.069   3.095   3.370
 4576SOL     OW14047   4.533   1.866   2.364
 4576SOL    HW114048   4.573   1.957   2.355
 4576SOL    HW214049   4.433   1.874   2.370
 4577SOL     OW14050   3.921   2.838   3.126
 4577SOL    HW114051   4.010   2.793   3.112
 4577SOL    HW214052   3.848   2.773   3.107
 4578SOL     OW14053   5.249   2.861   2.052
 4578SOL    HW114054   5.186   2.785   2.065
 4578SOL    HW214055   5.297   2.879   2.138
 4579SOL     OW14056   4.911   3.654   3.478
 4579SOL    HW114057   4.935   3.714   3.402
 4579SOL    HW214058   4.918   3.559   3.448
 4580SOL     OW14059   4.041   2.113   3.663
 4580SOL    HW114060   4.112   2.184   3.669
 4580SOL    HW214061   3.953   2.152   3.691
 4581SOL     OW14062   5.190   3.279   2.815
 4581SOL    HW114063   5.131   3.285   2.895
 4581SOL    HW214064   5.175   3.191   2.769
 4582SOL     OW14065   5.391   3.576   2.434
 4582SOL    HW114066   5.350   3.553   2.346
 4582SOL    HW214067   5.373   3.502   2.499
 4583SOL     OW14068   4.322   2.591   2.132
 4583SOL    HW114069   4.346   2.660   2.064
 4583SOL    HW214070   4.244   2.624   2.186
 4584SOL     OW14071   5.005   2.207   2.806
 4584SOL    HW114072   4.919   2.157   2.793
 4584SOL    HW214073   5.067   2.153   2.862
 4585SOL     OW14074   5.300   3.524   2.169
 4585SOL    HW114075   5.389   3.570   2.172
 4585SOL    HW214076   5.279   3.500   2.074
 4586SOL     OW14077   4.531   2.467   3.327
 4586SOL    HW114078   4.484   2.464   3.416
 4586SOL    HW214079   4.480   2.412   3.261
 4587SOL     OW14080   5.118   2.331   3.536
 4587SOL    HW114081   5.098   2.374   3.624
 4587SOL    HW214082   5.196   2.269   3.545
 4588SOL     OW14083   4.697   2.752   3.434
 4588SOL    HW114084   4.743   2.668   3.405
 4588SOL    HW214085   4.641   2.786   3.359
 4589SOL     OW14086   4.715   2.272   3.104
 4589SOL    HW114087   4.638   2.306   3.158
 4589SOL    HW214088   4.681   2.221   3.025
 4590SOL     OW14089   4.765   2.563   2.291
 4590SOL    HW114090   4.791   2.559   2.387
 4590SOL    HW214091   4.680   2.512   2.277
 4591SOL     OW14092   3.800   2.673   2.651
 4591SOL    HW114093   3.899   2.661   2.660
 4591SOL    HW214094   3.776   2.768   2.672
 4592SOL     OW14095   3.854   3.683   3.433
 4592SOL    HW114096   3.844   3.668   3.532
 4592SOL    HW214097   3.768   3.719   3.397
 4593SOL     OW14098   4.589   2.210   2.057
 4593SOL    HW114099   4.648   2.273   2.008
 4593SOL    HW214100   4.608   2.116   2.028
 4594SOL     OW14101   5.443   2.447   3.693
 4594SOL    HW114102   5.417   2.536   3.657
 4594SOL    HW214103   5.441   2.379   3.620
 4595SOL     OW14104   5.086   3.006   2.407
 4595SOL    HW114105   5.169   2.977   2.359
 4595SOL    HW214106   5.037   3.073   2.351
 4596SOL     OW14107   4.274   2.058   2.747
 4596SOL    HW114108   4.269   2.053   2.847
 4596SOL    HW214109   4.276   2.154   2.718
 4597SOL     OW14110   4.732   3.318   2.339
 4597SOL    HW114111   4.686   3.390   2.287
 4597SOL    HW214112   4.728   3.338   2.437
 4598SOL     OW14113   4.075   3.663   2.715
 4598SOL    HW114114   4.125   3.577   2.721
 4598SOL    HW214115   4.140   3.740   2.712
 4599SOL     OW14116   5.519   2.928   2.735
 4599SOL    HW114117   5.457   2.913   2.659
 4599SOL    HW214118   5.467   2.939   2.820
 4600SOL     OW14119   4.951   3.412   3.368
 4600SOL    HW114120   4.957   3.335   3.432
 4600SOL    HW214121   4.899   3.386   3.288
 4601SOL     OW14122   4.045   2.805   2.104
 4601SOL    HW114123   4.127   2.844   2.062
 4601SOL    HW214124   4.018   2.723   2.055
 4602SOL     OW14125   5.182   2.597   2.590
 4602SOL    HW114126   5.177   2.532   2.665
 4602SOL    HW214127   5.262   2.656   2.603
 4603SOL     OW14128   4.185   3.128   3.589
 4603SOL    HW114129   4.135   3.129   3.503
 4603SOL    HW214130   4.122   3.110   3.665
 4604SOL     OW14131   4.835   3.638   2.099
 4604SOL    HW114132   4.775   3.576   2.149
 4604SOL    HW214133   4.866   3.594   2.014
 4605SOL     OW14134   3.926   2.147   3.360
 4605SOL    HW114135   3.846   2.207   3.347
 4605SOL    HW214136   3.916   2.098   3.446
 4606SOL     OW14137   5.356   3.239   1.943
 4606SOL    HW114138   5.324   3.333   1.933
 4606SOL    HW214139   5.280   3.176   1.931
 4607SOL     OW14140   4.188   3.605   2.185
 4607SOL    HW114141   4.221   3.644   2.271
 4607SOL    HW214142   4.264   3.598   2.120
 4608SOL     OW14143   5.124   1.969   2.288
 4608SOL    HW114144   5.100   1.932   2.198
 4608SOL    HW214145   5.223   1.985   2.292
 4609SOL     OW14146   3.973   3.647   3.103
 4609SOL    HW114147   4.030   3.582   3.153
 4609SOL    HW214148   3.957   3.614   3.010
 4610SOL     OW14149   4.664   3.560   2.766
 4610SOL    HW114150   4.744   3.503   2.787
 4610SOL    HW214151   4.615   3.520   2.689
 4611SOL     OW14152   4.106   2.562   2.342
 4611SOL    HW114153   4.151   2.472   2.339
 4611SOL    HW214154   4.012   2.551   2.375
 4612SOL     OW14155   5.271   2.084   3.591
 4612SOL    HW114156   5.266   2.121   3.683
 4612SOL    HW214157   5.199   2.015   3.579
 4613SOL     OW14158   4.338   1.984   1.979
 4613SOL    HW114159   4.436   1.962   1.986
 4613SOL    HW214160   4.307   1.967   1.886
 4614SOL     OW14161   4.505   2.126   3.611
 4614SOL    HW114162   4.572   2.065   3.654
 4614SOL    HW214163   4.432   2.145   3.676
 4615SOL     OW14164   4.612   3.376   3.057
 4615SOL    HW114165   4.589   3.351   2.963
 4615SOL    HW214166   4.673   3.307   3.096
 4616SOL     OW14167   5.075   2.452   3.295
 4616SOL    HW114168   5.103   2.409   3.380
 4616SOL    HW214169   5.100   2.548   3.296
 4617SOL     OW14170   4.527   3.264   2.786
 4617SOL    HW114171   4.617   3.278   2.744
 4617SOL    HW214172   4.456   3.266   2.715
 4618SOL     OW14173   4.646   2.365   2.761
 4618SOL    HW114174   4.621   2.356   2.665
 4618SOL    HW214175   4.694   2.283   2.792
 4619SOL     OW14176   4.263   1.926   2.374
 4619SOL    HW114177   4.182   1.927   2.432
 4619SOL    HW214178   4.266   2.009   2.319
 4620SOL     OW14179   5.158   3.050   1.903
 4620SOL    HW114180   5.190   2.974   1.960
 4620SOL    HW214181   5.066   3.077   1.933
 4621SOL     OW14182   4.021   1.897   2.033
 4621SOL    HW114183   4.070   1.981   2.012
 4621SOL    HW214184   4.083   1.832   2.078
 4622SOL     OW14185   4.659   2.098   2.342
 4622SOL    HW114186   4.611   2.139   2.264
 4622SOL    HW214187   4.758   2.096   2.323
 4623SOL     OW14188   4.800   2.545   3.326
 4623SOL    HW114189   4.720   2.484   3.329
 4623SOL    HW214190   4.881   2.492   3.302
 4624SOL     OW14191   4.951   3.432   2.655
 4624SOL    HW114192   4.972   3.506   2.590
 4624SOL    HW214193   5.019   3.432   2.728
 4625SOL     OW14194   4.183   3.014   2.603
 4625SOL    HW114195   4.112   2.987   2.668
 4625SOL    HW214196   4.157   2.986   2.510
 4626SOL     OW14197   4.995   3.659   2.453
 4626SOL    HW114198   5.039   3.723   2.389
 4626SOL    HW214199   4.945   3.711   2.523
 4627SOL     OW14200   4.756   2.411   1.878
 4627SOL    HW114201   4.715   2.493   1.839
 4627SOL    HW214202   4.820   2.437   1.951
 4628SOL     OW14203   3.802   2.418   3.248
 4628SOL    HW114204   3.894   2.417   3.207
 4628SOL    HW214205   3.796   2.492   3.315
 4629SOL     OW14206   4.285   2.084   3.009
 4629SOL    HW114207   4.323   2.000   3.046
 4629SOL    HW214208   4.197   2.103   3.053
 4630SOL     OW14209   4.590   2.316   2.504
 4630SOL    HW114210   4.558   2.388   2.442
 4630SOL    HW214211   4.614   2.235   2.451
 4631SOL     OW14212   4.741   1.901   2.615
 4631SOL    HW114213   4.669   1.906   2.546
 4631SOL    HW214214   4.717   1.832   2.684
 4632SOL     OW14215   5.153   3.035   2.729
 4632SOL    HW114216   5.098   2.951   2.722
 4632SOL    HW214217   5.179   3.064   2.637
 4633SOL     OW14218   5.190   2.452   2.854
 4633SOL    HW114219   5.160   2.357   2.861
 4633SOL    HW214220   5.263   2.468   2.920
 4634SOL     OW14221   5.581   2.695   2.239
 4634SOL    HW114222   5.623   2.631   2.303
 4634SOL    HW214223   5.543   2.644   2.161
 4635SOL     OW14224   4.212   3.247   2.036
 4635SOL    HW114225   4.125   3.232   2.083
 4635SOL    HW214226   4.195   3.273   1.941
 4636SOL     OW14227   5.388   3.142   2.519
 4636SOL    HW114228   5.487   3.150   2.533
 4636SOL    HW214229   5.343   3.226   2.550
 4637SOL     OW14230   5.114   2.437   1.940
 4637SOL    HW114231   5.060   2.416   2.021
 4637SOL    HW214232   5.205   2.396   1.949
 4638SOL     OW14233   4.251   2.118   2.190
 4638SOL    HW114234   4.278   2.059   2.115
 4638SOL    HW214235   4.251   2.213   2.159
 4639SOL     OW14236   5.478   3.085   3.450
 4639SOL    HW114237   5.569   3.046   3.437
 4639SOL    HW214238   5.486   3.181   3.474
 4640SOL     OW14239   4.788   3.209   3.202
 4640SOL    HW114240   4.708   3.186   3.257
 4640SOL    HW214241   4.871   3.183   3.251
 4641SOL     OW14242   5.316   3.491   3.487
 4641SOL    HW114243   5.343   3.525   3.397
 4641SOL    HW214244   5.395   3.453   3.533
 4642SOL     OW14245   4.835   3.057   2.962
 4642SOL    HW114246   4.795   3.101   3.043
 4642SOL    HW214247   4.794   3.094   2.879
 4643SOL     OW14248   5.362   2.961   2.941
 4643SOL    HW114249   5.367   3.042   3.000
 4643SOL    HW214250   5.276   2.963   2.890
 4644SOL     OW14251   4.639   1.951   3.264
 4644SOL    HW114252   4.664   1.931   3.169
 4644SOL    HW214253   4.711   2.007   3.306
 4645SOL     OW14254   4.704   2.978   3.581
 4645SOL    HW114255   4.605   2.984   3.591
 4645SOL    HW214256   4.727   2.898   3.525
 4646SOL     OW14257   4.429   2.912   2.230
 4646SOL    HW114258   4.415   2.919   2.329
 4646SOL    HW214259   4.513   2.861   2.212
 4647SOL     OW14260   4.134   2.675   3.113
 4647SOL    HW114261   4.220   2.687   3.163
 4647SOL    HW214262   4.092   2.588   3.140
 4648SOL     OW14263   4.998   2.248   3.124
 4648SOL    HW114264   5.019   2.322   3.188
 4648SOL    HW214265   4.909   2.265   3.081
 4649SOL     OW14266   3.788   3.426   3.193
 4649SOL    HW114267   3.742   3.508   3.159
 4649SOL    HW214268   3.886   3.445   3.202
 4650SOL     OW14269   4.091   2.962   2.363
 4650SOL    HW114270   4.084   3.045   2.307
 4650SOL    HW214271   4.095   2.882   2.303
 4651SOL     OW14272   4.290   2.399   2.727
 4651SOL    HW114273   4.302   2.465   2.653
 4651SOL    HW214274   4.336   2.433   2.810
 4652SOL     OW14275   4.976   3.210   2.250
 4652SOL    HW114276   5.026   3.287   2.290
 4652SOL    HW214277   4.881   3.212   2.282
 4653SOL     OW14278   4.996   3.307   3.004
 4653SOL    HW114279   5.043   3.320   3.091
 4653SOL    HW214280   4.930   3.233   3.013
 4654SOL     OW14281   5.306   2.501   2.334
 4654SOL    HW114282   5.275   2.562   2.407
 4654SOL    HW214283   5.356   2.553   2.265
 4655SOL     OW14284   4.078   3.372   3.191
 4655SOL    HW114285   4.057   3.328   3.104
 4655SOL    HW214286   4.175   3.398   3.194
 4656SOL     OW14287   4.126   2.613   3.460
 4656SOL    HW114288   4.194   2.668   3.413
 4656SOL    HW214289   4.166   2.525   3.487
 4657SOL     OW14290   5.311   2.641   3.532
 4657SOL    HW114291   5.219   2.679   3.527
 4657SOL    HW214292   5.371   2.688   3.467
 4658SOL     OW14293   4.737   1.967   3.632
 4658SOL    HW114294   4.743   2.052   3.580
 4658SOL    HW214295   4.769   1.891   3.575
 4659SOL     OW14296   4.228   1.912   3.602
 4659SOL    HW114297   4.186   1.855   3.532
 4659SOL    HW214298   4.162   1.981   3.634
 4660SOL     OW14299   4.297   2.732   2.891
 4660SOL    HW114300   4.341   2.821   2.882
 4660SOL    HW214301   4.234   2.732   2.968
 4661SOL     OW14302   5.084   2.724   2.907
 4661SOL    HW114303   5.009   2.724   2.841
 4661SOL    HW214304   5.121   2.632   2.916
 4662SOL     OW14305   4.933   2.387   2.137
 4662SOL    HW114306   4.946   2.303   2.191
 4662SOL    HW214307   4.904   2.461   2.197
 4663SOL     OW14308   4.031   2.075   3.093
 4663SOL    HW114309   4.008   2.112   3.183
 4663SOL    HW214310   4.001   1.980   3.087
 4664SOL     OW14311   3.761   3.172   3.144
 4664SOL    HW114312   3.814   3.123   3.212
 4664SOL    HW214313   3.783   3.270   3.149
 4665SOL     OW14314   4.456   2.496   2.926
 4665SOL    HW114315   4.515   2.470   2.850
 4665SOL    HW214316   4.428   2.592   2.915
 4666SOL     OW14317   5.452   2.797   3.716
 4666SOL    HW114318   5.406   2.790   3.627
 4666SOL    HW214319   5.390   2.841   3.782
 4667SOL     OW14320   4.031   1.925   2.480
 4667SOL    HW114321   4.020   2.019   2.513
 4667SOL    HW214322   4.026   1.862   2.557
 4668SOL     OW14323   5.346   2.229   2.236
 4668SOL    HW114324   5.348   2.153   2.300
 4668SOL    HW214325   5.298   2.306   2.276
 4669SOL     OW14326   4.747   2.628   2.828
 4669SOL    HW114327   4.762   2.649   2.924
 4669SOL    HW214328   4.717   2.533   2.819
 4670SOL     OW14329   4.704   3.435   3.562
 4670SOL    HW114330   4.684   3.479   3.474
 4670SOL    HW214331   4.743   3.344   3.546
 4671SOL     OW14332   5.583   3.380   3.467
 4671SOL    HW114333   5.597   3.407   3.372
 4671SOL    HW214334   5.666   3.402   3.520
 4672SOL     OW14335   4.074   2.760   3.666
 4672SOL    HW114336   4.150   2.804   3.714
 4672SOL    HW214337   4.109   2.713   3.584
 4673SOL     OW14338   5.264   2.136   1.987
 4673SOL    HW114339   5.203   2.061   2.010
 4673SOL    HW214340   5.286   2.188   2.070
 4674SOL     OW14341   5.027   2.700   1.904
 4674SOL    HW114342   5.061   2.607   1.919
 4674SOL    HW214343   5.045   2.727   1.809
 4675SOL     OW14344   4.792   3.195   2.711
 4675SOL    HW114345   4.799   3.111   2.656
 4675SOL    HW214346   4.854   3.264   2.675
 4676SOL     OW14347   4.043   2.672   2.811
 4676SOL    HW114348   4.136   2.708   2.816
 4676SOL    HW214349   4.037   2.587   2.863
 4677SOL     OW14350   4.063   2.371   2.868
 4677SOL    HW114351   4.011   2.288   2.851
 4677SOL    HW214352   4.140   2.376   2.804
 4678SOL     OW14353   4.862   2.242   3.540
 4678SOL    HW114354   4.817   2.305   3.604
 4678SOL    HW214355   4.955   2.273   3.523
 4679SOL     OW14356   4.884   2.069   3.339
 4679SOL    HW114357   4.884   2.133   3.416
 4679SOL    HW214358   4.912   2.117   3.256
 4680SOL     OW14359   3.732   3.188   2.062
 4680SOL    HW114360   3.639   3.209   2.031
 4680SOL    HW214361   3.742   3.089   2.075
 4681SOL     OW14362   3.812   3.663   2.789
 4681SOL    HW114363   3.770   3.577   2.762
 4681SOL    HW214364   3.906   3.666   2.755
 4682SOL     OW14365   4.228   3.430   2.772
 4682SOL    HW114366   4.294   3.504   2.781
 4682SOL    HW214367   4.272   3.351   2.730
 4683SOL     OW14368   4.726   2.658   3.100
 4683SOL    HW114369   4.767   2.626   3.186
 4683SOL    HW214370   4.630   2.631   3.097
 4684SOL     OW14371   3.764   2.406   2.976
 4684SOL    HW114372   3.849   2.373   2.935
 4684SOL    HW214373   3.777   2.421   3.074
 4685SOL     OW14374   3.913   2.382   3.584
 4685SOL    HW114375   3.972   2.342   3.514
 4685SOL    HW214376   3.855   2.453   3.543
 4686SOL     OW14377   5.093   2.812   3.522
 4686SOL    HW114378   5.132   2.901   3.542
 4686SOL    HW214379   5.103   2.792   3.425
 4687SOL     OW14380   4.539   2.434   2.187
 4687SOL    HW114381   4.546   2.345   2.141
 4687SOL    HW214382   4.445   2.468   2.179
 4688SOL     OW14383   5.381   2.466   3.068
 4688SOL    HW114384   5.343   2.397   3.130
 4688SOL    HW214385   5.463   2.430   3.024
 4689SOL     OW14386   3.976   3.426   3.606
 4689SOL    HW114387   3.946   3.483   3.682
 4689SOL    HW214388   3.969   3.329   3.632
 4690SOL     OW14389   4.395   2.326   3.131
 4690SOL    HW114390   4.361   2.237   3.101
 4690SOL    HW214391   4.421   2.380   3.051
 4691SOL     OW14392   4.654   3.540   3.327
 4691SOL    HW114393   4.630   3.522   3.232
 4691SOL    HW214394   4.684   3.634   3.337
 4692SOL     OW14395   4.197   2.362   2.053
 4692SOL    HW114396   4.258   2.442   2.057
 4692SOL    HW214397   4.102   2.393   2.060
 4693SOL     OW14398   3.883   2.999   3.328
 4693SOL    HW114399   3.905   2.938   3.404
 4693SOL    HW214400   3.893   2.950   3.242
 4694SOL     OW14401   5.071   2.921   3.096
 4694SOL    HW114402   5.095   2.858   3.022
 4694SOL    HW214403   4.981   2.961   3.078
 4695SOL     OW14404   5.026   2.717   2.171
 4695SOL    HW114405   4.940   2.686   2.213
 4695SOL    HW214406   5.022   2.703   2.072
 4696SOL     OW14407   5.483   3.609   3.016
 4696SOL    HW114408   5.544   3.639   2.943
 4696SOL    HW214409   5.445   3.520   2.994
 4697SOL     OW14410   4.976   3.593   2.990
 4697SOL    HW114411   5.060   3.598   2.936
 4697SOL    HW214412   4.953   3.497   3.008
 4698SOL     OW14413   3.807   3.120   2.884
 4698SOL    HW114414   3.802   3.119   2.984
 4698SOL    HW214415   3.724   3.079   2.846
 4699SOL     OW14416   4.412   3.524   3.578
 4699SOL    HW114417   4.356   3.605   3.587
 4699SOL    HW214418   4.464   3.528   3.492
 4700SOL     OW14419   5.450   1.997   2.385
 4700SOL    HW114420   5.523   1.980   2.318
 4700SOL    HW214421   5.419   1.910   2.423
 4701SOL     OW14422   5.112   3.435   2.339
 4701SOL    HW114423   5.179   3.447   2.265
 4701SOL    HW214424   5.072   3.524   2.362
 4702SOL     OW14425   3.854   3.656   3.713
 4702SOL    HW114426   3.813   3.582   3.766
 4702SOL    HW214427   3.918   3.707   3.771
 4703SOL     OW14428   5.004   2.789   2.534
 4703SOL    HW114429   5.064   2.708   2.536
 4703SOL    HW214430   5.044   2.858   2.474
 4704SOL     OW14431   4.396   3.478   2.016
 4704SOL    HW114432   4.405   3.488   1.917
 4704SOL    HW214433   4.356   3.389   2.037
 4705SOL     OW14434   5.374   3.582   3.256
 4705SOL    HW114435   5.427   3.592   3.172
 4705SOL    HW214436   5.347   3.672   3.290
 4706SOL     OW14437   3.987   2.188   2.582
 4706SOL    HW114438   3.908   2.239   2.548
 4706SOL    HW214439   3.978   2.173   2.680
 4707SOL     OW14440   4.918   3.474   1.893
 4707SOL    HW114441   4.924   3.381   1.930
 4707SOL    HW214442   4.859   3.474   1.813
 4708SOL     OW14443   4.546   2.864   3.234
 4708SOL    HW114444   4.586   2.863   3.142
 4708SOL    HW214445   4.556   2.956   3.274
 4709SOL     OW14446   4.640   2.772   2.153
 4709SOL    HW114447   4.703   2.810   2.085
 4709SOL    HW214448   4.680   2.689   2.192
 4710SOL     OW14449   5.228   3.469   1.906
 4710SOL    HW114450   5.136   3.506   1.913
 4710SOL    HW214451   5.266   3.489   1.816
 4711SOL     OW14452   4.096   3.150   3.352
 4711SOL    HW114453   4.083   3.243   3.318
 4711SOL    HW214454   4.012   3.098   3.339
 4712SOL     OW14455   5.338   3.154   3.151
 4712SOL    HW114456   5.398   3.157   3.231
 4712SOL    HW214457   5.263   3.218   3.164
 4713SOL     OW14458   4.763   2.960   2.558
 4713SOL    HW114459   4.693   2.913   2.612
 4713SOL    HW214460   4.822   2.892   2.515
 4714SOL     OW14461   4.738   2.098   2.833
 4714SOL    HW114462   4.730   2.062   2.740
 4714SOL    HW214463   4.736   2.022   2.898
 4715SOL     OW14464   4.314   3.349   2.353
 4715SOL    HW114465   4.356   3.291   2.283
 4715SOL    HW214466   4.270   3.428   2.309
 4716SOL     OW14467   5.433   2.247   3.243
 4716SOL    HW114468   5.506   2.316   3.247
 4716SOL    HW214469   5.461   2.172   3.184
 4717SOL     OW14470   3.979   3.210   2.152
 4717SOL    HW114471   3.883   3.211   2.125
 4717SOL    HW214472   3.991   3.263   2.236
 4718SOL     OW14473   3.829   2.875   3.588
 4718SOL    HW114474   3.752   2.842   3.642
 4718SOL    HW214475   3.914   2.845   3.630
 4719SOL     OW14476   4.396   2.065   3.351
 4719SOL    HW114477   4.486   2.049   3.311
 4719SOL    HW214478   4.404   2.070   3.450
 4720SOL     OW14479   3.799   2.207   1.895
 4720SOL    HW114480   3.707   2.179   1.866
 4720SOL    HW214481   3.830   2.284   1.839
 4721SOL     OW14482   5.164   2.718   3.260
 4721SOL    HW114483   5.107   2.770   3.197
 4721SOL    HW214484   5.260   2.730   3.236
 4722SOL     OW14485   3.796   2.028   2.180
 4722SOL    HW114486   3.779   2.111   2.126
 4722SOL    HW214487   3.886   1.991   2.158
 4723SOL     OW14488   4.907   3.197   1.981
 4723SOL    HW114489   4.808   3.186   1.983
 4723SOL    HW214490   4.941   3.212   2.074
 4724SOL     OW14491   4.337   2.704   3.293
 4724SOL    HW114492   4.393   2.785   3.276
 4724SOL    HW214493   4.396   2.624   3.296
 4725SOL     OW14494   5.217   3.629   2.821
 4725SOL    HW114495   5.250   3.693   2.752
 4725SOL    HW214496   5.283   3.623   2.896
 4726SOL     OW14497   4.440   2.427   3.570
 4726SOL    HW114498   4.459   2.492   3.644
 4726SOL    HW214499   4.500   2.347   3.579
 4727SOL     OW14500   5.174   3.082   3.495
 4727SOL    HW114501   5.165   3.072   3.594
 4727SOL    HW214502   5.270   3.075   3.469
 4728SOL     OW14503   4.114   3.603   3.422
 4728SOL    HW114504   4.023   3.644   3.420
 4728SOL    HW214505   4.107   3.509   3.454
 4729SOL     OW14506   5.398   2.745   3.116
 4729SOL    HW114507   5.371   2.656   3.079
 4729SOL    HW214508   5.399   2.813   3.043
 4730SOL     OW14509   4.949   2.187   2.311
 4730SOL    HW114510   5.014   2.113   2.300
 4730SOL    HW214511   4.969   2.237   2.395
 4731SOL     OW14512   4.318   2.607   2.514
 4731SOL    HW114513   4.368   2.692   2.495
 4731SOL    HW214514   4.230   2.609   2.466
 4732SOL     OW14515   5.501   2.204   3.504
 4732SOL    HW114516   5.484   2.235   3.410
 4732SOL    HW214517   5.417   2.167   3.542
 4733SOL     OW14518   5.454   2.796   3.379
 4733SOL    HW114519   5.492   2.887   3.394
 4733SOL    HW214520   5.446   2.779   3.280
 4734SOL     OW14521   4.583   3.236   1.878
 4734SOL    HW114522   4.537   3.251   1.966
 4734SOL    HW214523   4.627   3.321   1.848
 4735SOL     OW14524   4.385   3.652   2.815
 4735SOL    HW114525   4.339   3.740   2.802
 4735SOL    HW214526   4.484   3.664   2.808
 4736SOL     OW14527   4.583   2.818   2.723
 4736SOL    HW114528   4.637   2.749   2.771
 4736SOL    HW214529   4.551   2.887   2.789
 4737SOL     OW14530   4.807   2.846   1.949
 4737SOL    HW114531   4.784   2.899   1.867
 4737SOL    HW214532   4.888   2.790   1.930
 4738SOL     OW14533   5.585   3.431   2.713
 4738SOL    HW114534   5.514   3.419   2.643
 4738SOL    HW214535   5.586   3.352   2.773
 4739SOL     OW14536   3.945   3.176   3.706
 4739SOL    HW114537   3.880   3.103   3.685
 4739SOL    HW214538   3.949   3.190   3.804
 4740SOL     OW14539   3.803   3.102   2.515
 4740SOL    HW114540   3.802   3.055   2.603
 4740SOL    HW214541   3.885   3.074   2.464
 4741SOL     OW14542   4.396   3.253   3.486
 4741SOL    HW114543   4.318   3.203   3.524
 4741SOL    HW214544   4.393   3.348   3.517
 4742SOL     OW14545   5.548   2.054   3.089
 4742SOL    HW114546   5.544   1.964   3.133
 4742SOL    HW214547   5.551   2.043   2.990
 4743SOL     OW14548   4.152   2.286   2.382
 4743SOL    HW114549   4.182   2.214   2.320
 4743SOL    HW214550   4.113   2.246   2.465
 4744SOL     OW14551   5.429   3.349   2.966
 4744SOL    HW114552   5.336   3.324   2.939
 4744SOL    HW214553   5.455   3.299   3.048
 4745SOL     OW14554   4.041   2.409   3.142
 4745SOL    HW114555   4.079   2.350   3.214
 4745SOL    HW214556   4.081   2.383   3.054
 4746SOL     OW14557   4.536   3.448   2.549
 4746SOL    HW114558   4.568   3.458   2.455
 4746SOL    HW214559   4.457   3.386   2.551
 4747SOL     OW14560   5.148   2.076   2.974
 4747SOL    HW114561   5.200   2.011   3.029
 4747SOL    HW214562   5.099   2.139   3.035
 4748SOL     OW14563   4.725   1.896   3.016
 4748SOL    HW114564   4.662   1.824   2.985
 4748SOL    HW214565   4.818   1.860   3.016
 4749SOL     OW14566   4.494   3.192   2.163
 4749SOL    HW114567   4.448   3.105   2.180
 4749SOL    HW214568   4.585   3.189   2.204
 4750SOL     OW14569   4.342   3.429   3.146
 4750SOL    HW114570   4.337   3.511   3.203
 4750SOL    HW214571   4.431   3.426   3.101
 4751SOL     OW14572   5.076   1.914   2.030
 4751SOL    HW114573   5.111   1.873   1.946
 4751SOL    HW214574   4.986   1.876   2.050
 4752SOL     OW14575   5.024   2.315   2.553
 4752SOL    HW114576   4.965   2.395   2.557
 4752SOL    HW214577   5.039   2.280   2.646
 4753SOL     OW14578   5.317   2.083   2.744
 4753SOL    HW114579   5.233   2.082   2.798
 4753SOL    HW214580   5.319   2.166   2.688
 4754SOL     OW14581   3.763   2.939   2.162
 4754SOL    HW114582   3.862   2.928   2.153
 4754SOL    HW214583   3.723   2.853   2.194
 4755SOL     OW14584   4.599   3.508   2.199
 4755SOL    HW114585   4.522   3.473   2.145
 4755SOL    HW214586   4.567   3.579   2.261
 4756SOL     OW14587   3.954   2.490   3.837
 4756SOL    HW114588   3.861   2.488   3.874
 4756SOL    HW214589   3.955   2.451   3.745
 4757SOL     OW14590   3.743   2.230   4.371
 4757SOL    HW114591   3.661   2.273   4.410
 4757SOL    HW214592   3.715   2.157   4.308
 4758SOL     OW14593   4.293   3.137   4.889
 4758SOL    HW114594   4.200   3.130   4.852
 4758SOL    HW214595   4.304   3.226   4.933
 4759SOL     OW14596   5.279   3.373   4.427
 4759SOL    HW114597   5.222   3.357   4.508
 4759SOL    HW214598   5.220   3.383   4.347
 4760SOL     OW14599   4.859   2.565   4.441
 4760SOL    HW114600   4.916   2.643   4.416
 4760SOL    HW214601   4.799   2.591   4.517
 4761SOL     OW14602   5.479   2.469   3.955
 4761SOL    HW114603   5.467   2.456   3.856
 4761SOL    HW214604   5.449   2.388   4.004
 4762SOL     OW14605   4.492   3.006   4.747
 4762SOL    HW114606   4.414   3.023   4.807
 4762SOL    HW214607   4.526   3.093   4.711
 4763SOL     OW14608   4.574   2.660   5.547
 4763SOL    HW114609   4.570   2.736   5.612
 4763SOL    HW214610   4.596   2.696   5.456
 4764SOL     OW14611   4.409   2.874   4.389
 4764SOL    HW114612   4.478   2.858   4.459
 4764SOL    HW214613   4.336   2.931   4.427
 4765SOL     OW14614   4.410   3.023   5.527
 4765SOL    HW114615   4.470   3.102   5.541
 4765SOL    HW214616   4.324   3.054   5.486
 4766SOL     OW14617   4.059   3.297   4.785
 4766SOL    HW114618   3.981   3.266   4.732
 4766SOL    HW214619   4.117   3.355   4.728
 4767SOL     OW14620   5.184   3.367   5.063
 4767SOL    HW114621   5.208   3.461   5.089
 4767SOL    HW214622   5.168   3.313   5.145
 4768SOL     OW14623   4.162   2.254   5.223
 4768SOL    HW114624   4.244   2.198   5.232
 4768SOL    HW214625   4.081   2.196   5.227
 4769SOL     OW14626   5.327   2.309   4.461
 4769SOL    HW114627   5.253   2.355   4.411
 4769SOL    HW214628   5.378   2.377   4.514
 4770SOL     OW14629   3.955   3.575   4.207
 4770SOL    HW114630   3.989   3.652   4.261
 4770SOL    HW214631   3.999   3.575   4.117
 4771SOL     OW14632   4.851   3.203   5.414
 4771SOL    HW114633   4.898   3.203   5.502
 4771SOL    HW214634   4.803   3.116   5.403
 4772SOL     OW14635   3.954   3.296   4.262
 4772SOL    HW114636   3.928   3.392   4.262
 4772SOL    HW214637   3.883   3.242   4.307
 4773SOL     OW14638   3.964   2.953   4.610
 4773SOL    HW114639   3.978   2.869   4.662
 4773SOL    HW214640   3.909   3.017   4.665
 4774SOL     OW14641   4.344   3.648   5.163
 4774SOL    HW114642   4.252   3.631   5.198
 4774SOL    HW214643   4.372   3.740   5.189
 4775SOL     OW14644   4.330   2.826   3.847
 4775SOL    HW114645   4.337   2.910   3.793
 4775SOL    HW214646   4.376   2.839   3.935
 4776SOL     OW14647   5.318   1.976   5.204
 4776SOL    HW114648   5.300   2.043   5.132
 4776SOL    HW214649   5.315   2.022   5.293
 4777SOL     OW14650   3.846   2.505   4.287
 4777SOL    HW114651   3.801   2.417   4.304
 4777SOL    HW214652   3.845   2.559   4.371
 4778SOL     OW14653   5.566   3.629   4.083
 4778SOL    HW114654   5.620   3.600   4.163
 4778SOL    HW214655   5.596   3.719   4.054
 4779SOL     OW14656   3.751   3.458   3.841
 4779SOL    HW114657   3.732   3.362   3.862
 4779SOL    HW214658   3.718   3.516   3.916
 4780SOL     OW14659   5.413   2.784   4.336
 4780SOL    HW114660   5.508   2.755   4.344
 4780SOL    HW214661   5.405   2.849   4.261
 4781SOL     OW14662   5.365   2.970   4.156
 4781SOL    HW114663   5.451   2.972   4.104
 4781SOL    HW214664   5.379   3.017   4.244
 4782SOL     OW14665   3.837   2.599   5.321
 4782SOL    HW114666   3.925   2.586   5.366
 4782SOL    HW214667   3.824   2.696   5.299
 4783SOL     OW14668   4.337   3.227   4.450
 4783SOL    HW114669   4.288   3.140   4.459
 4783SOL    HW214670   4.314   3.270   4.363
 4784SOL     OW14671   5.017   3.090   5.147
 4784SOL    HW114672   5.054   3.017   5.089
 4784SOL    HW214673   5.069   3.095   5.232
 4785SOL     OW14674   4.533   1.866   4.226
 4785SOL    HW114675   4.573   1.957   4.217
 4785SOL    HW214676   4.433   1.874   4.232
 4786SOL     OW14677   3.921   2.838   4.988
 4786SOL    HW114678   4.010   2.793   4.974
 4786SOL    HW214679   3.848   2.773   4.969
 4787SOL     OW14680   5.249   2.861   3.914
 4787SOL    HW114681   5.186   2.785   3.927
 4787SOL    HW214682   5.297   2.879   4.000
 4788SOL     OW14683   4.911   3.654   5.340
 4788SOL    HW114684   4.935   3.714   5.264
 4788SOL    HW214685   4.918   3.559   5.310
 4789SOL     OW14686   4.041   2.113   5.525
 4789SOL    HW114687   4.112   2.184   5.531
 4789SOL    HW214688   3.953   2.152   5.553
 4790SOL     OW14689   5.190   3.279   4.677
 4790SOL    HW114690   5.131   3.285   4.757
 4790SOL    HW214691   5.175   3.191   4.631
 4791SOL     OW14692   5.391   3.576   4.296
 4791SOL    HW114693   5.350   3.553   4.208
 4791SOL    HW214694   5.373   3.502   4.361
 4792SOL     OW14695   4.322   2.591   3.994
 4792SOL    HW114696   4.346   2.660   3.926
 4792SOL    HW214697   4.244   2.624   4.048
 4793SOL     OW14698   5.005   2.207   4.668
 4793SOL    HW114699   4.919   2.157   4.655
 4793SOL    HW214700   5.067   2.153   4.724
 4794SOL     OW14701   5.300   3.524   4.031
 4794SOL    HW114702   5.389   3.570   4.034
 4794SOL    HW214703   5.279   3.500   3.936
 4795SOL     OW14704   4.531   2.467   5.189
 4795SOL    HW114705   4.484   2.464   5.278
 4795SOL    HW214706   4.480   2.412   5.123
 4796SOL     OW14707   5.118   2.331   5.398
 4796SOL    HW114708   5.098   2.374   5.486
 4796SOL    HW214709   5.196   2.269   5.407
 4797SOL     OW14710   4.697   2.752   5.296
 4797SOL    HW114711   4.743   2.668   5.267
 4797SOL    HW214712   4.641   2.786   5.221
 4798SOL     OW14713   4.715   2.272   4.966
 4798SOL    HW114714   4.638   2.306   5.020
 4798SOL    HW214715   4.681   2.221   4.887
 4799SOL     OW14716   4.765   2.563   4.153
 4799SOL    HW114717   4.791   2.559   4.249
 4799SOL    HW214718   4.680   2.512   4.139
 4800SOL     OW14719   3.800   2.673   4.513
 4800SOL    HW114720   3.899   2.661   4.522
 4800SOL    HW214721   3.776   2.768   4.534
 4801SOL     OW14722   3.854   3.683   5.295
 4801SOL    HW114723   3.844   3.668   5.394
 4801SOL    HW214724   3.768   3.719   5.259
 4802SOL     OW14725   4.589   2.210   3.919
 4802SOL    HW114726   4.648   2.273   3.870
 4802SOL    HW214727   4.608   2.116   3.890
 4803SOL     OW14728   5.443   2.447   5.555
 4803SOL    HW114729   5.417   2.536   5.519
 4803SOL    HW214730   5.441   2.379   5.482
 4804SOL     OW14731   5.086   3.006   4.269
 4804SOL    HW114732   5.169   2.977   4.221
 4804SOL    HW214733   5.037   3.073   4.213
 4805SOL     OW14734   4.274   2.058   4.609
 4805SOL    HW114735   4.269   2.053   4.709
 4805SOL    HW214736   4.276   2.154   4.580
 4806SOL     OW14737   4.732   3.318   4.201
 4806SOL    HW114738   4.686   3.390   4.149
 4806SOL    HW214739   4.728   3.338   4.299
 4807SOL     OW14740   4.075   3.663   4.577
 4807SOL    HW114741   4.125   3.577   4.583
 4807SOL    HW214742   4.140   3.740   4.574
 4808SOL     OW14743   5.519   2.928   4.597
 4808SOL    HW114744   5.457   2.913   4.521
 4808SOL    HW214745   5.467   2.939   4.682
 4809SOL     OW14746   4.951   3.412   5.230
 4809SOL    HW114747   4.957   3.335   5.294
 4809SOL    HW214748   4.899   3.386   5.150
 4810SOL     OW14749   4.045   2.805   3.966
 4810SOL    HW114750   4.127   2.844   3.924
 4810SOL    HW214751   4.018   2.723   3.917
 4811SOL     OW14752   5.182   2.597   4.452
 4811SOL    HW114753   5.177   2.532   4.527
 4811SOL    HW214754   5.262   2.656   4.465
 4812SOL     OW14755   4.185   3.128   5.451
 4812SOL    HW114756   4.135   3.129   5.365
 4812SOL    HW214757   4.122   3.110   5.527
 4813SOL     OW14758   4.835   3.638   3.961
 4813SOL    HW114759   4.775   3.576   4.011
 4813SOL    HW214760   4.866   3.594   3.876
 4814SOL     OW14761   3.926   2.147   5.222
 4814SOL    HW114762   3.846   2.207   5.209
 4814SOL    HW214763   3.916   2.098   5.308
 4815SOL     OW14764   5.356   3.239   3.805
 4815SOL    HW114765   5.324   3.333   3.795
 4815SOL    HW214766   5.280   3.176   3.793
 4816SOL     OW14767   4.188   3.605   4.047
 4816SOL    HW114768   4.221   3.644   4.133
 4816SOL    HW214769   4.264   3.598   3.982
 4817SOL     OW14770   5.124   1.969   4.150
 4817SOL    HW114771   5.100   1.932   4.060
 4817SOL    HW214772   5.223   1.985   4.154
 4818SOL     OW14773   3.973   3.647   4.965
 4818SOL    HW114774   4.030   3.582   5.015
 4818SOL    HW214775   3.957   3.614   4.872
 4819SOL     OW14776   4.664   3.560   4.628
 4819SOL    HW114777   4.744   3.503   4.649
 4819SOL    HW214778   4.615   3.520   4.551
 4820SOL     OW14779   4.106   2.562   4.204
 4820SOL    HW114780   4.151   2.472   4.201
 4820SOL    HW214781   4.012   2.551   4.237
 4821SOL     OW14782   5.271   2.084   5.453
 4821SOL    HW114783   5.266   2.121   5.545
 4821SOL    HW214784   5.199   2.015   5.441
 4822SOL     OW14785   4.338   1.984   3.841
 4822SOL    HW114786   4.436   1.962   3.848
 4822SOL    HW214787   4.307   1.967   3.748
 4823SOL     OW14788   4.505   2.126   5.473
 4823SOL    HW114789   4.572   2.065   5.516
 4823SOL    HW214790   4.432   2.145   5.538
 4824SOL     OW14791   4.612   3.376   4.919
 4824SOL    HW114792   4.589   3.351   4.825
 4824SOL    HW214793   4.673   3.307   4.958
 4825SOL     OW14794   5.075   2.452   5.157
 4825SOL    HW114795   5.103   2.409   5.242
 4825SOL    HW214796   5.100   2.548   5.158
 4826SOL     OW14797   4.527   3.264   4.648
 4826SOL    HW114798   4.617   3.278   4.606
 4826SOL    HW214799   4.456   3.266   4.577
 4827SOL     OW14800   4.646   2.365   4.623
 4827SOL    HW114801   4.621   2.356   4.527
 4827SOL    HW214802   4.694   2.283   4.654
 4828SOL     OW14803   4.263   1.926   4.236
 4828SOL    HW114804   4.182   1.927   4.294
 4828SOL    HW214805   4.266   2.009   4.181
 4829SOL     OW14806   5.158   3.050   3.765
 4829SOL    HW114807   5.190   2.974   3.822
 4829SOL    HW214808   5.066   3.077   3.795
 4830SOL     OW14809   4.021   1.897   3.895
 4830SOL    HW114810   4.070   1.981   3.874
 4830SOL    HW214811   4.083   1.832   3.940
 4831SOL     OW14812   4.659   2.098   4.204
 4831SOL    HW114813   4.611   2.139   4.126
 4831SOL    HW214814   4.758   2.096   4.185
 4832SOL     OW14815   4.800   2.545   5.188
 4832SOL    HW114816   4.720   2.484   5.191
 4832SOL    HW214817   4.881   2.492   5.164
 4833SOL     OW14818   4.951   3.432   4.517
 4833SOL    HW114819   4.972   3.506   4.452
 4833SOL    HW214820   5.019   3.432   4.590
 4834SOL     OW14821   4.183   3.014   4.465
 4834SOL    HW114822   4.112   2.987   4.530
 4834SOL    HW214823   4.157   2.986   4.372
 4835SOL     OW14824   4.995   3.659   4.315
 4835SOL    HW114825   5.039   3.723   4.251
 4835SOL    HW214826   4.945   3.711   4.385
 4836SOL     OW14827   4.756   2.411   3.740
 4836SOL    HW114828   4.715   2.493   3.701
 4836SOL    HW214829   4.820   2.437   3.813
 4837SOL     OW14830   3.802   2.418   5.110
 4837SOL    HW114831   3.894   2.417   5.069
 4837SOL    HW214832   3.796   2.492   5.177
 4838SOL     OW14833   4.285   2.084   4.871
 4838SOL    HW114834   4.323   2.000   4.908
 4838SOL    HW214835   4.197   2.103   4.915
 4839SOL     OW14836   4.590   2.316   4.366
 4839SOL    HW114837   4.558   2.388   4.304
 4839SOL    HW214838   4.614   2.235   4.313
 4840SOL     OW14839   4.741   1.901   4.477
 4840SOL    HW114840   4.669   1.906   4.408
 4840SOL    HW214841   4.717   1.832   4.546
 4841SOL     OW14842   5.153   3.035   4.591
 4841SOL    HW114843   5.098   2.951   4.584
 4841SOL    HW214844   5.179   3.064   4.499
 4842SOL     OW14845   5.190   2.452   4.716
 4842SOL    HW114846   5.160   2.357   4.723
 4842SOL    HW214847   5.263   2.468   4.782
 4843SOL     OW14848   5.581   2.695   4.101
 4843SOL    HW114849   5.623   2.631   4.165
 4843SOL    HW214850   5.543   2.644   4.023
 4844SOL     OW14851   4.212   3.247   3.898
 4844SOL    HW114852   4.125   3.232   3.945
 4844SOL    HW214853   4.195   3.273   3.803
 4845SOL     OW14854   5.388   3.142   4.381
 4845SOL    HW114855   5.487   3.150   4.395
 4845SOL    HW214856   5.343   3.226   4.412
 4846SOL     OW14857   5.114   2.437   3.802
 4846SOL    HW114858   5.060   2.416   3.883
 4846SOL    HW214859   5.205   2.396   3.811
 4847SOL     OW14860   4.251   2.118   4.052
 4847SOL    HW114861   4.278   2.059   3.977
 4847SOL    HW214862   4.251   2.213   4.021
 4848SOL     OW14863   5.478   3.085   5.312
 4848SOL    HW114864   5.569   3.046   5.299
 4848SOL    HW214865   5.486   3.181   5.336
 4849SOL     OW14866   4.788   3.209   5.064
 4849SOL    HW114867   4.708   3.186   5.119
 4849SOL    HW214868   4.871   3.183   5.113
 4850SOL     OW14869   5.316   3.491   5.349
 4850SOL    HW114870   5.343   3.525   5.259
 4850SOL    HW214871   5.395   3.453   5.395
 4851SOL     OW14872   4.835   3.057   4.824
 4851SOL    HW114873   4.795   3.101   4.905
 4851SOL    HW214874   4.794   3.094   4.741
 4852SOL     OW14875   5.362   2.961   4.803
 4852SOL    HW114876   5.367   3.042   4.862
 4852SOL    HW214877   5.276   2.963   4.752
 4853SOL     OW14878   4.639   1.951   5.126
 4853SOL    HW114879   4.664   1.931   5.031
 4853SOL    HW214880   4.711   2.007   5.168
 4854SOL     OW14881   4.704   2.978   5.443
 4854SOL    HW114882   4.605   2.984   5.453
 4854SOL    HW214883   4.727   2.898   5.387
 4855SOL     OW14884   4.429   2.912   4.092
 4855SOL    HW114885   4.415   2.919   4.191
 4855SOL    HW214886   4.513   2.861   4.074
 4856SOL     OW14887   4.134   2.675   4.975
 4856SOL    HW114888   4.220   2.687   5.025
 4856SOL    HW214889   4.092   2.588   5.002
 4857SOL     OW14890   4.998   2.248   4.986
 4857SOL    HW114891   5.019   2.322   5.050
 4857SOL    HW214892   4.909   2.265   4.943
 4858SOL     OW14893   3.788   3.426   5.055
 4858SOL    HW114894   3.742   3.508   5.021
 4858SOL    HW214895   3.886   3.445   5.064
 4859SOL     OW14896   4.091   2.962   4.225
 4859SOL    HW114897   4.084   3.045   4.169
 4859SOL    HW214898   4.095   2.882   4.165
 4860SOL     OW14899   4.290   2.399   4.589
 4860SOL    HW114900   4.302   2.465   4.515
 4860SOL    HW214901   4.336   2.433   4.672
 4861SOL     OW14902   4.976   3.210   4.112
 4861SOL    HW114903   5.026   3.287   4.152
 4861SOL    HW214904   4.881   3.212   4.144
 4862SOL     OW14905   4.996   3.307   4.866
 4862SOL    HW114906   5.043   3.320   4.953
 4862SOL    HW214907   4.930   3.233   4.875
 4863SOL     OW14908   5.306   2.501   4.196
 4863SOL    HW114909   5.275   2.562   4.269
 4863SOL    HW214910   5.356   2.553   4.127
 4864SOL     OW14911   4.078   3.372   5.053
 4864SOL    HW114912   4.057   3.328   4.966
 4864SOL    HW214913   4.175   3.398   5.056
 4865SOL     OW14914   4.126   2.613   5.322
 4865SOL    HW114915   4.194   2.668   5.275
 4865SOL    HW214916   4.166   2.525   5.349
 4866SOL     OW14917   5.311   2.641   5.394
 4866SOL    HW114918   5.219   2.679   5.389
 4866SOL    HW214919   5.371   2.688   5.329
 4867SOL     OW14920   4.737   1.967   5.494
 4867SOL    HW114921   4.743   2.052   5.442
 4867SOL    HW214922   4.769   1.891   5.437
 4868SOL     OW14923   4.228   1.912   5.464
 4868SOL    HW114924   4.186   1.855   5.394
 4868SOL    HW214925   4.162   1.981   5.496
 4869SOL     OW14926   4.297   2.732   4.753
 4869SOL    HW114927   4.341   2.821   4.744
 4869SOL    HW214928   4.234   2.732   4.830
 4870SOL     OW14929   5.084   2.724   4.769
 4870SOL    HW114930   5.009   2.724   4.703
 4870SOL    HW214931   5.121   2.632   4.778
 4871SOL     OW14932   4.933   2.387   3.999
 4871SOL    HW114933   4.946   2.303   4.053
 4871SOL    HW214934   4.904   2.461   4.059
 4872SOL     OW14935   4.031   2.075   4.955
 4872SOL    HW114936   4.008   2.112   5.045
 4872SOL    HW214937   4.001   1.980   4.949
 4873SOL     OW14938   3.761   3.172   5.006
 4873SOL    HW114939   3.814   3.123   5.074
 4873SOL    HW214940   3.783   3.270   5.011
 4874SOL     OW14941   4.456   2.496   4.788
 4874SOL    HW114942   4.515   2.470   4.712
 4874SOL    HW214943   4.428   2.592   4.777
 4875SOL     OW14944   5.452   2.797   5.578
 4875SOL    HW114945   5.406   2.790   5.489
 4875SOL    HW214946   5.390   2.841   5.644
 4876SOL     OW14947   4.031   1.925   4.342
 4876SOL    HW114948   4.020   2.019   4.375
 4876SOL    HW214949   4.026   1.862   4.419
 4877SOL     OW14950   5.346   2.229   4.098
 4877SOL    HW114951   5.348   2.153   4.162
 4877SOL    HW214952   5.298   2.306   4.138
 4878SOL     OW14953   4.747   2.628   4.690
 4878SOL    HW114954   4.762   2.649   4.786
 4878SOL    HW214955   4.717   2.533   4.681
 4879SOL     OW14956   4.704   3.435   5.424
 4879SOL    HW114957   4.684   3.479   5.336
 4879SOL    HW214958   4.743   3.344   5.408
 4880SOL     OW14959   5.583   3.380   5.329
 4880SOL    HW114960   5.597   3.407   5.234
 4880SOL    HW214961   5.666   3.402   5.382
 4881SOL     OW14962   4.074   2.760   5.528
 4881SOL    HW114963   4.150   2.804   5.576
 4881SOL    HW214964   4.109   2.713   5.446
 4882SOL     OW14965   5.264   2.136   3.849
 4882SOL    HW114966   5.203   2.061   3.872
 4882SOL    HW214967   5.286   2.188   3.932
 4883SOL     OW14968   5.027   2.700   3.766
 4883SOL    HW114969   5.061   2.607   3.781
 4883SOL    HW214970   5.045   2.727   3.671
 4884SOL     OW14971   4.792   3.195   4.573
 4884SOL    HW114972   4.799   3.111   4.518
 4884SOL    HW214973   4.854   3.264   4.537
 4885SOL     OW14974   4.043   2.672   4.673
 4885SOL    HW114975   4.136   2.708   4.678
 4885SOL    HW214976   4.037   2.587   4.725
 4886SOL     OW14977   4.063   2.371   4.730
 4886SOL    HW114978   4.011   2.288   4.713
 4886SOL    HW214979   4.140   2.376   4.666
 4887SOL     OW14980   4.862   2.242   5.402
 4887SOL    HW114981   4.817   2.305   5.466
 4887SOL    HW214982   4.955   2.273   5.385
 4888SOL     OW14983   4.884   2.069   5.201
 4888SOL    HW114984   4.884   2.133   5.278
 4888SOL    HW214985   4.912   2.117   5.118
 4889SOL     OW14986   3.732   3.188   3.924
 4889SOL    HW114987   3.639   3.209   3.893
 4889SOL    HW214988   3.742   3.089   3.937
 4890SOL     OW14989   3.812   3.663   4.651
 4890SOL    HW114990   3.770   3.577   4.624
 4890SOL    HW214991   3.906   3.666   4.617
 4891SOL     OW14992   4.228   3.430   4.634
 4891SOL    HW114993   4.294   3.504   4.643
 4891SOL    HW214994   4.272   3.351   4.592
 4892SOL     OW14995   4.726   2.658   4.962
 4892SOL    HW114996   4.767   2.626   5.048
 4892SOL    HW214997   4.630   2.631   4.959
 4893SOL     OW14998   3.764   2.406   4.838
 4893SOL    HW114999   3.849   2.373   4.797
 4893SOL    HW215000   3.777   2.421   4.936
 4894SOL     OW15001   3.913   2.382   5.446
 4894SOL    HW115002   3.972   2.342   5.376
 4894SOL    HW215003   3.855   2.453   5.405
 4895SOL     OW15004   5.093   2.812   5.384
 4895SOL    HW115005   5.132   2.901   5.404
 4895SOL    HW215006   5.103   2.792   5.287
 4896SOL     OW15007   4.539   2.434   4.049
 4896SOL    HW115008   4.546   2.345   4.003
 4896SOL    HW215009   4.445   2.468   4.041
 4897SOL     OW15010   5.381   2.466   4.930
 4897SOL    HW115011   5.343   2.397   4.992
 4897SOL    HW215012   5.463   2.430   4.886
 4898SOL     OW15013   3.976   3.426   5.468
 4898SOL    HW115014   3.946   3.483   5.544
 4898SOL    HW215015   3.969   3.329   5.494
 4899SOL     OW15016   4.395   2.326   4.993
 4899SOL    HW115017   4.361   2.237   4.963
 4899SOL    HW215018   4.421   2.380   4.913
 4900SOL     OW15019   4.654   3.540   5.189
 4900SOL    HW115020   4.630   3.522   5.094
 4900SOL    HW215021   4.684   3.634   5.199
 4901SOL     OW15022   4.197   2.362   3.915
 4901SOL    HW115023   4.258   2.442   3.919
 4901SOL    HW215024   4.102   2.393   3.922
 4902SOL     OW15025   3.883   2.999   5.190
 4902SOL    HW115026   3.905   2.938   5.266
 4902SOL    HW215027   3.893   2.950   5.104
 4903SOL     OW15028   5.071   2.921   4.958
 4903SOL    HW115029   5.095   2.858   4.884
 4903SOL    HW215030   4.981   2.961   4.940
 4904SOL     OW15031   5.026   2.717   4.033
 4904SOL    HW115032   4.940   2.686   4.075
 4904SOL    HW215033   5.022   2.703   3.934
 4905SOL     OW15034   5.483   3.609   4.878
 4905SOL    HW115035   5.544   3.639   4.805
 4905SOL    HW215036   5.445   3.520   4.856
 4906SOL     OW15037   4.976   3.593   4.852
 4906SOL    HW115038   5.060   3.598   4.798
 4906SOL    HW215039   4.953   3.497   4.870
 4907SOL     OW15040   3.807   3.120   4.746
 4907SOL    HW115041   3.802   3.119   4.846
 4907SOL    HW215042   3.724   3.079   4.708
 4908SOL     OW15043   4.412   3.524   5.440
 4908SOL    HW115044   4.356   3.605   5.449
 4908SOL    HW215045   4.464   3.528   5.354
 4909SOL     OW15046   5.450   1.997   4.247
 4909SOL    HW115047   5.523   1.980   4.180
 4909SOL    HW215048   5.419   1.910   4.285
 4910SOL     OW15049   5.112   3.435   4.201
 4910SOL    HW115050   5.179   3.447   4.127
 4910SOL    HW215051   5.072   3.524   4.224
 4911SOL     OW15052   3.854   3.656   5.575
 4911SOL    HW115053   3.813   3.582   5.628
 4911SOL    HW215054   3.918   3.707   5.633
 4912SOL     OW15055   5.004   2.789   4.396
 4912SOL    HW115056   5.064   2.708   4.398
 4912SOL    HW215057   5.044   2.858   4.336
 4913SOL     OW15058   4.554   3.135   5.146
 4913SOL    HW115059   4.549   3.168   5.241
 4913SOL    HW215060   4.468   3.154   5.100
 4914SOL     OW15061   4.396   3.478   3.878
 4914SOL    HW115062   4.405   3.488   3.779
 4914SOL    HW215063   4.356   3.389   3.899
 4915SOL     OW15064   5.374   3.582   5.118
 4915SOL    HW115065   5.427   3.592   5.034
 4915SOL    HW215066   5.347   3.672   5.152
 4916SOL     OW15067   5.565   2.037   4.687
 4916SOL    HW115068   5.604   1.952   4.651
 4916SOL    HW215069   5.467   2.039   4.668
 4917SOL     OW15070   3.987   2.188   4.444
 4917SOL    HW115071   3.908   2.239   4.410
 4917SOL    HW215072   3.978   2.173   4.542
 4918SOL     OW15073   4.918   3.474   3.755
 4918SOL    HW115074   4.924   3.381   3.792
 4918SOL    HW215075   4.859   3.474   3.675
 4919SOL     OW15076   4.546   2.864   5.096
 4919SOL    HW115077   4.586   2.863   5.004
 4919SOL    HW215078   4.556   2.956   5.136
 4920SOL     OW15079   4.640   2.772   4.015
 4920SOL    HW115080   4.703   2.810   3.947
 4920SOL    HW215081   4.680   2.689   4.054
 4921SOL     OW15082   5.228   3.469   3.768
 4921SOL    HW115083   5.136   3.506   3.775
 4921SOL    HW215084   5.266   3.489   3.678
 4922SOL     OW15085   4.096   3.150   5.214
 4922SOL    HW115086   4.083   3.243   5.180
 4922SOL    HW215087   4.012   3.098   5.201
 4923SOL     OW15088   5.338   3.154   5.013
 4923SOL    HW115089   5.398   3.157   5.093
 4923SOL    HW215090   5.263   3.218   5.026
 4924SOL     OW15091   4.738   2.098   4.695
 4924SOL    HW115092   4.730   2.062   4.602
 4924SOL    HW215093   4.736   2.022   4.760
 4925SOL     OW15094   4.314   3.349   4.215
 4925SOL    HW115095   4.356   3.291   4.145
 4925SOL    HW215096   4.270   3.428   4.171
 4926SOL     OW15097   5.433   2.247   5.105
 4926SOL    HW115098   5.506   2.316   5.109
 4926SOL    HW215099   5.461   2.172   5.046
 4927SOL     OW15100   3.979   3.210   4.014
 4927SOL    HW115101   3.883   3.211   3.987
 4927SOL    HW215102   3.991   3.263   4.098
 4928SOL     OW15103   3.829   2.875   5.450
 4928SOL    HW115104   3.752   2.842   5.504
 4928SOL    HW215105   3.914   2.845   5.492
 4929SOL     OW15106   4.396   2.065   5.213
 4929SOL    HW115107   4.486   2.049   5.173
 4929SOL    HW215108   4.404   2.070   5.312
 4930SOL     OW15109   3.799   2.207   3.757
 4930SOL    HW115110   3.707   2.179   3.728
 4930SOL    HW215111   3.830   2.284   3.701
 4931SOL     OW15112   5.164   2.718   5.122
 4931SOL    HW115113   5.107   2.770   5.059
 4931SOL    HW215114   5.260   2.730   5.098
 4932SOL     OW15115   3.796   2.028   4.042
 4932SOL    HW115116   3.779   2.111   3.988
 4932SOL    HW215117   3.886   1.991   4.020
 4933SOL     OW15118   4.907   3.197   3.843
 4933SOL    HW115119   4.808   3.186   3.845
 4933SOL    HW215120   4.941   3.212   3.936
 4934SOL     OW15121   4.337   2.704   5.155
 4934SOL    HW115122   4.393   2.785   5.138
 4934SOL    HW215123   4.396   2.624   5.158
 4935SOL     OW15124   5.217   3.629   4.683
 4935SOL    HW115125   5.250   3.693   4.614
 4935SOL    HW215126   5.283   3.623   4.758
 4936SOL     OW15127   4.440   2.427   5.432
 4936SOL    HW115128   4.459   2.492   5.506
 4936SOL    HW215129   4.500   2.347   5.441
 4937SOL     OW15130   5.174   3.082   5.357
 4937SOL    HW115131   5.165   3.072   5.456
 4937SOL    HW215132   5.270   3.075   5.331
 4938SOL     OW15133   4.114   3.603   5.284
 4938SOL    HW115134   4.023   3.644   5.282
 4938SOL    HW215135   4.107   3.509   5.316
 4939SOL     OW15136   5.398   2.745   4.978
 4939SOL    HW115137   5.371   2.656   4.941
 4939SOL    HW215138   5.399   2.813   4.905
 4940SOL     OW15139   4.949   2.187   4.173
 4940SOL    HW115140   5.014   2.113   4.162
 4940SOL    HW215141   4.969   2.237   4.257
 4941SOL     OW15142   4.318   2.607   4.376
 4941SOL    HW115143   4.368   2.692   4.357
 4941SOL    HW215144   4.230   2.609   4.328
 4942SOL     OW15145   5.501   2.204   5.366
 4942SOL    HW115146   5.484   2.235   5.272
 4942SOL    HW215147   5.417   2.167   5.404
 4943SOL     OW15148   5.454   2.796   5.241
 4943SOL    HW115149   5.492   2.887   5.256
 4943SOL    HW215150   5.446   2.779   5.142
 4944SOL     OW15151   4.583   3.236   3.740
 4944SOL    HW115152   4.537   3.251   3.828
 4944SOL    HW215153   4.627   3.321   3.710
 4945SOL     OW15154   4.385   3.652   4.677
 4945SOL    HW115155   4.339   3.740   4.664
 4945SOL    HW215156   4.484   3.664   4.670
 4946SOL     OW15157   4.583   2.818   4.585
 4946SOL    HW115158   4.637   2.749   4.633
 4946SOL    HW215159   4.551   2.887   4.651
 4947SOL     OW15160   4.807   2.846   3.811
 4947SOL    HW115161   4.784   2.899   3.729
 4947SOL    HW215162   4.888   2.790   3.792
 4948SOL     OW15163   5.585   3.431   4.575
 4948SOL    HW115164   5.514   3.419   4.505
 4948SOL    HW215165   5.586   3.352   4.635
 4949SOL     OW15166   3.945   3.176   5.568
 4949SOL    HW115167   3.880   3.103   5.547
 4949SOL    HW215168   3.949   3.190   5.666
 4950SOL     OW15169   3.803   3.102   4.377
 4950SOL    HW115170   3.802   3.055   4.465
 4950SOL    HW215171   3.885   3.074   4.326
 4951SOL     OW15172   4.396   3.253   5.348
 4951SOL    HW115173   4.318   3.203   5.386
 4951SOL    HW215174   4.393   3.348   5.379
 4952SOL     OW15175   5.548   2.054   4.951
 4952SOL    HW115176   5.544   1.964   4.995
 4952SOL    HW215177   5.551   2.043   4.852
 4953SOL     OW15178   4.152   2.286   4.244
 4953SOL    HW115179   4.182   2.214   4.182
 4953SOL    HW215180   4.113   2.246   4.327
 4954SOL     OW15181   5.429   3.349   4.828
 4954SOL    HW115182   5.336   3.324   4.801
 4954SOL    HW215183   5.455   3.299   4.910
 4955SOL     OW15184   4.041   2.409   5.004
 4955SOL    HW115185   4.079   2.350   5.076
 4955SOL    HW215186   4.081   2.383   4.916
 4956SOL     OW15187   4.536   3.448   4.411
 4956SOL    HW115188   4.568   3.458   4.317
 4956SOL    HW215189   4.457   3.386   4.413
 4957SOL     OW15190   5.148   2.076   4.836
 4957SOL    HW115191   5.200   2.011   4.891
 4957SOL    HW215192   5.099   2.139   4.897
 4958SOL     OW15193   4.725   1.896   4.878
 4958SOL    HW115194   4.662   1.824   4.847
 4958SOL    HW215195   4.818   1.860   4.878
 4959SOL     OW15196   4.494   3.192   4.025
 4959SOL    HW115197   4.448   3.105   4.042
 4959SOL    HW215198   4.585   3.189   4.066
 4960SOL     OW15199   4.342   3.429   5.008
 4960SOL    HW115200   4.337   3.511   5.065
 4960SOL    HW215201   4.431   3.426   4.963
 4961SOL     OW15202   5.076   1.914   3.892
 4961SOL    HW115203   5.111   1.873   3.808
 4961SOL    HW215204   4.986   1.876   3.912
 4962SOL     OW15205   5.024   2.315   4.415
 4962SOL    HW115206   4.965   2.395   4.419
 4962SOL    HW215207   5.039   2.280   4.508
 4963SOL     OW15208   5.317   2.083   4.606
 4963SOL    HW115209   5.233   2.082   4.660
 4963SOL    HW215210   5.319   2.166   4.550
 4964SOL     OW15211   3.763   2.939   4.024
 4964SOL    HW115212   3.862   2.928   4.015
 4964SOL    HW215213   3.723   2.853   4.056
 4965SOL     OW15214   4.599   3.508   4.061
 4965SOL    HW115215   4.522   3.473   4.007
 4965SOL    HW215216   4.567   3.579   4.123
 4966SOL     OW15217   3.954   4.352   0.113
 4966SOL    HW115218   3.861   4.350   0.150
 4966SOL    HW215219   3.955   4.313   0.021
 4967SOL     OW15220   3.949   3.999   0.996
 4967SOL    HW115221   3.984   3.982   1.088
 4967SOL    HW215222   3.861   3.954   0.984
 4968SOL     OW15223   3.743   4.092   0.647
 4968SOL    HW115224   3.661   4.135   0.686
 4968SOL    HW215225   3.715   4.019   0.584
 4969SOL     OW15226   4.293   4.999   1.165
 4969SOL    HW115227   4.200   4.992   1.128
 4969SOL    HW215228   4.304   5.088   1.209
 4970SOL     OW15229   5.279   5.235   0.703
 4970SOL    HW115230   5.222   5.219   0.784
 4970SOL    HW215231   5.220   5.245   0.623
 4971SOL     OW15232   4.859   4.427   0.717
 4971SOL    HW115233   4.916   4.505   0.692
 4971SOL    HW215234   4.799   4.453   0.793
 4972SOL     OW15235   5.479   4.331   0.231
 4972SOL    HW115236   5.467   4.318   0.132
 4972SOL    HW215237   5.449   4.250   0.280
 4973SOL     OW15238   4.492   4.868   1.023
 4973SOL    HW115239   4.414   4.885   1.083
 4973SOL    HW215240   4.526   4.955   0.987
 4974SOL     OW15241   4.574   4.522   1.823
 4974SOL    HW115242   4.570   4.598   1.888
 4974SOL    HW215243   4.596   4.558   1.732
 4975SOL     OW15244   4.409   4.736   0.665
 4975SOL    HW115245   4.478   4.720   0.735
 4975SOL    HW215246   4.336   4.793   0.703
 4976SOL     OW15247   4.410   4.885   1.803
 4976SOL    HW115248   4.470   4.964   1.817
 4976SOL    HW215249   4.324   4.916   1.762
 4977SOL     OW15250   4.059   5.159   1.061
 4977SOL    HW115251   3.981   5.128   1.008
 4977SOL    HW215252   4.117   5.217   1.004
 4978SOL     OW15253   5.184   5.229   1.339
 4978SOL    HW115254   5.208   5.323   1.365
 4978SOL    HW215255   5.168   5.175   1.421
 4979SOL     OW15256   4.162   4.116   1.499
 4979SOL    HW115257   4.244   4.060   1.508
 4979SOL    HW215258   4.081   4.058   1.503
 4980SOL     OW15259   5.327   4.171   0.737
 4980SOL    HW115260   5.253   4.217   0.687
 4980SOL    HW215261   5.378   4.239   0.790
 4981SOL     OW15262   3.955   5.437   0.483
 4981SOL    HW115263   3.989   5.514   0.537
 4981SOL    HW215264   3.999   5.437   0.393
 4982SOL     OW15265   4.851   5.065   1.690
 4982SOL    HW115266   4.898   5.065   1.778
 4982SOL    HW215267   4.803   4.978   1.679
 4983SOL     OW15268   3.954   5.158   0.538
 4983SOL    HW115269   3.928   5.254   0.538
 4983SOL    HW215270   3.883   5.104   0.583
 4984SOL     OW15271   3.964   4.815   0.886
 4984SOL    HW115272   3.978   4.731   0.938
 4984SOL    HW215273   3.909   4.879   0.941
 4985SOL     OW15274   4.344   5.510   1.439
 4985SOL    HW115275   4.252   5.493   1.474
 4985SOL    HW215276   4.372   5.602   1.465
 4986SOL     OW15277   4.330   4.688   0.123
 4986SOL    HW115278   4.337   4.772   0.069
 4986SOL    HW215279   4.376   4.701   0.211
 4987SOL     OW15280   5.318   3.838   1.480
 4987SOL    HW115281   5.300   3.905   1.408
 4987SOL    HW215282   5.315   3.884   1.569
 4988SOL     OW15283   3.846   4.367   0.563
 4988SOL    HW115284   3.801   4.279   0.580
 4988SOL    HW215285   3.845   4.421   0.647
 4989SOL     OW15286   5.566   5.491   0.359
 4989SOL    HW115287   5.620   5.462   0.439
 4989SOL    HW215288   5.596   5.581   0.330
 4990SOL     OW15289   3.751   5.320   0.117
 4990SOL    HW115290   3.732   5.224   0.138
 4990SOL    HW215291   3.718   5.378   0.192
 4991SOL     OW15292   5.413   4.646   0.612
 4991SOL    HW115293   5.508   4.617   0.620
 4991SOL    HW215294   5.405   4.711   0.537
 4992SOL     OW15295   5.365   4.832   0.432
 4992SOL    HW115296   5.451   4.834   0.380
 4992SOL    HW215297   5.379   4.879   0.520
 4993SOL     OW15298   3.837   4.461   1.597
 4993SOL    HW115299   3.925   4.448   1.642
 4993SOL    HW215300   3.824   4.558   1.575
 4994SOL     OW15301   4.337   5.089   0.726
 4994SOL    HW115302   4.288   5.002   0.735
 4994SOL    HW215303   4.314   5.132   0.639
 4995SOL     OW15304   5.017   4.952   1.423
 4995SOL    HW115305   5.054   4.879   1.365
 4995SOL    HW215306   5.069   4.957   1.508
 4996SOL     OW15307   4.533   3.728   0.502
 4996SOL    HW115308   4.573   3.819   0.493
 4996SOL    HW215309   4.433   3.736   0.508
 4997SOL     OW15310   3.921   4.700   1.264
 4997SOL    HW115311   4.010   4.655   1.250
 4997SOL    HW215312   3.848   4.635   1.245
 4998SOL     OW15313   5.249   4.723   0.190
 4998SOL    HW115314   5.186   4.647   0.203
 4998SOL    HW215315   5.297   4.741   0.276
 4999SOL     OW15316   4.911   5.516   1.616
 4999SOL    HW115317   4.935   5.576   1.540
 4999SOL    HW215318   4.918   5.421   1.586
 5000SOL     OW15319   4.041   3.975   1.801
 5000SOL    HW115320   4.112   4.046   1.807
 5000SOL    HW215321   3.953   4.014   1.829
 5001SOL     OW15322   5.190   5.141   0.953
 5001SOL    HW115323   5.131   5.147   1.033
 5001SOL    HW215324   5.175   5.053   0.907
 5002SOL     OW15325   5.391   5.438   0.572
 5002SOL    HW115326   5.350   5.415   0.484
 5002SOL    HW215327   5.373   5.364   0.637
 5003SOL     OW15328   4.322   4.453   0.270
 5003SOL    HW115329   4.346   4.522   0.202
 5003SOL    HW215330   4.244   4.486   0.324
 5004SOL     OW15331   5.005   4.069   0.944
 5004SOL    HW115332   4.919   4.019   0.931
 5004SOL    HW215333   5.067   4.015   1.000
 5005SOL     OW15334   5.300   5.386   0.307
 5005SOL    HW115335   5.389   5.432   0.310
 5005SOL    HW215336   5.279   5.362   0.212
 5006SOL     OW15337   4.531   4.329   1.465
 5006SOL    HW115338   4.484   4.326   1.554
 5006SOL    HW215339   4.480   4.274   1.399
 5007SOL     OW15340   5.118   4.193   1.674
 5007SOL    HW115341   5.098   4.236   1.762
 5007SOL    HW215342   5.196   4.131   1.683
 5008SOL     OW15343   4.697   4.614   1.572
 5008SOL    HW115344   4.743   4.530   1.543
 5008SOL    HW215345   4.641   4.648   1.497
 5009SOL     OW15346   4.715   4.134   1.242
 5009SOL    HW115347   4.638   4.168   1.296
 5009SOL    HW215348   4.681   4.083   1.163
 5010SOL     OW15349   4.765   4.425   0.429
 5010SOL    HW115350   4.791   4.421   0.525
 5010SOL    HW215351   4.680   4.374   0.415
 5011SOL     OW15352   3.800   4.535   0.789
 5011SOL    HW115353   3.899   4.523   0.798
 5011SOL    HW215354   3.776   4.630   0.810
 5012SOL     OW15355   3.854   5.545   1.571
 5012SOL    HW115356   3.844   5.530   1.670
 5012SOL    HW215357   3.768   5.581   1.535
 5013SOL     OW15358   4.589   4.072   0.195
 5013SOL    HW115359   4.648   4.135   0.146
 5013SOL    HW215360   4.608   3.978   0.166
 5014SOL     OW15361   5.443   4.309   1.831
 5014SOL    HW115362   5.417   4.398   1.795
 5014SOL    HW215363   5.441   4.241   1.758
 5015SOL     OW15364   5.086   4.868   0.545
 5015SOL    HW115365   5.169   4.839   0.497
 5015SOL    HW215366   5.037   4.935   0.489
 5016SOL     OW15367   4.075   5.525   0.853
 5016SOL    HW115368   4.125   5.439   0.859
 5016SOL    HW215369   4.140   5.602   0.850
 5017SOL     OW15370   5.519   4.790   0.873
 5017SOL    HW115371   5.457   4.775   0.797
 5017SOL    HW215372   5.467   4.801   0.958
 5018SOL     OW15373   4.951   5.274   1.506
 5018SOL    HW115374   4.957   5.197   1.570
 5018SOL    HW215375   4.899   5.248   1.426
 5019SOL     OW15376   4.045   4.667   0.242
 5019SOL    HW115377   4.127   4.706   0.200
 5019SOL    HW215378   4.018   4.585   0.193
 5020SOL     OW15379   5.182   4.459   0.728
 5020SOL    HW115380   5.177   4.394   0.803
 5020SOL    HW215381   5.262   4.518   0.741
 5021SOL     OW15382   4.185   4.990   1.727
 5021SOL    HW115383   4.135   4.991   1.641
 5021SOL    HW215384   4.122   4.972   1.803
 5022SOL     OW15385   4.835   5.500   0.237
 5022SOL    HW115386   4.775   5.438   0.287
 5022SOL    HW215387   4.866   5.456   0.152
 5023SOL     OW15388   3.926   4.009   1.498
 5023SOL    HW115389   3.846   4.069   1.485
 5023SOL    HW215390   3.916   3.960   1.584
 5024SOL     OW15391   5.356   5.101   0.081
 5024SOL    HW115392   5.324   5.195   0.071
 5024SOL    HW215393   5.280   5.038   0.069
 5025SOL     OW15394   4.188   5.467   0.323
 5025SOL    HW115395   4.221   5.506   0.409
 5025SOL    HW215396   4.264   5.460   0.258
 5026SOL     OW15397   5.124   3.831   0.426
 5026SOL    HW115398   5.100   3.794   0.336
 5026SOL    HW215399   5.223   3.847   0.430
 5027SOL     OW15400   3.973   5.509   1.241
 5027SOL    HW115401   4.030   5.444   1.291
 5027SOL    HW215402   3.957   5.476   1.148
 5028SOL     OW15403   4.664   5.422   0.904
 5028SOL    HW115404   4.744   5.365   0.925
 5028SOL    HW215405   4.615   5.382   0.827
 5029SOL     OW15406   4.106   4.424   0.480
 5029SOL    HW115407   4.151   4.334   0.477
 5029SOL    HW215408   4.012   4.413   0.513
 5030SOL     OW15409   5.271   3.946   1.729
 5030SOL    HW115410   5.266   3.983   1.821
 5030SOL    HW215411   5.199   3.877   1.717
 5031SOL     OW15412   4.338   3.846   0.117
 5031SOL    HW115413   4.436   3.824   0.124
 5031SOL    HW215414   4.307   3.829   0.024
 5032SOL     OW15415   4.505   3.988   1.749
 5032SOL    HW115416   4.572   3.927   1.792
 5032SOL    HW215417   4.432   4.007   1.814
 5033SOL     OW15418   4.612   5.238   1.195
 5033SOL    HW115419   4.589   5.213   1.101
 5033SOL    HW215420   4.673   5.169   1.234
 5034SOL     OW15421   5.075   4.314   1.433
 5034SOL    HW115422   5.103   4.271   1.518
 5034SOL    HW215423   5.100   4.410   1.434
 5035SOL     OW15424   4.527   5.126   0.924
 5035SOL    HW115425   4.617   5.140   0.882
 5035SOL    HW215426   4.456   5.128   0.853
 5036SOL     OW15427   4.646   4.227   0.899
 5036SOL    HW115428   4.621   4.218   0.803
 5036SOL    HW215429   4.694   4.145   0.930
 5037SOL     OW15430   4.263   3.788   0.512
 5037SOL    HW115431   4.182   3.789   0.570
 5037SOL    HW215432   4.266   3.871   0.457
 5038SOL     OW15433   5.158   4.912   0.041
 5038SOL    HW115434   5.190   4.836   0.098
 5038SOL    HW215435   5.066   4.939   0.071
 5039SOL     OW15436   4.021   3.759   0.171
 5039SOL    HW115437   4.070   3.843   0.150
 5039SOL    HW215438   4.083   3.694   0.216
 5040SOL     OW15439   4.659   3.960   0.480
 5040SOL    HW115440   4.611   4.001   0.402
 5040SOL    HW215441   4.758   3.958   0.461
 5041SOL     OW15442   4.800   4.407   1.464
 5041SOL    HW115443   4.720   4.346   1.467
 5041SOL    HW215444   4.881   4.354   1.440
 5042SOL     OW15445   4.951   5.294   0.793
 5042SOL    HW115446   4.972   5.368   0.728
 5042SOL    HW215447   5.019   5.294   0.866
 5043SOL     OW15448   4.183   4.876   0.741
 5043SOL    HW115449   4.112   4.849   0.806
 5043SOL    HW215450   4.157   4.848   0.648
 5044SOL     OW15451   4.995   5.521   0.591
 5044SOL    HW115452   5.039   5.585   0.527
 5044SOL    HW215453   4.945   5.573   0.661
 5045SOL     OW15454   4.756   4.273   0.016
 5045SOL    HW115455   4.715   4.355  -0.023
 5045SOL    HW215456   4.820   4.299   0.089
 5046SOL     OW15457   3.802   4.280   1.386
 5046SOL    HW115458   3.894   4.279   1.345
 5046SOL    HW215459   3.796   4.354   1.453
 5047SOL     OW15460   4.285   3.946   1.147
 5047SOL    HW115461   4.323   3.862   1.184
 5047SOL    HW215462   4.197   3.965   1.191
 5048SOL     OW15463   4.590   4.178   0.642
 5048SOL    HW115464   4.558   4.250   0.580
 5048SOL    HW215465   4.614   4.097   0.589
 5049SOL     OW15466   4.741   3.763   0.753
 5049SOL    HW115467   4.669   3.768   0.684
 5049SOL    HW215468   4.717   3.694   0.822
 5050SOL     OW15469   5.153   4.897   0.867
 5050SOL    HW115470   5.098   4.813   0.860
 5050SOL    HW215471   5.179   4.926   0.775
 5051SOL     OW15472   5.190   4.314   0.992
 5051SOL    HW115473   5.160   4.219   0.999
 5051SOL    HW215474   5.263   4.330   1.058
 5052SOL     OW15475   5.581   4.557   0.377
 5052SOL    HW115476   5.623   4.493   0.441
 5052SOL    HW215477   5.543   4.506   0.299
 5053SOL     OW15478   4.212   5.109   0.174
 5053SOL    HW115479   4.125   5.094   0.221
 5053SOL    HW215480   4.195   5.135   0.079
 5054SOL     OW15481   5.388   5.004   0.657
 5054SOL    HW115482   5.487   5.012   0.671
 5054SOL    HW215483   5.343   5.088   0.688
 5055SOL     OW15484   5.114   4.299   0.078
 5055SOL    HW115485   5.060   4.278   0.159
 5055SOL    HW215486   5.205   4.258   0.087
 5056SOL     OW15487   4.251   3.980   0.328
 5056SOL    HW115488   4.278   3.921   0.253
 5056SOL    HW215489   4.251   4.075   0.297
 5057SOL     OW15490   5.478   4.947   1.588
 5057SOL    HW115491   5.569   4.908   1.575
 5057SOL    HW215492   5.486   5.043   1.612
 5058SOL     OW15493   4.788   5.071   1.340
 5058SOL    HW115494   4.708   5.048   1.395
 5058SOL    HW215495   4.871   5.045   1.389
 5059SOL     OW15496   5.316   5.353   1.625
 5059SOL    HW115497   5.343   5.387   1.535
 5059SOL    HW215498   5.395   5.315   1.671
 5060SOL     OW15499   4.835   4.919   1.100
 5060SOL    HW115500   4.795   4.963   1.181
 5060SOL    HW215501   4.794   4.956   1.017
 5061SOL     OW15502   5.362   4.823   1.079
 5061SOL    HW115503   5.367   4.904   1.138
 5061SOL    HW215504   5.276   4.825   1.028
 5062SOL     OW15505   4.639   3.813   1.402
 5062SOL    HW115506   4.664   3.793   1.307
 5062SOL    HW215507   4.711   3.869   1.444
 5063SOL     OW15508   4.704   4.840   1.719
 5063SOL    HW115509   4.605   4.846   1.729
 5063SOL    HW215510   4.727   4.760   1.663
 5064SOL     OW15511   4.429   4.774   0.368
 5064SOL    HW115512   4.415   4.781   0.467
 5064SOL    HW215513   4.513   4.723   0.350
 5065SOL     OW15514   4.134   4.537   1.251
 5065SOL    HW115515   4.220   4.549   1.301
 5065SOL    HW215516   4.092   4.450   1.278
 5066SOL     OW15517   4.998   4.110   1.262
 5066SOL    HW115518   5.019   4.184   1.326
 5066SOL    HW215519   4.909   4.127   1.219
 5067SOL     OW15520   3.788   5.288   1.331
 5067SOL    HW115521   3.742   5.370   1.297
 5067SOL    HW215522   3.886   5.307   1.340
 5068SOL     OW15523   4.091   4.824   0.501
 5068SOL    HW115524   4.084   4.907   0.445
 5068SOL    HW215525   4.095   4.744   0.441
 5069SOL     OW15526   4.290   4.261   0.865
 5069SOL    HW115527   4.302   4.327   0.791
 5069SOL    HW215528   4.336   4.295   0.948
 5070SOL     OW15529   4.976   5.072   0.388
 5070SOL    HW115530   5.026   5.149   0.428
 5070SOL    HW215531   4.881   5.074   0.420
 5071SOL     OW15532   4.996   5.169   1.142
 5071SOL    HW115533   5.043   5.182   1.229
 5071SOL    HW215534   4.930   5.095   1.151
 5072SOL     OW15535   5.306   4.363   0.472
 5072SOL    HW115536   5.275   4.424   0.545
 5072SOL    HW215537   5.356   4.415   0.403
 5073SOL     OW15538   4.078   5.234   1.329
 5073SOL    HW115539   4.057   5.190   1.242
 5073SOL    HW215540   4.175   5.260   1.332
 5074SOL     OW15541   4.126   4.475   1.598
 5074SOL    HW115542   4.194   4.530   1.551
 5074SOL    HW215543   4.166   4.387   1.625
 5075SOL     OW15544   5.311   4.503   1.670
 5075SOL    HW115545   5.219   4.541   1.665
 5075SOL    HW215546   5.371   4.550   1.605
 5076SOL     OW15547   4.737   3.829   1.770
 5076SOL    HW115548   4.743   3.914   1.718
 5076SOL    HW215549   4.769   3.753   1.713
 5077SOL     OW15550   4.228   3.774   1.740
 5077SOL    HW115551   4.186   3.717   1.670
 5077SOL    HW215552   4.162   3.843   1.772
 5078SOL     OW15553   4.297   4.594   1.029
 5078SOL    HW115554   4.341   4.683   1.020
 5078SOL    HW215555   4.234   4.594   1.106
 5079SOL     OW15556   5.084   4.586   1.045
 5079SOL    HW115557   5.009   4.586   0.979
 5079SOL    HW215558   5.121   4.494   1.054
 5080SOL     OW15559   4.933   4.249   0.275
 5080SOL    HW115560   4.946   4.165   0.329
 5080SOL    HW215561   4.904   4.323   0.335
 5081SOL     OW15562   4.031   3.937   1.231
 5081SOL    HW115563   4.008   3.974   1.321
 5081SOL    HW215564   4.001   3.842   1.225
 5082SOL     OW15565   3.761   5.034   1.282
 5082SOL    HW115566   3.814   4.985   1.350
 5082SOL    HW215567   3.783   5.132   1.287
 5083SOL     OW15568   4.456   4.358   1.064
 5083SOL    HW115569   4.515   4.332   0.988
 5083SOL    HW215570   4.428   4.454   1.053
 5084SOL     OW15571   5.452   4.659   1.854
 5084SOL    HW115572   5.406   4.652   1.765
 5084SOL    HW215573   5.390   4.703   1.920
 5085SOL     OW15574   4.031   3.787   0.618
 5085SOL    HW115575   4.020   3.881   0.651
 5085SOL    HW215576   4.026   3.724   0.695
 5086SOL     OW15577   5.346   4.091   0.374
 5086SOL    HW115578   5.348   4.015   0.438
 5086SOL    HW215579   5.298   4.168   0.414
 5087SOL     OW15580   4.747   4.490   0.966
 5087SOL    HW115581   4.762   4.511   1.062
 5087SOL    HW215582   4.717   4.395   0.957
 5088SOL     OW15583   4.704   5.297   1.700
 5088SOL    HW115584   4.684   5.341   1.612
 5088SOL    HW215585   4.743   5.206   1.684
 5089SOL     OW15586   5.583   5.242   1.605
 5089SOL    HW115587   5.597   5.269   1.510
 5089SOL    HW215588   5.666   5.264   1.658
 5090SOL     OW15589   4.074   4.622   1.804
 5090SOL    HW115590   4.150   4.666   1.852
 5090SOL    HW215591   4.109   4.575   1.722
 5091SOL     OW15592   5.264   3.998   0.125
 5091SOL    HW115593   5.203   3.923   0.148
 5091SOL    HW215594   5.286   4.050   0.208
 5092SOL     OW15595   5.027   4.562   0.042
 5092SOL    HW115596   5.061   4.469   0.057
 5092SOL    HW215597   5.045   4.589  -0.053
 5093SOL     OW15598   4.792   5.057   0.849
 5093SOL    HW115599   4.799   4.973   0.794
 5093SOL    HW215600   4.854   5.126   0.813
 5094SOL     OW15601   4.043   4.534   0.949
 5094SOL    HW115602   4.136   4.570   0.954
 5094SOL    HW215603   4.037   4.449   1.001
 5095SOL     OW15604   4.063   4.233   1.006
 5095SOL    HW115605   4.011   4.150   0.989
 5095SOL    HW215606   4.140   4.238   0.942
 5096SOL     OW15607   4.862   4.104   1.678
 5096SOL    HW115608   4.817   4.167   1.742
 5096SOL    HW215609   4.955   4.135   1.661
 5097SOL     OW15610   4.884   3.931   1.477
 5097SOL    HW115611   4.884   3.995   1.554
 5097SOL    HW215612   4.912   3.979   1.394
 5098SOL     OW15613   3.732   5.050   0.200
 5098SOL    HW115614   3.639   5.071   0.169
 5098SOL    HW215615   3.742   4.951   0.213
 5099SOL     OW15616   3.812   5.525   0.927
 5099SOL    HW115617   3.770   5.439   0.900
 5099SOL    HW215618   3.906   5.528   0.893
 5100SOL     OW15619   4.228   5.292   0.910
 5100SOL    HW115620   4.294   5.366   0.919
 5100SOL    HW215621   4.272   5.213   0.868
 5101SOL     OW15622   4.726   4.520   1.238
 5101SOL    HW115623   4.767   4.488   1.324
 5101SOL    HW215624   4.630   4.493   1.235
 5102SOL     OW15625   3.764   4.268   1.114
 5102SOL    HW115626   3.849   4.235   1.073
 5102SOL    HW215627   3.777   4.283   1.212
 5103SOL     OW15628   3.913   4.244   1.722
 5103SOL    HW115629   3.972   4.204   1.652
 5103SOL    HW215630   3.855   4.315   1.681
 5104SOL     OW15631   5.093   4.674   1.660
 5104SOL    HW115632   5.132   4.763   1.680
 5104SOL    HW215633   5.103   4.654   1.563
 5105SOL     OW15634   4.539   4.296   0.325
 5105SOL    HW115635   4.546   4.207   0.279
 5105SOL    HW215636   4.445   4.330   0.317
 5106SOL     OW15637   5.381   4.328   1.206
 5106SOL    HW115638   5.343   4.259   1.268
 5106SOL    HW215639   5.463   4.292   1.162
 5107SOL     OW15640   3.976   5.288   1.744
 5107SOL    HW115641   3.946   5.345   1.820
 5107SOL    HW215642   3.969   5.191   1.770
 5108SOL     OW15643   4.395   4.188   1.269
 5108SOL    HW115644   4.361   4.099   1.239
 5108SOL    HW215645   4.421   4.242   1.189
 5109SOL     OW15646   4.654   5.402   1.465
 5109SOL    HW115647   4.630   5.384   1.370
 5109SOL    HW215648   4.684   5.496   1.475
 5110SOL     OW15649   4.197   4.224   0.191
 5110SOL    HW115650   4.258   4.304   0.195
 5110SOL    HW215651   4.102   4.255   0.198
 5111SOL     OW15652   3.883   4.861   1.466
 5111SOL    HW115653   3.905   4.800   1.542
 5111SOL    HW215654   3.893   4.812   1.380
 5112SOL     OW15655   5.071   4.783   1.234
 5112SOL    HW115656   5.095   4.720   1.160
 5112SOL    HW215657   4.981   4.823   1.216
 5113SOL     OW15658   5.026   4.579   0.309
 5113SOL    HW115659   4.940   4.548   0.351
 5113SOL    HW215660   5.022   4.565   0.210
 5114SOL     OW15661   5.483   5.471   1.154
 5114SOL    HW115662   5.544   5.501   1.081
 5114SOL    HW215663   5.445   5.382   1.132
 5115SOL     OW15664   4.976   5.455   1.128
 5115SOL    HW115665   5.060   5.460   1.074
 5115SOL    HW215666   4.953   5.359   1.146
 5116SOL     OW15667   3.807   4.982   1.022
 5116SOL    HW115668   3.802   4.981   1.122
 5116SOL    HW215669   3.724   4.941   0.984
 5117SOL     OW15670   4.412   5.386   1.716
 5117SOL    HW115671   4.356   5.467   1.725
 5117SOL    HW215672   4.464   5.390   1.630
 5118SOL     OW15673   4.627   3.810   0.133
 5118SOL    HW115674   4.678   3.811   0.047
 5118SOL    HW215675   4.683   3.768   0.204
 5119SOL     OW15676   5.450   3.859   0.523
 5119SOL    HW115677   5.523   3.842   0.456
 5119SOL    HW215678   5.419   3.772   0.561
 5120SOL     OW15679   5.112   5.297   0.477
 5120SOL    HW115680   5.179   5.309   0.403
 5120SOL    HW215681   5.072   5.386   0.500
 5121SOL     OW15682   3.854   5.518   1.851
 5121SOL    HW115683   3.813   5.444   1.904
 5121SOL    HW215684   3.918   5.569   1.909
 5122SOL     OW15685   5.004   4.651   0.672
 5122SOL    HW115686   5.064   4.570   0.674
 5122SOL    HW215687   5.044   4.720   0.612
 5123SOL     OW15688   4.554   4.997   1.422
 5123SOL    HW115689   4.549   5.030   1.517
 5123SOL    HW215690   4.468   5.016   1.376
 5124SOL     OW15691   4.396   5.340   0.154
 5124SOL    HW115692   4.405   5.350   0.055
 5124SOL    HW215693   4.356   5.251   0.175
 5125SOL     OW15694   5.374   5.444   1.394
 5125SOL    HW115695   5.427   5.454   1.310
 5125SOL    HW215696   5.347   5.534   1.428
 5126SOL     OW15697   5.565   3.899   0.963
 5126SOL    HW115698   5.604   3.814   0.927
 5126SOL    HW215699   5.467   3.901   0.944
 5127SOL     OW15700   3.987   4.050   0.720
 5127SOL    HW115701   3.908   4.101   0.686
 5127SOL    HW215702   3.978   4.035   0.818
 5128SOL     OW15703   4.918   5.336   0.031
 5128SOL    HW115704   4.924   5.243   0.068
 5128SOL    HW215705   4.859   5.336  -0.049
 5129SOL     OW15706   4.546   4.726   1.372
 5129SOL    HW115707   4.586   4.725   1.280
 5129SOL    HW215708   4.556   4.818   1.412
 5130SOL     OW15709   4.640   4.634   0.291
 5130SOL    HW115710   4.703   4.672   0.223
 5130SOL    HW215711   4.680   4.551   0.330
 5131SOL     OW15712   5.228   5.331   0.044
 5131SOL    HW115713   5.136   5.368   0.051
 5131SOL    HW215714   5.266   5.351  -0.046
 5132SOL     OW15715   4.096   5.012   1.490
 5132SOL    HW115716   4.083   5.105   1.456
 5132SOL    HW215717   4.012   4.960   1.477
 5133SOL     OW15718   5.338   5.016   1.289
 5133SOL    HW115719   5.398   5.019   1.369
 5133SOL    HW215720   5.263   5.080   1.302
 5134SOL     OW15721   4.763   4.822   0.696
 5134SOL    HW115722   4.693   4.775   0.750
 5134SOL    HW215723   4.822   4.754   0.653
 5135SOL     OW15724   4.738   3.960   0.971
 5135SOL    HW115725   4.730   3.924   0.878
 5135SOL    HW215726   4.736   3.884   1.036
 5136SOL     OW15727   4.314   5.211   0.491
 5136SOL    HW115728   4.356   5.153   0.421
 5136SOL    HW215729   4.270   5.290   0.447
 5137SOL     OW15730   5.433   4.109   1.381
 5137SOL    HW115731   5.506   4.178   1.385
 5137SOL    HW215732   5.461   4.034   1.322
 5138SOL     OW15733   3.979   5.072   0.290
 5138SOL    HW115734   3.883   5.073   0.263
 5138SOL    HW215735   3.991   5.125   0.374
 5139SOL     OW15736   3.829   4.737   1.726
 5139SOL    HW115737   3.752   4.704   1.780
 5139SOL    HW215738   3.914   4.707   1.768
 5140SOL     OW15739   4.396   3.927   1.489
 5140SOL    HW115740   4.486   3.911   1.449
 5140SOL    HW215741   4.404   3.932   1.588
 5141SOL     OW15742   3.799   4.069   0.033
 5141SOL    HW115743   3.707   4.041   0.004
 5141SOL    HW215744   3.830   4.146  -0.023
 5142SOL     OW15745   5.164   4.580   1.398
 5142SOL    HW115746   5.107   4.632   1.335
 5142SOL    HW215747   5.260   4.592   1.374
 5143SOL     OW15748   3.796   3.890   0.318
 5143SOL    HW115749   3.779   3.973   0.264
 5143SOL    HW215750   3.886   3.853   0.296
 5144SOL     OW15751   4.907   5.059   0.119
 5144SOL    HW115752   4.808   5.048   0.121
 5144SOL    HW215753   4.941   5.074   0.212
 5145SOL     OW15754   4.337   4.566   1.431
 5145SOL    HW115755   4.393   4.647   1.414
 5145SOL    HW215756   4.396   4.486   1.434
 5146SOL     OW15757   5.217   5.491   0.959
 5146SOL    HW115758   5.250   5.555   0.890
 5146SOL    HW215759   5.283   5.485   1.034
 5147SOL     OW15760   4.440   4.289   1.708
 5147SOL    HW115761   4.459   4.354   1.782
 5147SOL    HW215762   4.500   4.209   1.717
 5148SOL     OW15763   5.174   4.944   1.633
 5148SOL    HW115764   5.165   4.934   1.732
 5148SOL    HW215765   5.270   4.937   1.607
 5149SOL     OW15766   4.114   5.465   1.560
 5149SOL    HW115767   4.023   5.506   1.558
 5149SOL    HW215768   4.107   5.371   1.592
 5150SOL     OW15769   5.398   4.607   1.254
 5150SOL    HW115770   5.371   4.518   1.217
 5150SOL    HW215771   5.399   4.675   1.181
 5151SOL     OW15772   4.949   4.049   0.449
 5151SOL    HW115773   5.014   3.975   0.438
 5151SOL    HW215774   4.969   4.099   0.533
 5152SOL     OW15775   4.318   4.469   0.652
 5152SOL    HW115776   4.368   4.554   0.633
 5152SOL    HW215777   4.230   4.471   0.604
 5153SOL     OW15778   5.501   4.066   1.642
 5153SOL    HW115779   5.484   4.097   1.548
 5153SOL    HW215780   5.417   4.029   1.680
 5154SOL     OW15781   5.454   4.658   1.517
 5154SOL    HW115782   5.492   4.749   1.532
 5154SOL    HW215783   5.446   4.641   1.418
 5155SOL     OW15784   4.583   5.098   0.016
 5155SOL    HW115785   4.537   5.113   0.104
 5155SOL    HW215786   4.627   5.183  -0.014
 5156SOL     OW15787   4.385   5.514   0.953
 5156SOL    HW115788   4.339   5.602   0.940
 5156SOL    HW215789   4.484   5.526   0.946
 5157SOL     OW15790   4.583   4.680   0.861
 5157SOL    HW115791   4.637   4.611   0.909
 5157SOL    HW215792   4.551   4.749   0.927
 5158SOL     OW15793   4.807   4.708   0.087
 5158SOL    HW115794   4.784   4.761   0.005
 5158SOL    HW215795   4.888   4.652   0.068
 5159SOL     OW15796   5.585   5.293   0.851
 5159SOL    HW115797   5.514   5.281   0.781
 5159SOL    HW215798   5.586   5.214   0.911
 5160SOL     OW15799   3.945   5.038   1.844
 5160SOL    HW115800   3.880   4.965   1.823
 5160SOL    HW215801   3.949   5.052   1.942
 5161SOL     OW15802   3.803   4.964   0.653
 5161SOL    HW115803   3.802   4.917   0.741
 5161SOL    HW215804   3.885   4.936   0.602
 5162SOL     OW15805   4.396   5.115   1.624
 5162SOL    HW115806   4.318   5.065   1.662
 5162SOL    HW215807   4.393   5.210   1.655
 5163SOL     OW15808   5.548   3.916   1.227
 5163SOL    HW115809   5.544   3.826   1.271
 5163SOL    HW215810   5.551   3.905   1.128
 5164SOL     OW15811   4.152   4.148   0.520
 5164SOL    HW115812   4.182   4.076   0.458
 5164SOL    HW215813   4.113   4.108   0.603
 5165SOL     OW15814   5.429   5.211   1.104
 5165SOL    HW115815   5.336   5.186   1.077
 5165SOL    HW215816   5.455   5.161   1.186
 5166SOL     OW15817   4.041   4.271   1.280
 5166SOL    HW115818   4.079   4.212   1.352
 5166SOL    HW215819   4.081   4.245   1.192
 5167SOL     OW15820   4.536   5.310   0.687
 5167SOL    HW115821   4.568   5.320   0.593
 5167SOL    HW215822   4.457   5.248   0.689
 5168SOL     OW15823   5.148   3.938   1.112
 5168SOL    HW115824   5.200   3.873   1.167
 5168SOL    HW215825   5.099   4.001   1.173
 5169SOL     OW15826   4.725   3.758   1.154
 5169SOL    HW115827   4.662   3.686   1.123
 5169SOL    HW215828   4.818   3.722   1.154
 5170SOL     OW15829   4.494   5.054   0.301
 5170SOL    HW115830   4.448   4.967   0.318
 5170SOL    HW215831   4.585   5.051   0.342
 5171SOL     OW15832   4.342   5.291   1.284
 5171SOL    HW115833   4.337   5.373   1.341
 5171SOL    HW215834   4.431   5.288   1.239
 5172SOL     OW15835   5.076   3.776   0.168
 5172SOL    HW115836   5.111   3.735   0.084
 5172SOL    HW215837   4.986   3.738   0.188
 5173SOL     OW15838   5.024   4.177   0.691
 5173SOL    HW115839   4.965   4.257   0.695
 5173SOL    HW215840   5.039   4.142   0.784
 5174SOL     OW15841   5.317   3.945   0.882
 5174SOL    HW115842   5.233   3.944   0.936
 5174SOL    HW215843   5.319   4.028   0.826
 5175SOL     OW15844   3.763   4.801   0.300
 5175SOL    HW115845   3.862   4.790   0.291
 5175SOL    HW215846   3.723   4.715   0.332
 5176SOL     OW15847   4.599   5.370   0.337
 5176SOL    HW115848   4.522   5.335   0.283
 5176SOL    HW215849   4.567   5.441   0.399
 5177SOL     OW15850   3.954   4.352   1.975
 5177SOL    HW115851   3.861   4.350   2.012
 5177SOL    HW215852   3.955   4.313   1.883
 5178SOL     OW15853   3.949   3.999   2.858
 5178SOL    HW115854   3.984   3.982   2.950
 5178SOL    HW215855   3.861   3.954   2.846
 5179SOL     OW15856   3.743   4.092   2.509
 5179SOL    HW115857   3.661   4.135   2.548
 5179SOL    HW215858   3.715   4.019   2.446
 5180SOL     OW15859   4.293   4.999   3.027
 5180SOL    HW115860   4.200   4.992   2.990
 5180SOL    HW215861   4.304   5.088   3.071
 5181SOL     OW15862   5.279   5.235   2.565
 5181SOL    HW115863   5.222   5.219   2.646
 5181SOL    HW215864   5.220   5.245   2.485
 5182SOL     OW15865   4.859   4.427   2.579
 5182SOL    HW115866   4.916   4.505   2.554
 5182SOL    HW215867   4.799   4.453   2.655
 5183SOL     OW15868   5.479   4.331   2.093
 5183SOL    HW115869   5.467   4.318   1.994
 5183SOL    HW215870   5.449   4.250   2.142
 5184SOL     OW15871   4.492   4.868   2.885
 5184SOL    HW115872   4.414   4.885   2.945
 5184SOL    HW215873   4.526   4.955   2.849
 5185SOL     OW15874   4.574   4.522   3.685
 5185SOL    HW115875   4.570   4.598   3.750
 5185SOL    HW215876   4.596   4.558   3.594
 5186SOL     OW15877   4.409   4.736   2.527
 5186SOL    HW115878   4.478   4.720   2.597
 5186SOL    HW215879   4.336   4.793   2.565
 5187SOL     OW15880   4.410   4.885   3.665
 5187SOL    HW115881   4.470   4.964   3.679
 5187SOL    HW215882   4.324   4.916   3.624
 5188SOL     OW15883   4.059   5.159   2.923
 5188SOL    HW115884   3.981   5.128   2.870
 5188SOL    HW215885   4.117   5.217   2.866
 5189SOL     OW15886   5.184   5.229   3.201
 5189SOL    HW115887   5.208   5.323   3.227
 5189SOL    HW215888   5.168   5.175   3.283
 5190SOL     OW15889   4.162   4.116   3.361
 5190SOL    HW115890   4.244   4.060   3.370
 5190SOL    HW215891   4.081   4.058   3.365
 5191SOL     OW15892   5.327   4.171   2.599
 5191SOL    HW115893   5.253   4.217   2.549
 5191SOL    HW215894   5.378   4.239   2.652
 5192SOL     OW15895   3.955   5.437   2.345
 5192SOL    HW115896   3.989   5.514   2.399
 5192SOL    HW215897   3.999   5.437   2.255
 5193SOL     OW15898   4.851   5.065   3.552
 5193SOL    HW115899   4.898   5.065   3.640
 5193SOL    HW215900   4.803   4.978   3.541
 5194SOL     OW15901   3.954   5.158   2.400
 5194SOL    HW115902   3.928   5.254   2.400
 5194SOL    HW215903   3.883   5.104   2.445
 5195SOL     OW15904   3.964   4.815   2.748
 5195SOL    HW115905   3.978   4.731   2.800
 5195SOL    HW215906   3.909   4.879   2.803
 5196SOL     OW15907   4.344   5.510   3.301
 5196SOL    HW115908   4.252   5.493   3.336
 5196SOL    HW215909   4.372   5.602   3.327
 5197SOL     OW15910   4.330   4.688   1.985
 5197SOL    HW115911   4.337   4.772   1.931
 5197SOL    HW215912   4.376   4.701   2.073
 5198SOL     OW15913   5.318   3.838   3.342
 5198SOL    HW115914   5.300   3.905   3.270
 5198SOL    HW215915   5.315   3.884   3.431
 5199SOL     OW15916   3.846   4.367   2.425
 5199SOL    HW115917   3.801   4.279   2.442
 5199SOL    HW215918   3.845   4.421   2.509
 5200SOL     OW15919   5.566   5.491   2.221
 5200SOL    HW115920   5.620   5.462   2.301
 5200SOL    HW215921   5.596   5.581   2.192
 5201SOL     OW15922   3.751   5.320   1.979
 5201SOL    HW115923   3.732   5.224   2.000
 5201SOL    HW215924   3.718   5.378   2.054
 5202SOL     OW15925   5.413   4.646   2.474
 5202SOL    HW115926   5.508   4.617   2.482
 5202SOL    HW215927   5.405   4.711   2.399
 5203SOL     OW15928   5.365   4.832   2.294
 5203SOL    HW115929   5.451   4.834   2.242
 5203SOL    HW215930   5.379   4.879   2.382
 5204SOL     OW15931   3.837   4.461   3.459
 5204SOL    HW115932   3.925   4.448   3.504
 5204SOL    HW215933   3.824   4.558   3.437
 5205SOL     OW15934   4.337   5.089   2.588
 5205SOL    HW115935   4.288   5.002   2.597
 5205SOL    HW215936   4.314   5.132   2.501
 5206SOL     OW15937   5.017   4.952   3.285
 5206SOL    HW115938   5.054   4.879   3.227
 5206SOL    HW215939   5.069   4.957   3.370
 5207SOL     OW15940   4.533   3.728   2.364
 5207SOL    HW115941   4.573   3.819   2.355
 5207SOL    HW215942   4.433   3.736   2.370
 5208SOL     OW15943   3.921   4.700   3.126
 5208SOL    HW115944   4.010   4.655   3.112
 5208SOL    HW215945   3.848   4.635   3.107
 5209SOL     OW15946   5.249   4.723   2.052
 5209SOL    HW115947   5.186   4.647   2.065
 5209SOL    HW215948   5.297   4.741   2.138
 5210SOL     OW15949   4.911   5.516   3.478
 5210SOL    HW115950   4.935   5.576   3.402
 5210SOL    HW215951   4.918   5.421   3.448
 5211SOL     OW15952   4.041   3.975   3.663
 5211SOL    HW115953   4.112   4.046   3.669
 5211SOL    HW215954   3.953   4.014   3.691
 5212SOL     OW15955   5.190   5.141   2.815
 5212SOL    HW115956   5.131   5.147   2.895
 5212SOL    HW215957   5.175   5.053   2.769
 5213SOL     OW15958   5.391   5.438   2.434
 5213SOL    HW115959   5.350   5.415   2.346
 5213SOL    HW215960   5.373   5.364   2.499
 5214SOL     OW15961   4.322   4.453   2.132
 5214SOL    HW115962   4.346   4.522   2.064
 5214SOL    HW215963   4.244   4.486   2.186
 5215SOL     OW15964   5.005   4.069   2.806
 5215SOL    HW115965   4.919   4.019   2.793
 5215SOL    HW215966   5.067   4.015   2.862
 5216SOL     OW15967   5.300   5.386   2.169
 5216SOL    HW115968   5.389   5.432   2.172
 5216SOL    HW215969   5.279   5.362   2.074
 5217SOL     OW15970   4.531   4.329   3.327
 5217SOL    HW115971   4.484   4.326   3.416
 5217SOL    HW215972   4.480   4.274   3.261
 5218SOL     OW15973   5.118   4.193   3.536
 5218SOL    HW115974   5.098   4.236   3.624
 5218SOL    HW215975   5.196   4.131   3.545
 5219SOL     OW15976   4.697   4.614   3.434
 5219SOL    HW115977   4.743   4.530   3.405
 5219SOL    HW215978   4.641   4.648   3.359
 5220SOL     OW15979   4.715   4.134   3.104
 5220SOL    HW115980   4.638   4.168   3.158
 5220SOL    HW215981   4.681   4.083   3.025
 5221SOL     OW15982   4.765   4.425   2.291
 5221SOL    HW115983   4.791   4.421   2.387
 5221SOL    HW215984   4.680   4.374   2.277
 5222SOL     OW15985   3.800   4.535   2.651
 5222SOL    HW115986   3.899   4.523   2.660
 5222SOL    HW215987   3.776   4.630   2.672
 5223SOL     OW15988   3.854   5.545   3.433
 5223SOL    HW115989   3.844   5.530   3.532
 5223SOL    HW215990   3.768   5.581   3.397
 5224SOL     OW15991   4.589   4.072   2.057
 5224SOL    HW115992   4.648   4.135   2.008
 5224SOL    HW215993   4.608   3.978   2.028
 5225SOL     OW15994   5.443   4.309   3.693
 5225SOL    HW115995   5.417   4.398   3.657
 5225SOL    HW215996   5.441   4.241   3.620
 5226SOL     OW15997   5.086   4.868   2.407
 5226SOL    HW115998   5.169   4.839   2.359
 5226SOL    HW215999   5.037   4.935   2.351
 5227SOL     OW16000   4.274   3.920   2.747
 5227SOL    HW116001   4.269   3.915   2.847
 5227SOL    HW216002   4.276   4.016   2.718
 5228SOL     OW16003   4.732   5.180   2.339
 5228SOL    HW116004   4.686   5.252   2.287
 5228SOL    HW216005   4.728   5.200   2.437
 5229SOL     OW16006   4.075   5.525   2.715
 5229SOL    HW116007   4.125   5.439   2.721
 5229SOL    HW216008   4.140   5.602   2.712
 5230SOL     OW16009   5.519   4.790   2.735
 5230SOL    HW116010   5.457   4.775   2.659
 5230SOL    HW216011   5.467   4.801   2.820
 5231SOL     OW16012   4.951   5.274   3.368
 5231SOL    HW116013   4.957   5.197   3.432
 5231SOL    HW216014   4.899   5.248   3.288
 5232SOL     OW16015   4.045   4.667   2.104
 5232SOL    HW116016   4.127   4.706   2.062
 5232SOL    HW216017   4.018   4.585   2.055
 5233SOL     OW16018   5.182   4.459   2.590
 5233SOL    HW116019   5.177   4.394   2.665
 5233SOL    HW216020   5.262   4.518   2.603
 5234SOL     OW16021   4.185   4.990   3.589
 5234SOL    HW116022   4.135   4.991   3.503
 5234SOL    HW216023   4.122   4.972   3.665
 5235SOL     OW16024   4.835   5.500   2.099
 5235SOL    HW116025   4.775   5.438   2.149
 5235SOL    HW216026   4.866   5.456   2.014
 5236SOL     OW16027   3.926   4.009   3.360
 5236SOL    HW116028   3.846   4.069   3.347
 5236SOL    HW216029   3.916   3.960   3.446
 5237SOL     OW16030   5.356   5.101   1.943
 5237SOL    HW116031   5.324   5.195   1.933
 5237SOL    HW216032   5.280   5.038   1.931
 5238SOL     OW16033   4.188   5.467   2.185
 5238SOL    HW116034   4.221   5.506   2.271
 5238SOL    HW216035   4.264   5.460   2.120
 5239SOL     OW16036   5.124   3.831   2.288
 5239SOL    HW116037   5.100   3.794   2.198
 5239SOL    HW216038   5.223   3.847   2.292
 5240SOL     OW16039   3.973   5.509   3.103
 5240SOL    HW116040   4.030   5.444   3.153
 5240SOL    HW216041   3.957   5.476   3.010
 5241SOL     OW16042   4.664   5.422   2.766
 5241SOL    HW116043   4.744   5.365   2.787
 5241SOL    HW216044   4.615   5.382   2.689
 5242SOL     OW16045   4.106   4.424   2.342
 5242SOL    HW116046   4.151   4.334   2.339
 5242SOL    HW216047   4.012   4.413   2.375
 5243SOL     OW16048   5.271   3.946   3.591
 5243SOL    HW116049   5.266   3.983   3.683
 5243SOL    HW216050   5.199   3.877   3.579
 5244SOL     OW16051   4.338   3.846   1.979
 5244SOL    HW116052   4.436   3.824   1.986
 5244SOL    HW216053   4.307   3.829   1.886
 5245SOL     OW16054   4.505   3.988   3.611
 5245SOL    HW116055   4.572   3.927   3.654
 5245SOL    HW216056   4.432   4.007   3.676
 5246SOL     OW16057   4.612   5.238   3.057
 5246SOL    HW116058   4.589   5.213   2.963
 5246SOL    HW216059   4.673   5.169   3.096
 5247SOL     OW16060   5.075   4.314   3.295
 5247SOL    HW116061   5.103   4.271   3.380
 5247SOL    HW216062   5.100   4.410   3.296
 5248SOL     OW16063   4.527   5.126   2.786
 5248SOL    HW116064   4.617   5.140   2.744
 5248SOL    HW216065   4.456   5.128   2.715
 5249SOL     OW16066   4.646   4.227   2.761
 5249SOL    HW116067   4.621   4.218   2.665
 5249SOL    HW216068   4.694   4.145   2.792
 5250SOL     OW16069   4.263   3.788   2.374
 5250SOL    HW116070   4.182   3.789   2.432
 5250SOL    HW216071   4.266   3.871   2.319
 5251SOL     OW16072   5.158   4.912   1.903
 5251SOL    HW116073   5.190   4.836   1.960
 5251SOL    HW216074   5.066   4.939   1.933
 5252SOL     OW16075   4.021   3.759   2.033
 5252SOL    HW116076   4.070   3.843   2.012
 5252SOL    HW216077   4.083   3.694   2.078
 5253SOL     OW16078   4.659   3.960   2.342
 5253SOL    HW116079   4.611   4.001   2.264
 5253SOL    HW216080   4.758   3.958   2.323
 5254SOL     OW16081   4.800   4.407   3.326
 5254SOL    HW116082   4.720   4.346   3.329
 5254SOL    HW216083   4.881   4.354   3.302
 5255SOL     OW16084   4.951   5.294   2.655
 5255SOL    HW116085   4.972   5.368   2.590
 5255SOL    HW216086   5.019   5.294   2.728
 5256SOL     OW16087   4.183   4.876   2.603
 5256SOL    HW116088   4.112   4.849   2.668
 5256SOL    HW216089   4.157   4.848   2.510
 5257SOL     OW16090   4.995   5.521   2.453
 5257SOL    HW116091   5.039   5.585   2.389
 5257SOL    HW216092   4.945   5.573   2.523
 5258SOL     OW16093   4.756   4.273   1.878
 5258SOL    HW116094   4.715   4.355   1.839
 5258SOL    HW216095   4.820   4.299   1.951
 5259SOL     OW16096   3.802   4.280   3.248
 5259SOL    HW116097   3.894   4.279   3.207
 5259SOL    HW216098   3.796   4.354   3.315
 5260SOL     OW16099   4.285   3.946   3.009
 5260SOL    HW116100   4.323   3.862   3.046
 5260SOL    HW216101   4.197   3.965   3.053
 5261SOL     OW16102   4.590   4.178   2.504
 5261SOL    HW116103   4.558   4.250   2.442
 5261SOL    HW216104   4.614   4.097   2.451
 5262SOL     OW16105   4.741   3.763   2.615
 5262SOL    HW116106   4.669   3.768   2.546
 5262SOL    HW216107   4.717   3.694   2.684
 5263SOL     OW16108   5.153   4.897   2.729
 5263SOL    HW116109   5.098   4.813   2.722
 5263SOL    HW216110   5.179   4.926   2.637
 5264SOL     OW16111   5.190   4.314   2.854
 5264SOL    HW116112   5.160   4.219   2.861
 5264SOL    HW216113   5.263   4.330   2.920
 5265SOL     OW16114   5.581   4.557   2.239
 5265SOL    HW116115   5.623   4.493   2.303
 5265SOL    HW216116   5.543   4.506   2.161
 5266SOL     OW16117   4.212   5.109   2.036
 5266SOL    HW116118   4.125   5.094   2.083
 5266SOL    HW216119   4.195   5.135   1.941
 5267SOL     OW16120   5.388   5.004   2.519
 5267SOL    HW116121   5.487   5.012   2.533
 5267SOL    HW216122   5.343   5.088   2.550
 5268SOL     OW16123   5.114   4.299   1.940
 5268SOL    HW116124   5.060   4.278   2.021
 5268SOL    HW216125   5.205   4.258   1.949
 5269SOL     OW16126   4.251   3.980   2.190
 5269SOL    HW116127   4.278   3.921   2.115
 5269SOL    HW216128   4.251   4.075   2.159
 5270SOL     OW16129   5.478   4.947   3.450
 5270SOL    HW116130   5.569   4.908   3.437
 5270SOL    HW216131   5.486   5.043   3.474
 5271SOL     OW16132   4.788   5.071   3.202
 5271SOL    HW116133   4.708   5.048   3.257
 5271SOL    HW216134   4.871   5.045   3.251
 5272SOL     OW16135   5.316   5.353   3.487
 5272SOL    HW116136   5.343   5.387   3.397
 5272SOL    HW216137   5.395   5.315   3.533
 5273SOL     OW16138   4.835   4.919   2.962
 5273SOL    HW116139   4.795   4.963   3.043
 5273SOL    HW216140   4.794   4.956   2.879
 5274SOL     OW16141   5.362   4.823   2.941
 5274SOL    HW116142   5.367   4.904   3.000
 5274SOL    HW216143   5.276   4.825   2.890
 5275SOL     OW16144   4.639   3.813   3.264
 5275SOL    HW116145   4.664   3.793   3.169
 5275SOL    HW216146   4.711   3.869   3.306
 5276SOL     OW16147   4.704   4.840   3.581
 5276SOL    HW116148   4.605   4.846   3.591
 5276SOL    HW216149   4.727   4.760   3.525
 5277SOL     OW16150   4.429   4.774   2.230
 5277SOL    HW116151   4.415   4.781   2.329
 5277SOL    HW216152   4.513   4.723   2.212
 5278SOL     OW16153   4.134   4.537   3.113
 5278SOL    HW116154   4.220   4.549   3.163
 5278SOL    HW216155   4.092   4.450   3.140
 5279SOL     OW16156   4.998   4.110   3.124
 5279SOL    HW116157   5.019   4.184   3.188
 5279SOL    HW216158   4.909   4.127   3.081
 5280SOL     OW16159   3.788   5.288   3.193
 5280SOL    HW116160   3.742   5.370   3.159
 5280SOL    HW216161   3.886   5.307   3.202
 5281SOL     OW16162   4.091   4.824   2.363
 5281SOL    HW116163   4.084   4.907   2.307
 5281SOL    HW216164   4.095   4.744   2.303
 5282SOL     OW16165   4.290   4.261   2.727
 5282SOL    HW116166   4.302   4.327   2.653
 5282SOL    HW216167   4.336   4.295   2.810
 5283SOL     OW16168   4.976   5.072   2.250
 5283SOL    HW116169   5.026   5.149   2.290
 5283SOL    HW216170   4.881   5.074   2.282
 5284SOL     OW16171   4.996   5.169   3.004
 5284SOL    HW116172   5.043   5.182   3.091
 5284SOL    HW216173   4.930   5.095   3.013
 5285SOL     OW16174   5.306   4.363   2.334
 5285SOL    HW116175   5.275   4.424   2.407
 5285SOL    HW216176   5.356   4.415   2.265
 5286SOL     OW16177   4.078   5.234   3.191
 5286SOL    HW116178   4.057   5.190   3.104
 5286SOL    HW216179   4.175   5.260   3.194
 5287SOL     OW16180   4.126   4.475   3.460
 5287SOL    HW116181   4.194   4.530   3.413
 5287SOL    HW216182   4.166   4.387   3.487
 5288SOL     OW16183   5.311   4.503   3.532
 5288SOL    HW116184   5.219   4.541   3.527
 5288SOL    HW216185   5.371   4.550   3.467
 5289SOL     OW16186   4.737   3.829   3.632
 5289SOL    HW116187   4.743   3.914   3.580
 5289SOL    HW216188   4.769   3.753   3.575
 5290SOL     OW16189   4.228   3.774   3.602
 5290SOL    HW116190   4.186   3.717   3.532
 5290SOL    HW216191   4.162   3.843   3.634
 5291SOL     OW16192   4.297   4.594   2.891
 5291SOL    HW116193   4.341   4.683   2.882
 5291SOL    HW216194   4.234   4.594   2.968
 5292SOL     OW16195   5.084   4.586   2.907
 5292SOL    HW116196   5.009   4.586   2.841
 5292SOL    HW216197   5.121   4.494   2.916
 5293SOL     OW16198   4.933   4.249   2.137
 5293SOL    HW116199   4.946   4.165   2.191
 5293SOL    HW216200   4.904   4.323   2.197
 5294SOL     OW16201   4.031   3.937   3.093
 5294SOL    HW116202   4.008   3.974   3.183
 5294SOL    HW216203   4.001   3.842   3.087
 5295SOL     OW16204   3.761   5.034   3.144
 5295SOL    HW116205   3.814   4.985   3.212
 5295SOL    HW216206   3.783   5.132   3.149
 5296SOL     OW16207   4.456   4.358   2.926
 5296SOL    HW116208   4.515   4.332   2.850
 5296SOL    HW216209   4.428   4.454   2.915
 5297SOL     OW16210   5.452   4.659   3.716
 5297SOL    HW116211   5.406   4.652   3.627
 5297SOL    HW216212   5.390   4.703   3.782
 5298SOL     OW16213   4.031   3.787   2.480
 5298SOL    HW116214   4.020   3.881   2.513
 5298SOL    HW216215   4.026   3.724   2.557
 5299SOL     OW16216   5.346   4.091   2.236
 5299SOL    HW116217   5.348   4.015   2.300
 5299SOL    HW216218   5.298   4.168   2.276
 5300SOL     OW16219   4.747   4.490   2.828
 5300SOL    HW116220   4.762   4.511   2.924
 5300SOL    HW216221   4.717   4.395   2.819
 5301SOL     OW16222   4.704   5.297   3.562
 5301SOL    HW116223   4.684   5.341   3.474
 5301SOL    HW216224   4.743   5.206   3.546
 5302SOL     OW16225   5.583   5.242   3.467
 5302SOL    HW116226   5.597   5.269   3.372
 5302SOL    HW216227   5.666   5.264   3.520
 5303SOL     OW16228   4.074   4.622   3.666
 5303SOL    HW116229   4.150   4.666   3.714
 5303SOL    HW216230   4.109   4.575   3.584
 5304SOL     OW16231   5.264   3.998   1.987
 5304SOL    HW116232   5.203   3.923   2.010
 5304SOL    HW216233   5.286   4.050   2.070
 5305SOL     OW16234   5.027   4.562   1.904
 5305SOL    HW116235   5.061   4.469   1.919
 5305SOL    HW216236   5.045   4.589   1.809
 5306SOL     OW16237   4.792   5.057   2.711
 5306SOL    HW116238   4.799   4.973   2.656
 5306SOL    HW216239   4.854   5.126   2.675
 5307SOL     OW16240   4.043   4.534   2.811
 5307SOL    HW116241   4.136   4.570   2.816
 5307SOL    HW216242   4.037   4.449   2.863
 5308SOL     OW16243   4.063   4.233   2.868
 5308SOL    HW116244   4.011   4.150   2.851
 5308SOL    HW216245   4.140   4.238   2.804
 5309SOL     OW16246   4.862   4.104   3.540
 5309SOL    HW116247   4.817   4.167   3.604
 5309SOL    HW216248   4.955   4.135   3.523
 5310SOL     OW16249   4.884   3.931   3.339
 5310SOL    HW116250   4.884   3.995   3.416
 5310SOL    HW216251   4.912   3.979   3.256
 5311SOL     OW16252   3.732   5.050   2.062
 5311SOL    HW116253   3.639   5.071   2.031
 5311SOL    HW216254   3.742   4.951   2.075
 5312SOL     OW16255   3.812   5.525   2.789
 5312SOL    HW116256   3.770   5.439   2.762
 5312SOL    HW216257   3.906   5.528   2.755
 5313SOL     OW16258   4.228   5.292   2.772
 5313SOL    HW116259   4.294   5.366   2.781
 5313SOL    HW216260   4.272   5.213   2.730
 5314SOL     OW16261   4.726   4.520   3.100
 5314SOL    HW116262   4.767   4.488   3.186
 5314SOL    HW216263   4.630   4.493   3.097
 5315SOL     OW16264   3.764   4.268   2.976
 5315SOL    HW116265   3.849   4.235   2.935
 5315SOL    HW216266   3.777   4.283   3.074
 5316SOL     OW16267   3.913   4.244   3.584
 5316SOL    HW116268   3.972   4.204   3.514
 5316SOL    HW216269   3.855   4.315   3.543
 5317SOL     OW16270   5.093   4.674   3.522
 5317SOL    HW116271   5.132   4.763   3.542
 5317SOL    HW216272   5.103   4.654   3.425
 5318SOL     OW16273   4.539   4.296   2.187
 5318SOL    HW116274   4.546   4.207   2.141
 5318SOL    HW216275   4.445   4.330   2.179
 5319SOL     OW16276   5.381   4.328   3.068
 5319SOL    HW116277   5.343   4.259   3.130
 5319SOL    HW216278   5.463   4.292   3.024
 5320SOL     OW16279   3.976   5.288   3.606
 5320SOL    HW116280   3.946   5.345   3.682
 5320SOL    HW216281   3.969   5.191   3.632
 5321SOL     OW16282   4.395   4.188   3.131
 5321SOL    HW116283   4.361   4.099   3.101
 5321SOL    HW216284   4.421   4.242   3.051
 5322SOL     OW16285   4.654   5.402   3.327
 5322SOL    HW116286   4.630   5.384   3.232
 5322SOL    HW216287   4.684   5.496   3.337
 5323SOL     OW16288   4.197   4.224   2.053
 5323SOL    HW116289   4.258   4.304   2.057
 5323SOL    HW216290   4.102   4.255   2.060
 5324SOL     OW16291   3.883   4.861   3.328
 5324SOL    HW116292   3.905   4.800   3.404
 5324SOL    HW216293   3.893   4.812   3.242
 5325SOL     OW16294   5.071   4.783   3.096
 5325SOL    HW116295   5.095   4.720   3.022
 5325SOL    HW216296   4.981   4.823   3.078
 5326SOL     OW16297   5.026   4.579   2.171
 5326SOL    HW116298   4.940   4.548   2.213
 5326SOL    HW216299   5.022   4.565   2.072
 5327SOL     OW16300   5.483   5.471   3.016
 5327SOL    HW116301   5.544   5.501   2.943
 5327SOL    HW216302   5.445   5.382   2.994
 5328SOL     OW16303   4.976   5.455   2.990
 5328SOL    HW116304   5.060   5.460   2.936
 5328SOL    HW216305   4.953   5.359   3.008
 5329SOL     OW16306   3.807   4.982   2.884
 5329SOL    HW116307   3.802   4.981   2.984
 5329SOL    HW216308   3.724   4.941   2.846
 5330SOL     OW16309   4.412   5.386   3.578
 5330SOL    HW116310   4.356   5.467   3.587
 5330SOL    HW216311   4.464   5.390   3.492
 5331SOL     OW16312   5.450   3.859   2.385
 5331SOL    HW116313   5.523   3.842   2.318
 5331SOL    HW216314   5.419   3.772   2.423
 5332SOL     OW16315   5.112   5.297   2.339
 5332SOL    HW116316   5.179   5.309   2.265
 5332SOL    HW216317   5.072   5.386   2.362
 5333SOL     OW16318   3.854   5.518   3.713
 5333SOL    HW116319   3.813   5.444   3.766
 5333SOL    HW216320   3.918   5.569   3.771
 5334SOL     OW16321   5.004   4.651   2.534
 5334SOL    HW116322   5.064   4.570   2.536
 5334SOL    HW216323   5.044   4.720   2.474
 5335SOL     OW16324   4.554   4.997   3.284
 5335SOL    HW116325   4.549   5.030   3.379
 5335SOL    HW216326   4.468   5.016   3.238
 5336SOL     OW16327   4.396   5.340   2.016
 5336SOL    HW116328   4.405   5.350   1.917
 5336SOL    HW216329   4.356   5.251   2.037
 5337SOL     OW16330   5.374   5.444   3.256
 5337SOL    HW116331   5.427   5.454   3.172
 5337SOL    HW216332   5.347   5.534   3.290
 5338SOL     OW16333   5.565   3.899   2.825
 5338SOL    HW116334   5.604   3.814   2.789
 5338SOL    HW216335   5.467   3.901   2.806
 5339SOL     OW16336   3.987   4.050   2.582
 5339SOL    HW116337   3.908   4.101   2.548
 5339SOL    HW216338   3.978   4.035   2.680
 5340SOL     OW16339   4.918   5.336   1.893
 5340SOL    HW116340   4.924   5.243   1.930
 5340SOL    HW216341   4.859   5.336   1.813
 5341SOL     OW16342   4.546   4.726   3.234
 5341SOL    HW116343   4.586   4.725   3.142
 5341SOL    HW216344   4.556   4.818   3.274
 5342SOL     OW16345   4.640   4.634   2.153
 5342SOL    HW116346   4.703   4.672   2.085
 5342SOL    HW216347   4.680   4.551   2.192
 5343SOL     OW16348   5.228   5.331   1.906
 5343SOL    HW116349   5.136   5.368   1.913
 5343SOL    HW216350   5.266   5.351   1.816
 5344SOL     OW16351   4.096   5.012   3.352
 5344SOL    HW116352   4.083   5.105   3.318
 5344SOL    HW216353   4.012   4.960   3.339
 5345SOL     OW16354   5.338   5.016   3.151
 5345SOL    HW116355   5.398   5.019   3.231
 5345SOL    HW216356   5.263   5.080   3.164
 5346SOL     OW16357   4.763   4.822   2.558
 5346SOL    HW116358   4.693   4.775   2.612
 5346SOL    HW216359   4.822   4.754   2.515
 5347SOL     OW16360   4.738   3.960   2.833
 5347SOL    HW116361   4.730   3.924   2.740
 5347SOL    HW216362   4.736   3.884   2.898
 5348SOL     OW16363   4.314   5.211   2.353
 5348SOL    HW116364   4.356   5.153   2.283
 5348SOL    HW216365   4.270   5.290   2.309
 5349SOL     OW16366   5.433   4.109   3.243
 5349SOL    HW116367   5.506   4.178   3.247
 5349SOL    HW216368   5.461   4.034   3.184
 5350SOL     OW16369   3.979   5.072   2.152
 5350SOL    HW116370   3.883   5.073   2.125
 5350SOL    HW216371   3.991   5.125   2.236
 5351SOL     OW16372   3.829   4.737   3.588
 5351SOL    HW116373   3.752   4.704   3.642
 5351SOL    HW216374   3.914   4.707   3.630
 5352SOL     OW16375   4.396   3.927   3.351
 5352SOL    HW116376   4.486   3.911   3.311
 5352SOL    HW216377   4.404   3.932   3.450
 5353SOL     OW16378   3.799   4.069   1.895
 5353SOL    HW116379   3.707   4.041   1.866
 5353SOL    HW216380   3.830   4.146   1.839
 5354SOL     OW16381   5.164   4.580   3.260
 5354SOL    HW116382   5.107   4.632   3.197
 5354SOL    HW216383   5.260   4.592   3.236
 5355SOL     OW16384   3.796   3.890   2.180
 5355SOL    HW116385   3.779   3.973   2.126
 5355SOL    HW216386   3.886   3.853   2.158
 5356SOL     OW16387   4.907   5.059   1.981
 5356SOL    HW116388   4.808   5.048   1.983
 5356SOL    HW216389   4.941   5.074   2.074
 5357SOL     OW16390   4.337   4.566   3.293
 5357SOL    HW116391   4.393   4.647   3.276
 5357SOL    HW216392   4.396   4.486   3.296
 5358SOL     OW16393   5.217   5.491   2.821
 5358SOL    HW116394   5.250   5.555   2.752
 5358SOL    HW216395   5.283   5.485   2.896
 5359SOL     OW16396   4.440   4.289   3.570
 5359SOL    HW116397   4.459   4.354   3.644
 5359SOL    HW216398   4.500   4.209   3.579
 5360SOL     OW16399   5.174   4.944   3.495
 5360SOL    HW116400   5.165   4.934   3.594
 5360SOL    HW216401   5.270   4.937   3.469
 5361SOL     OW16402   4.114   5.465   3.422
 5361SOL    HW116403   4.023   5.506   3.420
 5361SOL    HW216404   4.107   5.371   3.454
 5362SOL     OW16405   5.398   4.607   3.116
 5362SOL    HW116406   5.371   4.518   3.079
 5362SOL    HW216407   5.399   4.675   3.043
 5363SOL     OW16408   4.949   4.049   2.311
 5363SOL    HW116409   5.014   3.975   2.300
 5363SOL    HW216410   4.969   4.099   2.395
 5364SOL     OW16411   4.318   4.469   2.514
 5364SOL    HW116412   4.368   4.554   2.495
 5364SOL    HW216413   4.230   4.471   2.466
 5365SOL     OW16414   5.501   4.066   3.504
 5365SOL    HW116415   5.484   4.097   3.410
 5365SOL    HW216416   5.417   4.029   3.542
 5366SOL     OW16417   5.454   4.658   3.379
 5366SOL    HW116418   5.492   4.749   3.394
 5366SOL    HW216419   5.446   4.641   3.280
 5367SOL     OW16420   4.583   5.098   1.878
 5367SOL    HW116421   4.537   5.113   1.966
 5367SOL    HW216422   4.627   5.183   1.848
 5368SOL     OW16423   4.385   5.514   2.815
 5368SOL    HW116424   4.339   5.602   2.802
 5368SOL    HW216425   4.484   5.526   2.808
 5369SOL     OW16426   4.583   4.680   2.723
 5369SOL    HW116427   4.637   4.611   2.771
 5369SOL    HW216428   4.551   4.749   2.789
 5370SOL     OW16429   4.807   4.708   1.949
 5370SOL    HW116430   4.784   4.761   1.867
 5370SOL    HW216431   4.888   4.652   1.930
 5371SOL     OW16432   5.585   5.293   2.713
 5371SOL    HW116433   5.514   5.281   2.643
 5371SOL    HW216434   5.586   5.214   2.773
 5372SOL     OW16435   3.945   5.038   3.706
 5372SOL    HW116436   3.880   4.965   3.685
 5372SOL    HW216437   3.949   5.052   3.804
 5373SOL     OW16438   3.803   4.964   2.515
 5373SOL    HW116439   3.802   4.917   2.603
 5373SOL    HW216440   3.885   4.936   2.464
 5374SOL     OW16441   4.396   5.115   3.486
 5374SOL    HW116442   4.318   5.065   3.524
 5374SOL    HW216443   4.393   5.210   3.517
 5375SOL     OW16444   5.548   3.916   3.089
 5375SOL    HW116445   5.544   3.826   3.133
 5375SOL    HW216446   5.551   3.905   2.990
 5376SOL     OW16447   4.152   4.148   2.382
 5376SOL    HW116448   4.182   4.076   2.320
 5376SOL    HW216449   4.113   4.108   2.465
 5377SOL     OW16450   5.429   5.211   2.966
 5377SOL    HW116451   5.336   5.186   2.939
 5377SOL    HW216452   5.455   5.161   3.048
 5378SOL     OW16453   4.041   4.271   3.142
 5378SOL    HW116454   4.079   4.212   3.214
 5378SOL    HW216455   4.081   4.245   3.054
 5379SOL     OW16456   4.536   5.310   2.549
 5379SOL    HW116457   4.568   5.320   2.455
 5379SOL    HW216458   4.457   5.248   2.551
 5380SOL     OW16459   4.725   3.758   3.016
 5380SOL    HW116460   4.662   3.686   2.985
 5380SOL    HW216461   4.818   3.722   3.016
 5381SOL     OW16462   4.494   5.054   2.163
 5381SOL    HW116463   4.448   4.967   2.180
 5381SOL    HW216464   4.585   5.051   2.204
 5382SOL     OW16465   4.342   5.291   3.146
 5382SOL    HW116466   4.337   5.373   3.203
 5382SOL    HW216467   4.431   5.288   3.101
 5383SOL     OW16468   5.076   3.776   2.030
 5383SOL    HW116469   5.111   3.735   1.946
 5383SOL    HW216470   4.986   3.738   2.050
 5384SOL     OW16471   5.024   4.177   2.553
 5384SOL    HW116472   4.965   4.257   2.557
 5384SOL    HW216473   5.039   4.142   2.646
 5385SOL     OW16474   5.317   3.945   2.744
 5385SOL    HW116475   5.233   3.944   2.798
 5385SOL    HW216476   5.319   4.028   2.688
 5386SOL     OW16477   3.763   4.801   2.162
 5386SOL    HW116478   3.862   4.790   2.153
 5386SOL    HW216479   3.723   4.715   2.194
 5387SOL     OW16480   4.599   5.370   2.199
 5387SOL    HW116481   4.522   5.335   2.145
 5387SOL    HW216482   4.567   5.441   2.261
 5388SOL     OW16483   3.954   4.352   3.837
 5388SOL    HW116484   3.861   4.350   3.874
 5388SOL    HW216485   3.955   4.313   3.745
 5389SOL     OW16486   3.949   3.999   4.720
 5389SOL    HW116487   3.984   3.982   4.812
 5389SOL    HW216488   3.861   3.954   4.708
 5390SOL     OW16489   3.743   4.092   4.371
 5390SOL    HW116490   3.661   4.135   4.410
 5390SOL    HW216491   3.715   4.019   4.308
 5391SOL     OW16492   4.293   4.999   4.889
 5391SOL    HW116493   4.200   4.992   4.852
 5391SOL    HW216494   4.304   5.088   4.933
 5392SOL     OW16495   5.279   5.235   4.427
 5392SOL    HW116496   5.222   5.219   4.508
 5392SOL    HW216497   5.220   5.245   4.347
 5393SOL     OW16498   4.859   4.427   4.441
 5393SOL    HW116499   4.916   4.505   4.416
 5393SOL    HW216500   4.799   4.453   4.517
 5394SOL     OW16501   5.479   4.331   3.955
 5394SOL    HW116502   5.467   4.318   3.856
 5394SOL    HW216503   5.449   4.250   4.004
 5395SOL     OW16504   4.492   4.868   4.747
 5395SOL    HW116505   4.414   4.885   4.807
 5395SOL    HW216506   4.526   4.955   4.711
 5396SOL     OW16507   4.574   4.522   5.547
 5396SOL    HW116508   4.570   4.598   5.612
 5396SOL    HW216509   4.596   4.558   5.456
 5397SOL     OW16510   4.409   4.736   4.389
 5397SOL    HW116511   4.478   4.720   4.459
 5397SOL    HW216512   4.336   4.793   4.427
 5398SOL     OW16513   4.410   4.885   5.527
 5398SOL    HW116514   4.470   4.964   5.541
 5398SOL    HW216515   4.324   4.916   5.486
 5399SOL     OW16516   4.059   5.159   4.785
 5399SOL    HW116517   3.981   5.128   4.732
 5399SOL    HW216518   4.117   5.217   4.728
 5400SOL     OW16519   5.184   5.229   5.063
 5400SOL    HW116520   5.208   5.323   5.089
 5400SOL    HW216521   5.168   5.175   5.145
 5401SOL     OW16522   4.162   4.116   5.223
 5401SOL    HW116523   4.244   4.060   5.232
 5401SOL    HW216524   4.081   4.058   5.227
 5402SOL     OW16525   5.327   4.171   4.461
 5402SOL    HW116526   5.253   4.217   4.411
 5402SOL    HW216527   5.378   4.239   4.514
 5403SOL     OW16528   3.955   5.437   4.207
 5403SOL    HW116529   3.989   5.514   4.261
 5403SOL    HW216530   3.999   5.437   4.117
 5404SOL     OW16531   4.851   5.065   5.414
 5404SOL    HW116532   4.898   5.065   5.502
 5404SOL    HW216533   4.803   4.978   5.403
 5405SOL     OW16534   3.954   5.158   4.262
 5405SOL    HW116535   3.928   5.254   4.262
 5405SOL    HW216536   3.883   5.104   4.307
 5406SOL     OW16537   3.964   4.815   4.610
 5406SOL    HW116538   3.978   4.731   4.662
 5406SOL    HW216539   3.909   4.879   4.665
 5407SOL     OW16540   4.344   5.510   5.163
 5407SOL    HW116541   4.252   5.493   5.198
 5407SOL    HW216542   4.372   5.602   5.189
 5408SOL     OW16543   4.330   4.688   3.847
 5408SOL    HW116544   4.337   4.772   3.793
 5408SOL    HW216545   4.376   4.701   3.935
 5409SOL     OW16546   5.318   3.838   5.204
 5409SOL    HW116547   5.300   3.905   5.132
 5409SOL    HW216548   5.315   3.884   5.293
 5410SOL     OW16549   3.846   4.367   4.287
 5410SOL    HW116550   3.801   4.279   4.304
 5410SOL    HW216551   3.845   4.421   4.371
 5411SOL     OW16552   5.566   5.491   4.083
 5411SOL    HW116553   5.620   5.462   4.163
 5411SOL    HW216554   5.596   5.581   4.054
 5412SOL     OW16555   3.751   5.320   3.841
 5412SOL    HW116556   3.732   5.224   3.862
 5412SOL    HW216557   3.718   5.378   3.916
 5413SOL     OW16558   5.413   4.646   4.336
 5413SOL    HW116559   5.508   4.617   4.344
 5413SOL    HW216560   5.405   4.711   4.261
 5414SOL     OW16561   5.365   4.832   4.156
 5414SOL    HW116562   5.451   4.834   4.104
 5414SOL    HW216563   5.379   4.879   4.244
 5415SOL     OW16564   3.837   4.461   5.321
 5415SOL    HW116565   3.925   4.448   5.366
 5415SOL    HW216566   3.824   4.558   5.299
 5416SOL     OW16567   4.337   5.089   4.450
 5416SOL    HW116568   4.288   5.002   4.459
 5416SOL    HW216569   4.314   5.132   4.363
 5417SOL     OW16570   5.017   4.952   5.147
 5417SOL    HW116571   5.054   4.879   5.089
 5417SOL    HW216572   5.069   4.957   5.232
 5418SOL     OW16573   4.533   3.728   4.226
 5418SOL    HW116574   4.573   3.819   4.217
 5418SOL    HW216575   4.433   3.736   4.232
 5419SOL     OW16576   3.921   4.700   4.988
 5419SOL    HW116577   4.010   4.655   4.974
 5419SOL    HW216578   3.848   4.635   4.969
 5420SOL     OW16579   5.249   4.723   3.914
 5420SOL    HW116580   5.186   4.647   3.927
 5420SOL    HW216581   5.297   4.741   4.000
 5421SOL     OW16582   4.911   5.516   5.340
 5421SOL    HW116583   4.935   5.576   5.264
 5421SOL    HW216584   4.918   5.421   5.310
 5422SOL     OW16585   4.041   3.975   5.525
 5422SOL    HW116586   4.112   4.046   5.531
 5422SOL    HW216587   3.953   4.014   5.553
 5423SOL     OW16588   5.190   5.141   4.677
 5423SOL    HW116589   5.131   5.147   4.757
 5423SOL    HW216590   5.175   5.053   4.631
 5424SOL     OW16591   5.391   5.438   4.296
 5424SOL    HW116592   5.350   5.415   4.208
 5424SOL    HW216593   5.373   5.364   4.361
 5425SOL     OW16594   4.322   4.453   3.994
 5425SOL    HW116595   4.346   4.522   3.926
 5425SOL    HW216596   4.244   4.486   4.048
 5426SOL     OW16597   5.005   4.069   4.668
 5426SOL    HW116598   4.919   4.019   4.655
 5426SOL    HW216599   5.067   4.015   4.724
 5427SOL     OW16600   5.300   5.386   4.031
 5427SOL    HW116601   5.389   5.432   4.034
 5427SOL    HW216602   5.279   5.362   3.936
 5428SOL     OW16603   4.531   4.329   5.189
 5428SOL    HW116604   4.484   4.326   5.278
 5428SOL    HW216605   4.480   4.274   5.123
 5429SOL     OW16606   5.118   4.193   5.398
 5429SOL    HW116607   5.098   4.236   5.486
 5429SOL    HW216608   5.196   4.131   5.407
 5430SOL     OW16609   4.697   4.614   5.296
 5430SOL    HW116610   4.743   4.530   5.267
 5430SOL    HW216611   4.641   4.648   5.221
 5431SOL     OW16612   4.715   4.134   4.966
 5431SOL    HW116613   4.638   4.168   5.020
 5431SOL    HW216614   4.681   4.083   4.887
 5432SOL     OW16615   4.765   4.425   4.153
 5432SOL    HW116616   4.791   4.421   4.249
 5432SOL    HW216617   4.680   4.374   4.139
 5433SOL     OW16618   3.800   4.535   4.513
 5433SOL    HW116619   3.899   4.523   4.522
 5433SOL    HW216620   3.776   4.630   4.534
 5434SOL     OW16621   3.854   5.545   5.295
 5434SOL    HW116622   3.844   5.530   5.394
 5434SOL    HW216623   3.768   5.581   5.259
 5435SOL     OW16624   4.589   4.072   3.919
 5435SOL    HW116625   4.648   4.135   3.870
 5435SOL    HW216626   4.608   3.978   3.890
 5436SOL     OW16627   5.443   4.309   5.555
 5436SOL    HW116628   5.417   4.398   5.519
 5436SOL    HW216629   5.441   4.241   5.482
 5437SOL     OW16630   5.086   4.868   4.269
 5437SOL    HW116631   5.169   4.839   4.221
 5437SOL    HW216632   5.037   4.935   4.213
 5438SOL     OW16633   4.274   3.920   4.609
 5438SOL    HW116634   4.269   3.915   4.709
 5438SOL    HW216635   4.276   4.016   4.580
 5439SOL     OW16636   4.732   5.180   4.201
 5439SOL    HW116637   4.686   5.252   4.149
 5439SOL    HW216638   4.728   5.200   4.299
 5440SOL     OW16639   4.075   5.525   4.577
 5440SOL    HW116640   4.125   5.439   4.583
 5440SOL    HW216641   4.140   5.602   4.574
 5441SOL     OW16642   5.519   4.790   4.597
 5441SOL    HW116643   5.457   4.775   4.521
 5441SOL    HW216644   5.467   4.801   4.682
 5442SOL     OW16645   4.951   5.274   5.230
 5442SOL    HW116646   4.957   5.197   5.294
 5442SOL    HW216647   4.899   5.248   5.150
 5443SOL     OW16648   4.045   4.667   3.966
 5443SOL    HW116649   4.127   4.706   3.924
 5443SOL    HW216650   4.018   4.585   3.917
 5444SOL     OW16651   5.182   4.459   4.452
 5444SOL    HW116652   5.177   4.394   4.527
 5444SOL    HW216653   5.262   4.518   4.465
 5445SOL     OW16654   4.185   4.990   5.451
 5445SOL    HW116655   4.135   4.991   5.365
 5445SOL    HW216656   4.122   4.972   5.527
 5446SOL     OW16657   4.835   5.500   3.961
 5446SOL    HW116658   4.775   5.438   4.011
 5446SOL    HW216659   4.866   5.456   3.876
 5447SOL     OW16660   3.926   4.009   5.222
 5447SOL    HW116661   3.846   4.069   5.209
 5447SOL    HW216662   3.916   3.960   5.308
 5448SOL     OW16663   5.356   5.101   3.805
 5448SOL    HW116664   5.324   5.195   3.795
 5448SOL    HW216665   5.280   5.038   3.793
 5449SOL     OW16666   4.188   5.467   4.047
 5449SOL    HW116667   4.221   5.506   4.133
 5449SOL    HW216668   4.264   5.460   3.982
 5450SOL     OW16669   5.124   3.831   4.150
 5450SOL    HW116670   5.100   3.794   4.060
 5450SOL    HW216671   5.223   3.847   4.154
 5451SOL     OW16672   3.973   5.509   4.965
 5451SOL    HW116673   4.030   5.444   5.015
 5451SOL    HW216674   3.957   5.476   4.872
 5452SOL     OW16675   4.664   5.422   4.628
 5452SOL    HW116676   4.744   5.365   4.649
 5452SOL    HW216677   4.615   5.382   4.551
 5453SOL     OW16678   4.106   4.424   4.204
 5453SOL    HW116679   4.151   4.334   4.201
 5453SOL    HW216680   4.012   4.413   4.237
 5454SOL     OW16681   5.271   3.946   5.453
 5454SOL    HW116682   5.266   3.983   5.545
 5454SOL    HW216683   5.199   3.877   5.441
 5455SOL     OW16684   4.338   3.846   3.841
 5455SOL    HW116685   4.436   3.824   3.848
 5455SOL    HW216686   4.307   3.829   3.748
 5456SOL     OW16687   4.505   3.988   5.473
 5456SOL    HW116688   4.572   3.927   5.516
 5456SOL    HW216689   4.432   4.007   5.538
 5457SOL     OW16690   4.612   5.238   4.919
 5457SOL    HW116691   4.589   5.213   4.825
 5457SOL    HW216692   4.673   5.169   4.958
 5458SOL     OW16693   5.075   4.314   5.157
 5458SOL    HW116694   5.103   4.271   5.242
 5458SOL    HW216695   5.100   4.410   5.158
 5459SOL     OW16696   4.527   5.126   4.648
 5459SOL    HW116697   4.617   5.140   4.606
 5459SOL    HW216698   4.456   5.128   4.577
 5460SOL     OW16699   4.646   4.227   4.623
 5460SOL    HW116700   4.621   4.218   4.527
 5460SOL    HW216701   4.694   4.145   4.654
 5461SOL     OW16702   4.263   3.788   4.236
 5461SOL    HW116703   4.182   3.789   4.294
 5461SOL    HW216704   4.266   3.871   4.181
 5462SOL     OW16705   5.158   4.912   3.765
 5462SOL    HW116706   5.190   4.836   3.822
 5462SOL    HW216707   5.066   4.939   3.795
 5463SOL     OW16708   4.021   3.759   3.895
 5463SOL    HW116709   4.070   3.843   3.874
 5463SOL    HW216710   4.083   3.694   3.940
 5464SOL     OW16711   4.659   3.960   4.204
 5464SOL    HW116712   4.611   4.001   4.126
 5464SOL    HW216713   4.758   3.958   4.185
 5465SOL     OW16714   4.800   4.407   5.188
 5465SOL    HW116715   4.720   4.346   5.191
 5465SOL    HW216716   4.881   4.354   5.164
 5466SOL     OW16717   4.951   5.294   4.517
 5466SOL    HW116718   4.972   5.368   4.452
 5466SOL    HW216719   5.019   5.294   4.590
 5467SOL     OW16720   4.183   4.876   4.465
 5467SOL    HW116721   4.112   4.849   4.530
 5467SOL    HW216722   4.157   4.848   4.372
 5468SOL     OW16723   4.995   5.521   4.315
 5468SOL    HW116724   5.039   5.585   4.251
 5468SOL    HW216725   4.945   5.573   4.385
 5469SOL     OW16726   4.756   4.273   3.740
 5469SOL    HW116727   4.715   4.355   3.701
 5469SOL    HW216728   4.820   4.299   3.813
 5470SOL     OW16729   3.802   4.280   5.110
 5470SOL    HW116730   3.894   4.279   5.069
 5470SOL    HW216731   3.796   4.354   5.177
 5471SOL     OW16732   4.285   3.946   4.871
 5471SOL    HW116733   4.323   3.862   4.908
 5471SOL    HW216734   4.197   3.965   4.915
 5472SOL     OW16735   4.590   4.178   4.366
 5472SOL    HW116736   4.558   4.250   4.304
 5472SOL    HW216737   4.614   4.097   4.313
 5473SOL     OW16738   4.741   3.763   4.477
 5473SOL    HW116739   4.669   3.768   4.408
 5473SOL    HW216740   4.717   3.694   4.546
 5474SOL     OW16741   5.153   4.897   4.591
 5474SOL    HW116742   5.098   4.813   4.584
 5474SOL    HW216743   5.179   4.926   4.499
 5475SOL     OW16744   5.190   4.314   4.716
 5475SOL    HW116745   5.160   4.219   4.723
 5475SOL    HW216746   5.263   4.330   4.782
 5476SOL     OW16747   5.581   4.557   4.101
 5476SOL    HW116748   5.623   4.493   4.165
 5476SOL    HW216749   5.543   4.506   4.023
 5477SOL     OW16750   4.212   5.109   3.898
 5477SOL    HW116751   4.125   5.094   3.945
 5477SOL    HW216752   4.195   5.135   3.803
 5478SOL     OW16753   5.388   5.004   4.381
 5478SOL    HW116754   5.487   5.012   4.395
 5478SOL    HW216755   5.343   5.088   4.412
 5479SOL     OW16756   5.114   4.299   3.802
 5479SOL    HW116757   5.060   4.278   3.883
 5479SOL    HW216758   5.205   4.258   3.811
 5480SOL     OW16759   4.251   3.980   4.052
 5480SOL    HW116760   4.278   3.921   3.977
 5480SOL    HW216761   4.251   4.075   4.021
 5481SOL     OW16762   5.478   4.947   5.312
 5481SOL    HW116763   5.569   4.908   5.299
 5481SOL    HW216764   5.486   5.043   5.336
 5482SOL     OW16765   4.788   5.071   5.064
 5482SOL    HW116766   4.708   5.048   5.119
 5482SOL    HW216767   4.871   5.045   5.113
 5483SOL     OW16768   5.316   5.353   5.349
 5483SOL    HW116769   5.343   5.387   5.259
 5483SOL    HW216770   5.395   5.315   5.395
 5484SOL     OW16771   4.835   4.919   4.824
 5484SOL    HW116772   4.795   4.963   4.905
 5484SOL    HW216773   4.794   4.956   4.741
 5485SOL     OW16774   5.362   4.823   4.803
 5485SOL    HW116775   5.367   4.904   4.862
 5485SOL    HW216776   5.276   4.825   4.752
 5486SOL     OW16777   4.639   3.813   5.126
 5486SOL    HW116778   4.664   3.793   5.031
 5486SOL    HW216779   4.711   3.869   5.168
 5487SOL     OW16780   4.704   4.840   5.443
 5487SOL    HW116781   4.605   4.846   5.453
 5487SOL    HW216782   4.727   4.760   5.387
 5488SOL     OW16783   4.429   4.774   4.092
 5488SOL    HW116784   4.415   4.781   4.191
 5488SOL    HW216785   4.513   4.723   4.074
 5489SOL     OW16786   4.134   4.537   4.975
 5489SOL    HW116787   4.220   4.549   5.025
 5489SOL    HW216788   4.092   4.450   5.002
 5490SOL     OW16789   4.998   4.110   4.986
 5490SOL    HW116790   5.019   4.184   5.050
 5490SOL    HW216791   4.909   4.127   4.943
 5491SOL     OW16792   3.788   5.288   5.055
 5491SOL    HW116793   3.742   5.370   5.021
 5491SOL    HW216794   3.886   5.307   5.064
 5492SOL     OW16795   4.091   4.824   4.225
 5492SOL    HW116796   4.084   4.907   4.169
 5492SOL    HW216797   4.095   4.744   4.165
 5493SOL     OW16798   4.290   4.261   4.589
 5493SOL    HW116799   4.302   4.327   4.515
 5493SOL    HW216800   4.336   4.295   4.672
 5494SOL     OW16801   4.976   5.072   4.112
 5494SOL    HW116802   5.026   5.149   4.152
 5494SOL    HW216803   4.881   5.074   4.144
 5495SOL     OW16804   4.996   5.169   4.866
 5495SOL    HW116805   5.043   5.182   4.953
 5495SOL    HW216806   4.930   5.095   4.875
 5496SOL     OW16807   5.306   4.363   4.196
 5496SOL    HW116808   5.275   4.424   4.269
 5496SOL    HW216809   5.356   4.415   4.127
 5497SOL     OW16810   4.078   5.234   5.053
 5497SOL    HW116811   4.057   5.190   4.966
 5497SOL    HW216812   4.175   5.260   5.056
 5498SOL     OW16813   4.126   4.475   5.322
 5498SOL    HW116814   4.194   4.530   5.275
 5498SOL    HW216815   4.166   4.387   5.349
 5499SOL     OW16816   5.311   4.503   5.394
 5499SOL    HW116817   5.219   4.541   5.389
 5499SOL    HW216818   5.371   4.550   5.329
 5500SOL     OW16819   4.737   3.829   5.494
 5500SOL    HW116820   4.743   3.914   5.442
 5500SOL    HW216821   4.769   3.753   5.437
 5501SOL     OW16822   4.228   3.774   5.464
 5501SOL    HW116823   4.186   3.717   5.394
 5501SOL    HW216824   4.162   3.843   5.496
 5502SOL     OW16825   4.297   4.594   4.753
 5502SOL    HW116826   4.341   4.683   4.744
 5502SOL    HW216827   4.234   4.594   4.830
 5503SOL     OW16828   5.084   4.586   4.769
 5503SOL    HW116829   5.009   4.586   4.703
 5503SOL    HW216830   5.121   4.494   4.778
 5504SOL     OW16831   4.933   4.249   3.999
 5504SOL    HW116832   4.946   4.165   4.053
 5504SOL    HW216833   4.904   4.323   4.059
 5505SOL     OW16834   4.031   3.937   4.955
 5505SOL    HW116835   4.008   3.974   5.045
 5505SOL    HW216836   4.001   3.842   4.949
 5506SOL     OW16837   3.761   5.034   5.006
 5506SOL    HW116838   3.814   4.985   5.074
 5506SOL    HW216839   3.783   5.132   5.011
 5507SOL     OW16840   4.456   4.358   4.788
 5507SOL    HW116841   4.515   4.332   4.712
 5507SOL    HW216842   4.428   4.454   4.777
 5508SOL     OW16843   5.452   4.659   5.578
 5508SOL    HW116844   5.406   4.652   5.489
 5508SOL    HW216845   5.390   4.703   5.644
 5509SOL     OW16846   4.031   3.787   4.342
 5509SOL    HW116847   4.020   3.881   4.375
 5509SOL    HW216848   4.026   3.724   4.419
 5510SOL     OW16849   5.346   4.091   4.098
 5510SOL    HW116850   5.348   4.015   4.162
 5510SOL    HW216851   5.298   4.168   4.138
 5511SOL     OW16852   4.747   4.490   4.690
 5511SOL    HW116853   4.762   4.511   4.786
 5511SOL    HW216854   4.717   4.395   4.681
 5512SOL     OW16855   4.704   5.297   5.424
 5512SOL    HW116856   4.684   5.341   5.336
 5512SOL    HW216857   4.743   5.206   5.408
 5513SOL     OW16858   5.583   5.242   5.329
 5513SOL    HW116859   5.597   5.269   5.234
 5513SOL    HW216860   5.666   5.264   5.382
 5514SOL     OW16861   4.074   4.622   5.528
 5514SOL    HW116862   4.150   4.666   5.576
 5514SOL    HW216863   4.109   4.575   5.446
 5515SOL     OW16864   5.264   3.998   3.849
 5515SOL    HW116865   5.203   3.923   3.872
 5515SOL    HW216866   5.286   4.050   3.932
 5516SOL     OW16867   5.027   4.562   3.766
 5516SOL    HW116868   5.061   4.469   3.781
 5516SOL    HW216869   5.045   4.589   3.671
 5517SOL     OW16870   4.792   5.057   4.573
 5517SOL    HW116871   4.799   4.973   4.518
 5517SOL    HW216872   4.854   5.126   4.537
 5518SOL     OW16873   4.043   4.534   4.673
 5518SOL    HW116874   4.136   4.570   4.678
 5518SOL    HW216875   4.037   4.449   4.725
 5519SOL     OW16876   4.063   4.233   4.730
 5519SOL    HW116877   4.011   4.150   4.713
 5519SOL    HW216878   4.140   4.238   4.666
 5520SOL     OW16879   4.862   4.104   5.402
 5520SOL    HW116880   4.817   4.167   5.466
 5520SOL    HW216881   4.955   4.135   5.385
 5521SOL     OW16882   4.884   3.931   5.201
 5521SOL    HW116883   4.884   3.995   5.278
 5521SOL    HW216884   4.912   3.979   5.118
 5522SOL     OW16885   3.732   5.050   3.924
 5522SOL    HW116886   3.639   5.071   3.893
 5522SOL    HW216887   3.742   4.951   3.937
 5523SOL     OW16888   3.812   5.525   4.651
 5523SOL    HW116889   3.770   5.439   4.624
 5523SOL    HW216890   3.906   5.528   4.617
 5524SOL     OW16891   4.228   5.292   4.634
 5524SOL    HW116892   4.294   5.366   4.643
 5524SOL    HW216893   4.272   5.213   4.592
 5525SOL     OW16894   4.726   4.520   4.962
 5525SOL    HW116895   4.767   4.488   5.048
 5525SOL    HW216896   4.630   4.493   4.959
 5526SOL     OW16897   3.764   4.268   4.838
 5526SOL    HW116898   3.849   4.235   4.797
 5526SOL    HW216899   3.777   4.283   4.936
 5527SOL     OW16900   3.913   4.244   5.446
 5527SOL    HW116901   3.972   4.204   5.376
 5527SOL    HW216902   3.855   4.315   5.405
 5528SOL     OW16903   5.093   4.674   5.384
 5528SOL    HW116904   5.132   4.763   5.404
 5528SOL    HW216905   5.103   4.654   5.287
 5529SOL     OW16906   4.539   4.296   4.049
 5529SOL    HW116907   4.546   4.207   4.003
 5529SOL    HW216908   4.445   4.330   4.041
 5530SOL     OW16909   5.381   4.328   4.930
 5530SOL    HW116910   5.343   4.259   4.992
 5530SOL    HW216911   5.463   4.292   4.886
 5531SOL     OW16912   3.976   5.288   5.468
 5531SOL    HW116913   3.946   5.345   5.544
 5531SOL    HW216914   3.969   5.191   5.494
 5532SOL     OW16915   4.395   4.188   4.993
 5532SOL    HW116916   4.361   4.099   4.963
 5532SOL    HW216917   4.421   4.242   4.913
 5533SOL     OW16918   4.654   5.402   5.189
 5533SOL    HW116919   4.630   5.384   5.094
 5533SOL    HW216920   4.684   5.496   5.199
 5534SOL     OW16921   4.197   4.224   3.915
 5534SOL    HW116922   4.258   4.304   3.919
 5534SOL    HW216923   4.102   4.255   3.922
 5535SOL     OW16924   3.883   4.861   5.190
 5535SOL    HW116925   3.905   4.800   5.266
 5535SOL    HW216926   3.893   4.812   5.104
 5536SOL     OW16927   5.071   4.783   4.958
 5536SOL    HW116928   5.095   4.720   4.884
 5536SOL    HW216929   4.981   4.823   4.940
 5537SOL     OW16930   5.026   4.579   4.033
 5537SOL    HW116931   4.940   4.548   4.075
 5537SOL    HW216932   5.022   4.565   3.934
 5538SOL     OW16933   5.483   5.471   4.878
 5538SOL    HW116934   5.544   5.501   4.805
 5538SOL    HW216935   5.445   5.382   4.856
 5539SOL     OW16936   4.976   5.455   4.852
 5539SOL    HW116937   5.060   5.460   4.798
 5539SOL    HW216938   4.953   5.359   4.870
 5540SOL     OW16939   3.807   4.982   4.746
 5540SOL    HW116940   3.802   4.981   4.846
 5540SOL    HW216941   3.724   4.941   4.708
 5541SOL     OW16942   4.412   5.386   5.440
 5541SOL    HW116943   4.356   5.467   5.449
 5541SOL    HW216944   4.464   5.390   5.354
 5542SOL     OW16945   5.450   3.859   4.247
 5542SOL    HW116946   5.523   3.842   4.180
 5542SOL    HW216947   5.419   3.772   4.285
 5543SOL     OW16948   5.112   5.297   4.201
 5543SOL    HW116949   5.179   5.309   4.127
 5543SOL    HW216950   5.072   5.386   4.224
 5544SOL     OW16951   3.854   5.518   5.575
 5544SOL    HW116952   3.813   5.444   5.628
 5544SOL    HW216953   3.918   5.569   5.633
 5545SOL     OW16954   5.004   4.651   4.396
 5545SOL    HW116955   5.064   4.570   4.398
 5545SOL    HW216956   5.044   4.720   4.336
 5546SOL     OW16957   4.554   4.997   5.146
 5546SOL    HW116958   4.549   5.030   5.241
 5546SOL    HW216959   4.468   5.016   5.100
 5547SOL     OW16960   4.396   5.340   3.878
 5547SOL    HW116961   4.405   5.350   3.779
 5547SOL    HW216962   4.356   5.251   3.899
 5548SOL     OW16963   5.374   5.444   5.118
 5548SOL    HW116964   5.427   5.454   5.034
 5548SOL    HW216965   5.347   5.534   5.152
 5549SOL     OW16966   5.565   3.899   4.687
 5549SOL    HW116967   5.604   3.814   4.651
 5549SOL    HW216968   5.467   3.901   4.668
 5550SOL     OW16969   3.987   4.050   4.444
 5550SOL    HW116970   3.908   4.101   4.410
 5550SOL    HW216971   3.978   4.035   4.542
 5551SOL     OW16972   4.918   5.336   3.755
 5551SOL    HW116973   4.924   5.243   3.792
 5551SOL    HW216974   4.859   5.336   3.675
 5552SOL     OW16975   4.546   4.726   5.096
 5552SOL    HW116976   4.586   4.725   5.004
 5552SOL    HW216977   4.556   4.818   5.136
 5553SOL     OW16978   4.640   4.634   4.015
 5553SOL    HW116979   4.703   4.672   3.947
 5553SOL    HW216980   4.680   4.551   4.054
 5554SOL     OW16981   5.228   5.331   3.768
 5554SOL    HW116982   5.136   5.368   3.775
 5554SOL    HW216983   5.266   5.351   3.678
 5555SOL     OW16984   4.096   5.012   5.214
 5555SOL    HW116985   4.083   5.105   5.180
 5555SOL    HW216986   4.012   4.960   5.201
 5556SOL     OW16987   5.338   5.016   5.013
 5556SOL    HW116988   5.398   5.019   5.093
 5556SOL    HW216989   5.263   5.080   5.026
 5557SOL     OW16990   4.763   4.822   4.420
 5557SOL    HW116991   4.693   4.775   4.474
 5557SOL    HW216992   4.822   4.754   4.377
 5558SOL     OW16993   4.738   3.960   4.695
 5558SOL    HW116994   4.730   3.924   4.602
 5558SOL    HW216995   4.736   3.884   4.760
 5559SOL     OW16996   4.314   5.211   4.215
 5559SOL    HW116997   4.356   5.153   4.145
 5559SOL    HW216998   4.270   5.290   4.171
 5560SOL     OW16999   5.433   4.109   5.105
 5560SOL    HW117000   5.506   4.178   5.109
 5560SOL    HW217001   5.461   4.034   5.046
 5561SOL     OW17002   3.979   5.072   4.014
 5561SOL    HW117003   3.883   5.073   3.987
 5561SOL    HW217004   3.991   5.125   4.098
 5562SOL     OW17005   3.829   4.737   5.450
 5562SOL    HW117006   3.752   4.704   5.504
 5562SOL    HW217007   3.914   4.707   5.492
 5563SOL     OW17008   4.396   3.927   5.213
 5563SOL    HW117009   4.486   3.911   5.173
 5563SOL    HW217010   4.404   3.932   5.312
 5564SOL     OW17011   3.799   4.069   3.757
 5564SOL    HW117012   3.707   4.041   3.728
 5564SOL    HW217013   3.830   4.146   3.701
 5565SOL     OW17014   5.164   4.580   5.122
 5565SOL    HW117015   5.107   4.632   5.059
 5565SOL    HW217016   5.260   4.592   5.098
 5566SOL     OW17017   3.796   3.890   4.042
 5566SOL    HW117018   3.779   3.973   3.988
 5566SOL    HW217019   3.886   3.853   4.020
 5567SOL     OW17020   4.907   5.059   3.843
 5567SOL    HW117021   4.808   5.048   3.845
 5567SOL    HW217022   4.941   5.074   3.936
 5568SOL     OW17023   4.337   4.566   5.155
 5568SOL    HW117024   4.393   4.647   5.138
 5568SOL    HW217025   4.396   4.486   5.158
 5569SOL     OW17026   5.217   5.491   4.683
 5569SOL    HW117027   5.250   5.555   4.614
 5569SOL    HW217028   5.283   5.485   4.758
 5570SOL     OW17029   4.440   4.289   5.432
 5570SOL    HW117030   4.459   4.354   5.506
 5570SOL    HW217031   4.500   4.209   5.441
 5571SOL     OW17032   5.174   4.944   5.357
 5571SOL    HW117033   5.165   4.934   5.456
 5571SOL    HW217034   5.270   4.937   5.331
 5572SOL     OW17035   4.114   5.465   5.284
 5572SOL    HW117036   4.023   5.506   5.282
 5572SOL    HW217037   4.107   5.371   5.316
 5573SOL     OW17038   5.398   4.607   4.978
 5573SOL    HW117039   5.371   4.518   4.941
 5573SOL    HW217040   5.399   4.675   4.905
 5574SOL     OW17041   4.949   4.049   4.173
 5574SOL    HW117042   5.014   3.975   4.162
 5574SOL    HW217043   4.969   4.099   4.257
 5575SOL     OW17044   4.318   4.469   4.376
 5575SOL    HW117045   4.368   4.554   4.357
 5575SOL    HW217046   4.230   4.471   4.328
 5576SOL     OW17047   5.501   4.066   5.366
 5576SOL    HW117048   5.484   4.097   5.272
 5576SOL    HW217049   5.417   4.029   5.404
 5577SOL     OW17050   5.454   4.658   5.241
 5577SOL    HW117051   5.492   4.749   5.256
 5577SOL    HW217052   5.446   4.641   5.142
 5578SOL     OW17053   4.583   5.098   3.740
 5578SOL    HW117054   4.537   5.113   3.828
 5578SOL    HW217055   4.627   5.183   3.710
 5579SOL     OW17056   4.385   5.514   4.677
 5579SOL    HW117057   4.339   5.602   4.664
 5579SOL    HW217058   4.484   5.526   4.670
 5580SOL     OW17059   4.583   4.680   4.585
 5580SOL    HW117060   4.637   4.611   4.633
 5580SOL    HW217061   4.551   4.749   4.651
 5581SOL     OW17062   4.807   4.708   3.811
 5581SOL    HW117063   4.784   4.761   3.729
 5581SOL    HW217064   4.888   4.652   3.792
 5582SOL     OW17065   5.585   5.293   4.575
 5582SOL    HW117066   5.514   5.281   4.505
 5582SOL    HW217067   5.586   5.214   4.635
 5583SOL     OW17068   3.945   5.038   5.568
 5583SOL    HW117069   3.880   4.965   5.547
 5583SOL    HW217070   3.949   5.052   5.666
 5584SOL     OW17071   3.803   4.964   4.377
 5584SOL    HW117072   3.802   4.917   4.465
 5584SOL    HW217073   3.885   4.936   4.326
 5585SOL     OW17074   4.396   5.115   5.348
 5585SOL    HW117075   4.318   5.065   5.386
 5585SOL    HW217076   4.393   5.210   5.379
 5586SOL     OW17077   5.548   3.916   4.951
 5586SOL    HW117078   5.544   3.826   4.995
 5586SOL    HW217079   5.551   3.905   4.852
 5587SOL     OW17080   4.152   4.148   4.244
 5587SOL    HW117081   4.182   4.076   4.182
 5587SOL    HW217082   4.113   4.108   4.327
 5588SOL     OW17083   5.429   5.211   4.828
 5588SOL    HW117084   5.336   5.186   4.801
 5588SOL    HW217085   5.455   5.161   4.910
 5589SOL     OW17086   4.041   4.271   5.004
 5589SOL    HW117087   4.079   4.212   5.076
 5589SOL    HW217088   4.081   4.245   4.916
 5590SOL     OW17089   4.536   5.310   4.411
 5590SOL    HW117090   4.568   5.320   4.317
 5590SOL    HW217091   4.457   5.248   4.413
 5591SOL     OW17092   5.148   3.938   4.836
 5591SOL    HW117093   5.200   3.873   4.891
 5591SOL    HW217094   5.099   4.001   4.897
 5592SOL     OW17095   4.725   3.758   4.878
 5592SOL    HW117096   4.662   3.686   4.847
 5592SOL    HW217097   4.818   3.722   4.878
 5593SOL     OW17098   4.494   5.054   4.025
 5593SOL    HW117099   4.448   4.967   4.042
 5593SOL    HW217100   4.585   5.051   4.066
 5594SOL     OW17101   4.342   5.291   5.008
 5594SOL    HW117102   4.337   5.373   5.065
 5594SOL    HW217103   4.431   5.288   4.963
 5595SOL     OW17104   5.076   3.776   3.892
 5595SOL    HW117105   5.111   3.735   3.808
 5595SOL    HW217106   4.986   3.738   3.912
 5596SOL     OW17107   5.024   4.177   4.415
 5596SOL    HW117108   4.965   4.257   4.419
 5596SOL    HW217109   5.039   4.142   4.508
 5597SOL     OW17110   5.317   3.945   4.606
 5597SOL    HW117111   5.233   3.944   4.660
 5597SOL    HW217112   5.319   4.028   4.550
 5598SOL     OW17113   3.763   4.801   4.024
 5598SOL    HW117114   3.862   4.790   4.015
 5598SOL    HW217115   3.723   4.715   4.056
 5599SOL     OW17116   4.599   5.370   4.061
 5599SOL    HW117117   4.522   5.335   4.007
 5599SOL    HW217118   4.567   5.441   4.123
 5600NA      NA17119   1.657   0.604   3.068
 5601NA      NA17120   0.830   1.273   3.284
 5602NA      NA17121   1.281   2.207   0.944
 5603NA      NA17122   0.354   3.372   5.053
 5604NA      NA17123   1.709   4.109   1.381
 5605NA      NA17124   0.354   5.234   3.191
 5606NA      NA17125   1.622   4.091   2.236
 5607NA      NA17126   0.197   4.700   4.988
 5608NA      NA17127   3.256   4.193   3.536
 5609NA      NA17128   2.181   4.534   4.673
 5610NA      NA17129   4.951   1.550   3.368
 5611NA      NA17130   5.027   0.838   3.766
 5612NA      NA17131   5.565   2.037   2.825
 5613NA      NA17132   4.763   2.960   4.420
 5614NA      NA17133   4.732   5.180   0.477
 5615NA      NA17134   5.148   3.938   2.974
 5616CL      CL17135   0.159   2.999   1.466
 5617CL      CL17136   0.307   3.787   0.618
 5618CL      CL17137   0.859   5.098   1.878
 5619CL      CL17138   0.317   4.271   3.142
 5620CL      CL17139   2.903   0.701   4.153
 5621CL      CL17140   2.475   0.842   5.155
 5622CL      CL17141   2.875   1.967   5.494
 5623CL      CL17142   3.320   4.459   2.590
 5624CL      CL17143   4.228   0.050   5.464
 5625CL      CL17144   5.071   1.059   4.958
 5626CL      CL17145   3.945   1.314   5.568
 5627CL      CL17146   5.084   2.724   1.045
 5628CL      CL17147   4.314   3.349   0.491
 5629CL      CL17148   4.554   3.135   3.284
 5630CL      CL17149   3.949   2.137   4.720
 5631CL      CL17150   4.274   3.920   0.885
   5.59418   5.59418   5.59418
