Great Red Owns Many ACres of Sand 
  353
    1MET      N    1  -1.123  -0.938   0.904
    1MET     H1    2  -1.150  -0.961   0.811
    1MET     H2    3  -1.023  -0.936   0.911
    1MET     H3    4  -1.159  -1.007   0.967
    1MET     CA    5  -1.177  -0.806   0.940
    1MET     HA    6  -1.276  -0.814   0.931
    1MET     CB    7  -1.136  -0.770   1.084
    1MET    HB1    8  -1.149  -0.672   1.097
    1MET    HB2    9  -1.040  -0.794   1.097
    1MET     CG   10  -1.217  -0.844   1.188
    1MET    HG1   11  -1.201  -0.941   1.171
    1MET    HG2   12  -1.313  -0.822   1.167
    1MET     SD   13  -1.170  -0.794   1.354
    1MET     CE   14  -1.306  -0.862   1.449
    1MET    HE1   15  -1.292  -0.841   1.546
    1MET    HE2   16  -1.392  -0.822   1.418
    1MET    HE3   17  -1.309  -0.961   1.437
    1MET      C   18  -1.121  -0.699   0.847
    1MET      O   19  -1.034  -0.727   0.765
    2LYS      N   20  -1.173  -0.577   0.859
    2LYS      H   21  -1.243  -0.558   0.928
    2LYS     CA   22  -1.127  -0.470   0.770
    2LYS     HA   23  -1.137  -0.509   0.678
    2LYS     CB   24  -1.214  -0.346   0.788
    2LYS    HB1   25  -1.303  -0.364   0.744
    2LYS    HB2   26  -1.169  -0.269   0.742
    2LYS     CG   27  -1.240  -0.306   0.933
    2LYS    HG1   28  -1.155  -0.276   0.975
    2LYS    HG2   29  -1.276  -0.385   0.982
    2LYS     CD   30  -1.341  -0.193   0.939
    2LYS    HD1   31  -1.426  -0.222   0.894
    2LYS    HD2   32  -1.304  -0.114   0.891
    2LYS     CE   33  -1.369  -0.158   1.084
    2LYS    HE1   34  -1.285  -0.129   1.129
    2LYS    HE2   35  -1.406  -0.238   1.132
    2LYS     NZ   36  -1.470  -0.046   1.094
    2LYS    HZ1   37  -1.486  -0.025   1.190
    2LYS    HZ2   38  -1.434   0.035   1.047
    2LYS    HZ3   39  -1.555  -0.075   1.050
    2LYS      C   40  -0.979  -0.433   0.790
    2LYS      O   41  -0.920  -0.363   0.707
    3LEU      N   42  -0.919  -0.485   0.895
    3LEU      H   43  -0.973  -0.538   0.960
    3LEU     CA   44  -0.776  -0.465   0.919
    3LEU     HA   45  -0.764  -0.366   0.927
    3LEU     CB   46  -0.734  -0.536   1.048
    3LEU    HB1   47  -0.638  -0.563   1.040
    3LEU    HB2   48  -0.790  -0.618   1.059
    3LEU     CG   49  -0.748  -0.449   1.174
    3LEU     HG   50  -0.842  -0.414   1.180
    3LEU    CD1   51  -0.720  -0.533   1.298
    3LEU   HD11   52  -0.730  -0.477   1.380
    3LEU   HD12   53  -0.785  -0.609   1.302
    3LEU   HD13   54  -0.627  -0.569   1.293
    3LEU    CD2   55  -0.654  -0.329   1.168
    3LEU   HD21   56  -0.665  -0.273   1.251
    3LEU   HD22   57  -0.560  -0.361   1.162
    3LEU   HD23   58  -0.676  -0.273   1.088
    3LEU      C   59  -0.694  -0.520   0.803
    3LEU      O   60  -0.590  -0.465   0.766
    4ALA      N   61  -0.740  -0.629   0.745
    4ALA      H   62  -0.824  -0.672   0.779
    4ALA     CA   63  -0.670  -0.690   0.631
    4ALA     HA   64  -0.576  -0.707   0.661
    4ALA     CB   65  -0.738  -0.821   0.593
    4ALA    HB1   66  -0.691  -0.863   0.516
    4ALA    HB2   67  -0.736  -0.884   0.671
    4ALA    HB3   68  -0.833  -0.803   0.568
    4ALA      C   69  -0.669  -0.594   0.512
    4ALA      O   70  -0.569  -0.581   0.441
    5VAL      N   71  -0.780  -0.527   0.491
    5VAL      H   72  -0.859  -0.543   0.550
    5VAL     CA   73  -0.791  -0.430   0.382
    5VAL     HA   74  -0.764  -0.479   0.300
    5VAL     CB   75  -0.936  -0.378   0.370
    5VAL     HB   76  -0.965  -0.335   0.456
    5VAL    CG1   77  -0.945  -0.272   0.261
    5VAL   HG11   78  -1.039  -0.239   0.254
    5VAL   HG12   79  -0.884  -0.195   0.283
    5VAL   HG13   80  -0.917  -0.312   0.173
    5VAL    CG2   81  -1.031  -0.494   0.340
    5VAL   HG21   82  -1.125  -0.459   0.333
    5VAL   HG22   83  -1.005  -0.537   0.254
    5VAL   HG23   84  -1.026  -0.561   0.415
    5VAL      C   85  -0.696  -0.312   0.406
    5VAL      O   86  -0.629  -0.266   0.313
    6ASP      N   87  -0.690  -0.266   0.529
    6ASP      H   88  -0.747  -0.306   0.600
    6ASP     CA   89  -0.601  -0.155   0.563
    6ASP     HA   90  -0.628  -0.080   0.502
    6ASP     CB   91  -0.619  -0.117   0.711
    6ASP    HB1   92  -0.536  -0.073   0.743
    6ASP    HB2   93  -0.636  -0.200   0.763
    6ASP     CG   94  -0.736  -0.022   0.732
    6ASP    OD1   95  -0.800   0.017   0.633
    6ASP    OD2   96  -0.762   0.014   0.849
    6ASP      C   97  -0.454  -0.192   0.538
    6ASP      O   98  -0.376  -0.112   0.488
    7ALA      N   99  -0.418  -0.316   0.573
    7ALA      H  100  -0.485  -0.378   0.614
    7ALA     CA  101  -0.280  -0.363   0.553
    7ALA     HA  102  -0.221  -0.298   0.601
    7ALA     CB  103  -0.264  -0.503   0.613
    7ALA    HB1  104  -0.170  -0.534   0.599
    7ALA    HB2  105  -0.284  -0.500   0.711
    7ALA    HB3  106  -0.327  -0.566   0.567
    7ALA      C  107  -0.245  -0.364   0.404
    7ALA      O  108  -0.137  -0.320   0.364
    8LEU      N  109  -0.337  -0.413   0.323
    8LEU      H  110  -0.423  -0.447   0.362
    8LEU     CA  111  -0.317  -0.418   0.179
    8LEU     HA  112  -0.233  -0.471   0.166
    8LEU     CB  113  -0.436  -0.486   0.111
    8LEU    HB1  114  -0.450  -0.443   0.022
    8LEU    HB2  115  -0.517  -0.472   0.168
    8LEU     CG  116  -0.419  -0.637   0.088
    8LEU     HG  117  -0.393  -0.681   0.174
    8LEU    CD1  118  -0.550  -0.697   0.041
    8LEU   HD11  119  -0.538  -0.795   0.026
    8LEU   HD12  120  -0.620  -0.682   0.110
    8LEU   HD13  121  -0.578  -0.653  -0.045
    8LEU    CD2  122  -0.308  -0.663  -0.014
    8LEU   HD21  123  -0.298  -0.761  -0.028
    8LEU   HD22  124  -0.332  -0.619  -0.101
    8LEU   HD23  125  -0.222  -0.625   0.020
    8LEU      C  126  -0.299  -0.277   0.121
    8LEU      O  127  -0.207  -0.252   0.042
    9LEU      N  128  -0.385  -0.187   0.160
    9LEU      H  129  -0.457  -0.213   0.225
    9LEU     CA  130  -0.379  -0.049   0.112
    9LEU     HA  131  -0.384  -0.056   0.012
    9LEU     CB  132  -0.496   0.032   0.168
    9LEU    HB1  133  -0.473   0.129   0.161
    9LEU    HB2  134  -0.507   0.008   0.265
    9LEU     CG  135  -0.630   0.008   0.097
    9LEU     HG  136  -0.650  -0.090   0.094
    9LEU    CD1  137  -0.742   0.076   0.173
    9LEU   HD11  138  -0.829   0.060   0.126
    9LEU   HD12  139  -0.747   0.038   0.265
    9LEU   HD13  140  -0.724   0.174   0.177
    9LEU    CD2  141  -0.623   0.060  -0.048
    9LEU   HD21  142  -0.710   0.043  -0.094
    9LEU   HD22  143  -0.603   0.158  -0.047
    9LEU   HD23  144  -0.550   0.012  -0.097
    9LEU      C  145  -0.247   0.017   0.150
    9LEU      O  146  -0.186   0.089   0.072
   10ARG      N  147  -0.203  -0.009   0.272
   10ARG      H  148  -0.256  -0.069   0.332
   10ARG     CA  149  -0.078   0.050   0.321
   10ARG     HA  150  -0.086   0.149   0.308
   10ARG     CB  151  -0.060   0.016   0.469
   10ARG    HB1  152  -0.020  -0.075   0.478
   10ARG    HB2  153  -0.150   0.018   0.514
   10ARG     CG  154   0.031   0.117   0.537
   10ARG    HG1  155   0.000   0.210   0.515
   10ARG    HG2  156   0.124   0.105   0.505
   10ARG     CD  157   0.028   0.099   0.687
   10ARG    HD1  158   0.068   0.011   0.712
   10ARG    HD2  159  -0.066   0.104   0.720
   10ARG     NE  160   0.105   0.205   0.752
   10ARG     HE  161   0.202   0.213   0.729
   10ARG     CZ  162   0.055   0.290   0.839
   10ARG    NH1  163  -0.072   0.285   0.874
   10ARG   HH11  164  -0.132   0.215   0.835
   10ARG   HH12  165  -0.109   0.351   0.941
   10ARG    NH2  166   0.132   0.384   0.892
   10ARG   HH21  167   0.228   0.390   0.865
   10ARG   HH22  168   0.094   0.449   0.958
   10ARG      C  169   0.042  -0.001   0.241
   10ARG      O  170   0.129   0.075   0.202
   11THR      N  171   0.044  -0.131   0.215
   11THR      H  172  -0.030  -0.189   0.249
   11THR     CA  173   0.152  -0.191   0.138
   11THR     HA  174   0.236  -0.167   0.188
   11THR     CB  175   0.135  -0.343   0.129
   11THR     HB  176   0.051  -0.366   0.082
   11THR    CG2  177   0.253  -0.408   0.059
   11THR   HG21  178   0.240  -0.507   0.054
   11THR   HG22  179   0.261  -0.371  -0.034
   11THR   HG23  180   0.337  -0.388   0.109
   11THR    OG1  181   0.126  -0.398   0.262
   11THR    HG1  182   0.115  -0.497   0.256
   11THR      C  183   0.155  -0.132  -0.003
   11THR      O  184   0.261  -0.100  -0.057
   12PHE      N  185   0.039  -0.117  -0.062
   12PHE      H  186  -0.045  -0.144  -0.015
   12PHE     CA  187   0.029  -0.061  -0.196
   12PHE     HA  188   0.089  -0.116  -0.254
   12PHE     CB  189  -0.116  -0.069  -0.244
   12PHE    HB1  190  -0.171  -0.003  -0.194
   12PHE    HB2  191  -0.151  -0.161  -0.226
   12PHE     CG  192  -0.130  -0.041  -0.391
   12PHE    CD1  193  -0.090  -0.135  -0.485
   12PHE    HD1  194  -0.053  -0.223  -0.454
   12PHE    CE1  195  -0.102  -0.110  -0.621
   12PHE    HE1  196  -0.072  -0.179  -0.688
   12PHE     CZ  197  -0.154   0.011  -0.665
   12PHE     HZ  198  -0.163   0.030  -0.763
   12PHE    CE2  199  -0.194   0.107  -0.572
   12PHE    HE2  200  -0.232   0.194  -0.603
   12PHE    CD2  201  -0.182   0.080  -0.436
   12PHE    HD2  202  -0.210   0.149  -0.369
   12PHE      C  203   0.077   0.084  -0.199
   12PHE      O  204   0.146   0.127  -0.291
   13ALA      N  205   0.040   0.161  -0.097
   13ALA      H  206  -0.017   0.122  -0.025
   13ALA     CA  207   0.082   0.301  -0.089
   13ALA     HA  208   0.050   0.344  -0.173
   13ALA     CB  209   0.016   0.366   0.034
   13ALA    HB1  210   0.045   0.462   0.040
   13ALA    HB2  211  -0.083   0.361   0.025
   13ALA    HB3  212   0.045   0.318   0.117
   13ALA      C  213   0.234   0.313  -0.080
   13ALA      O  214   0.294   0.398  -0.146
   14GLU      N  215   0.296   0.227  -0.002
   14GLU      H  216   0.242   0.160   0.049
   14GLU     CA  217   0.441   0.228   0.011
   14GLU     HA  218   0.463   0.321   0.040
   14GLU     CB  219   0.486   0.125   0.115
   14GLU    HB1  220   0.574   0.087   0.087
   14GLU    HB2  221   0.418   0.052   0.120
   14GLU     CG  222   0.501   0.185   0.254
   14GLU    HG1  223   0.410   0.206   0.290
   14GLU    HG2  224   0.555   0.269   0.246
   14GLU     CD  225   0.571   0.091   0.350
   14GLU    OE1  226   0.604  -0.022   0.310
   14GLU    OE2  227   0.593   0.129   0.464
   14GLU      C  228   0.508   0.197  -0.122
   14GLU      O  229   0.605   0.261  -0.163
   15SER      N  230   0.456   0.096  -0.191
   15SER      H  231   0.377   0.047  -0.153
   15SER     CA  232   0.510   0.056  -0.320
   15SER     HA  233   0.606   0.035  -0.304
   15SER     CB  234   0.436  -0.067  -0.372
   15SER    HB1  235   0.342  -0.043  -0.398
   15SER    HB2  236   0.434  -0.139  -0.303
   15SER     OG  237   0.498  -0.120  -0.486
   15SER     HG  238   0.447  -0.200  -0.518
   15SER      C  239   0.498   0.171  -0.420
   15SER      O  240   0.591   0.202  -0.495
   16SER      N  241   0.382   0.235  -0.422
   16SER      H  242   0.310   0.205  -0.360
   16SER     CA  243   0.357   0.347  -0.511
   16SER     HA  244   0.374   0.313  -0.603
   16SER     CB  245   0.212   0.394  -0.497
   16SER    HB1  246   0.196   0.433  -0.406
   16SER    HB2  247   0.149   0.318  -0.511
   16SER     OG  248   0.181   0.493  -0.592
   16SER     HG  249   0.085   0.522  -0.581
   16SER      C  250   0.452   0.464  -0.481
   16SER      O  251   0.501   0.531  -0.573
   17ASP      N  252   0.477   0.488  -0.353
   17ASP      H  253   0.435   0.431  -0.283
   17ASP     CA  254   0.566   0.597  -0.313
   17ASP     HA  255   0.526   0.680  -0.353
   17ASP     CB  256   0.570   0.608  -0.160
   17ASP    HB1  257   0.622   0.531  -0.123
   17ASP    HB2  258   0.477   0.605  -0.124
   17ASP     CG  259   0.635   0.737  -0.113
   17ASP    OD1  260   0.608   0.842  -0.175
   17ASP    OD2  261   0.713   0.733  -0.016
   17ASP      C  262   0.708   0.577  -0.367
   17ASP      O  263   0.774   0.671  -0.412
   18LYS      N  264   0.756   0.452  -0.364
   18LYS      H  265   0.699   0.379  -0.326
   18LYS     CA  266   0.889   0.421  -0.415
   18LYS     HA  267   0.952   0.484  -0.369
   18LYS     CB  268   0.924   0.275  -0.382
   18LYS    HB1  269   0.993   0.242  -0.447
   18LYS    HB2  270   0.841   0.219  -0.390
   18LYS     CG  271   0.979   0.263  -0.240
   18LYS    HG1  272   0.922   0.316  -0.177
   18LYS    HG2  273   1.073   0.298  -0.238
   18LYS     CD  274   0.980   0.117  -0.194
   18LYS    HD1  275   0.895   0.073  -0.223
   18LYS    HD2  276   0.987   0.113  -0.094
   18LYS     CE  277   1.094   0.041  -0.252
   18LYS    HE1  278   1.180   0.084  -0.225
   18LYS    HE2  279   1.087   0.040  -0.351
   18LYS     NZ  280   1.091  -0.099  -0.200
   18LYS    HZ1  281   1.168  -0.150  -0.239
   18LYS    HZ2  282   1.099  -0.098  -0.101
   18LYS    HZ3  283   1.005  -0.142  -0.227
   18LYS      C  284   0.896   0.442  -0.566
   18LYS      O  285   0.993   0.498  -0.617
   19LEU      N  286   0.793   0.398  -0.636
   19LEU      H  287   0.718   0.352  -0.588
   19LEU     CA  288   0.786   0.414  -0.781
   19LEU     HA  289   0.872   0.375  -0.815
   19LEU     CB  290   0.665   0.338  -0.839
   19LEU    HB1  291   0.643   0.378  -0.927
   19LEU    HB2  292   0.588   0.350  -0.776
   19LEU     CG  293   0.689   0.188  -0.858
   19LEU     HG  294   0.719   0.147  -0.772
   19LEU    CD1  295   0.558   0.122  -0.900
   19LEU   HD11  296   0.573   0.024  -0.912
   19LEU   HD12  297   0.489   0.136  -0.828
   19LEU   HD13  298   0.526   0.162  -0.985
   19LEU    CD2  299   0.797   0.165  -0.965
   19LEU   HD21  300   0.811   0.067  -0.978
   19LEU   HD22  301   0.767   0.206  -1.052
   19LEU   HD23  302   0.882   0.208  -0.936
   19LEU      C  303   0.776   0.561  -0.819
   19LEU      O  304   0.836   0.606  -0.916
   20ARG      N  305   0.697   0.636  -0.743
   20ARG      H  306   0.651   0.594  -0.665
   20ARG     CA  307   0.678   0.777  -0.770
   20ARG     HA  308   0.646   0.782  -0.865
   20ARG     CB  309   0.574   0.835  -0.673
   20ARG    HB1  310   0.615   0.842  -0.582
   20ARG    HB2  311   0.495   0.773  -0.669
   20ARG     CG  312   0.526   0.972  -0.715
   20ARG    HG1  313   0.492   0.966  -0.808
   20ARG    HG2  314   0.604   1.035  -0.711
   20ARG     CD  315   0.417   1.023  -0.625
   20ARG    HD1  316   0.450   1.033  -0.531
   20ARG    HD2  317   0.339   0.960  -0.626
   20ARG     NE  318   0.370   1.153  -0.669
   20ARG     HE  319   0.310   1.155  -0.749
   20ARG     CZ  320   0.400   1.268  -0.609
   20ARG    NH1  321   0.470   1.271  -0.498
   20ARG   HH11  322   0.502   1.185  -0.457
   20ARG   HH12  323   0.492   1.358  -0.454
   20ARG    NH2  324   0.358   1.382  -0.663
   20ARG   HH21  325   0.304   1.381  -0.747
   20ARG   HH22  326   0.380   1.469  -0.619
   20ARG      C  327   0.807   0.856  -0.759
   20ARG      O  328   0.831   0.951  -0.834
   21ARG      N  329   0.888   0.817  -0.663
   21ARG      H  330   0.861   0.742  -0.602
   21ARG     CA  331   1.017   0.882  -0.646
   21ARG     HA  332   0.996   0.980  -0.645
   21ARG     CB  333   1.084   0.839  -0.516
   21ARG    HB1  334   1.123   0.748  -0.527
   21ARG    HB2  335   1.017   0.839  -0.442
   21ARG     CG  336   1.196   0.936  -0.481
   21ARG    HG1  337   1.159   1.029  -0.481
   21ARG    HG2  338   1.268   0.928  -0.550
   21ARG     CD  339   1.255   0.907  -0.345
   21ARG    HD1  340   1.298   0.817  -0.344
   21ARG    HD2  341   1.184   0.912  -0.275
   21ARG     NE  342   1.356   1.008  -0.317
   21ARG     HE  343   1.326   1.102  -0.302
   21ARG     CZ  344   1.485   0.983  -0.308
   21ARG    NH1  345   1.528   0.860  -0.317
   21ARG   HH11  346   1.464   0.785  -0.331
   21ARG   HH12  347   1.626   0.841  -0.311
   21ARG    NH2  348   1.572   1.082  -0.292
   21ARG   HH21  349   1.540   1.177  -0.287
   21ARG   HH22  350   1.670   1.062  -0.286
   21ARG      C  351   1.109   0.850  -0.762
   21ARG    OC1  352   1.119   0.756  -0.795
   21ARG    OC2  353   1.175   0.947  -0.815
   3.22502   2.47605   2.59792
