Great Red Owns Many ACres of Sand
21095
    1MET      N    1   1.905   2.021   3.792
    1MET     H1    2   1.878   1.998   3.699
    1MET     H2    3   2.005   2.023   3.799
    1MET     H3    4   1.869   1.952   3.855
    1MET     CA    5   1.851   2.153   3.828
    1MET     HA    6   1.752   2.145   3.819
    1MET     CB    7   1.892   2.189   3.972
    1MET    HB1    8   1.879   2.287   3.985
    1MET    HB2    9   1.988   2.165   3.985
    1MET     CG   10   1.811   2.115   4.076
    1MET    HG1   11   1.827   2.018   4.059
    1MET    HG2   12   1.715   2.137   4.055
    1MET     SD   13   1.858   2.165   4.242
    1MET     CE   14   1.722   2.097   4.337
    1MET    HE1   15   1.736   2.118   4.434
    1MET    HE2   16   1.636   2.137   4.306
    1MET    HE3   17   1.719   1.998   4.325
    1MET      C   18   1.907   2.260   3.735
    1MET      O   19   1.994   2.232   3.653
    2LYS      N   20   1.855   2.382   3.747
    2LYS      H   21   1.785   2.401   3.816
    2LYS     CA   22   1.901   2.489   3.658
    2LYS     HA   23   1.891   2.450   3.566
    2LYS     CB   24   1.814   2.613   3.676
    2LYS    HB1   25   1.725   2.595   3.632
    2LYS    HB2   26   1.859   2.690   3.630
    2LYS     CG   27   1.788   2.653   3.821
    2LYS    HG1   28   1.873   2.683   3.863
    2LYS    HG2   29   1.752   2.574   3.870
    2LYS     CD   30   1.687   2.766   3.827
    2LYS    HD1   31   1.602   2.737   3.782
    2LYS    HD2   32   1.724   2.845   3.779
    2LYS     CE   33   1.659   2.801   3.972
    2LYS    HE1   34   1.743   2.830   4.017
    2LYS    HE2   35   1.622   2.721   4.020
    2LYS     NZ   36   1.558   2.913   3.982
    2LYS    HZ1   37   1.542   2.934   4.078
    2LYS    HZ2   38   1.594   2.994   3.935
    2LYS    HZ3   39   1.473   2.884   3.938
    2LYS      C   40   2.049   2.526   3.678
    2LYS      O   41   2.108   2.596   3.595
    3LEU      N   42   2.109   2.474   3.783
    3LEU      H   43   2.055   2.421   3.848
    3LEU     CA   44   2.252   2.494   3.807
    3LEU     HA   45   2.264   2.593   3.815
    3LEU     CB   46   2.294   2.423   3.936
    3LEU    HB1   47   2.390   2.396   3.928
    3LEU    HB2   48   2.238   2.341   3.947
    3LEU     CG   49   2.280   2.510   4.062
    3LEU     HG   50   2.186   2.545   4.068
    3LEU    CD1   51   2.308   2.426   4.186
    3LEU   HD11   52   2.298   2.482   4.268
    3LEU   HD12   53   2.243   2.350   4.190
    3LEU   HD13   54   2.401   2.390   4.181
    3LEU    CD2   55   2.374   2.630   4.056
    3LEU   HD21   56   2.363   2.686   4.139
    3LEU   HD22   57   2.468   2.598   4.050
    3LEU   HD23   58   2.352   2.686   3.976
    3LEU      C   59   2.334   2.439   3.691
    3LEU      O   60   2.438   2.494   3.654
    4ALA      N   61   2.288   2.330   3.633
    4ALA      H   62   2.204   2.287   3.667
    4ALA     CA   63   2.358   2.269   3.519
    4ALA     HA   64   2.452   2.252   3.549
    4ALA     CB   65   2.290   2.138   3.481
    4ALA    HB1   66   2.337   2.096   3.404
    4ALA    HB2   67   2.292   2.075   3.559
    4ALA    HB3   68   2.195   2.156   3.456
    4ALA      C   69   2.359   2.365   3.400
    4ALA      O   70   2.459   2.378   3.329
    5VAL      N   71   2.248   2.432   3.379
    5VAL      H   72   2.169   2.416   3.438
    5VAL     CA   73   2.237   2.529   3.270
    5VAL     HA   74   2.264   2.480   3.188
    5VAL     CB   75   2.092   2.581   3.258
    5VAL     HB   76   2.063   2.624   3.344
    5VAL    CG1   77   2.083   2.687   3.149
    5VAL   HG11   78   1.989   2.720   3.142
    5VAL   HG12   79   2.144   2.764   3.171
    5VAL   HG13   80   2.111   2.647   3.061
    5VAL    CG2   81   1.997   2.465   3.228
    5VAL   HG21   82   1.903   2.500   3.221
    5VAL   HG22   83   2.023   2.422   3.142
    5VAL   HG23   84   2.002   2.398   3.303
    5VAL      C   85   2.332   2.647   3.294
    5VAL      O   86   2.399   2.693   3.201
    6ASP      N   87   2.338   2.693   3.417
    6ASP      H   88   2.281   2.653   3.488
    6ASP     CA   89   2.427   2.804   3.451
    6ASP     HA   90   2.400   2.879   3.390
    6ASP     CB   91   2.409   2.842   3.599
    6ASP    HB1   92   2.492   2.886   3.631
    6ASP    HB2   93   2.392   2.759   3.651
    6ASP     CG   94   2.292   2.937   3.620
    6ASP    OD1   95   2.228   2.976   3.521
    6ASP    OD2   96   2.266   2.973   3.737
    6ASP      C   97   2.574   2.767   3.426
    6ASP      O   98   2.652   2.847   3.376
    7ALA      N   99   2.610   2.643   3.461
    7ALA      H  100   2.543   2.581   3.502
    7ALA     CA  101   2.748   2.596   3.441
    7ALA     HA  102   2.807   2.661   3.489
    7ALA     CB  103   2.764   2.456   3.501
    7ALA    HB1  104   2.858   2.425   3.487
    7ALA    HB2  105   2.744   2.459   3.599
    7ALA    HB3  106   2.701   2.393   3.455
    7ALA      C  107   2.783   2.595   3.292
    7ALA      O  108   2.891   2.639   3.252
    8LEU      N  109   2.691   2.546   3.211
    8LEU      H  110   2.605   2.512   3.250
    8LEU     CA  111   2.711   2.541   3.067
    8LEU     HA  112   2.795   2.488   3.054
    8LEU     CB  113   2.592   2.473   2.999
    8LEU    HB1  114   2.578   2.516   2.910
    8LEU    HB2  115   2.511   2.487   3.056
    8LEU     CG  116   2.609   2.322   2.976
    8LEU     HG  117   2.635   2.278   3.062
    8LEU    CD1  118   2.478   2.262   2.929
    8LEU   HD11  119   2.490   2.164   2.914
    8LEU   HD12  120   2.408   2.277   2.998
    8LEU   HD13  121   2.450   2.306   2.843
    8LEU    CD2  122   2.720   2.296   2.874
    8LEU   HD21  123   2.730   2.198   2.860
    8LEU   HD22  124   2.696   2.340   2.787
    8LEU   HD23  125   2.806   2.334   2.908
    8LEU      C  126   2.729   2.682   3.009
    8LEU      O  127   2.821   2.707   2.930
    9LEU      N  128   2.643   2.772   3.048
    9LEU      H  129   2.571   2.746   3.113
    9LEU     CA  130   2.649   2.910   3.000
    9LEU     HA  131   2.644   2.903   2.900
    9LEU     CB  132   2.532   2.991   3.056
    9LEU    HB1  133   2.555   3.088   3.049
    9LEU    HB2  134   2.521   2.967   3.153
    9LEU     CG  135   2.398   2.967   2.985
    9LEU     HG  136   2.378   2.869   2.982
    9LEU    CD1  137   2.286   3.035   3.061
    9LEU   HD11  138   2.199   3.019   3.014
    9LEU   HD12  139   2.281   2.997   3.153
    9LEU   HD13  140   2.304   3.133   3.065
    9LEU    CD2  141   2.405   3.019   2.840
    9LEU   HD21  142   2.318   3.002   2.794
    9LEU   HD22  143   2.425   3.117   2.841
    9LEU   HD23  144   2.478   2.971   2.791
    9LEU      C  145   2.781   2.976   3.038
    9LEU      O  146   2.842   3.048   2.960
   10ARG      N  147   2.825   2.950   3.160
   10ARG      H  148   2.772   2.890   3.220
   10ARG     CA  149   2.950   3.009   3.209
   10ARG     HA  150   2.942   3.108   3.196
   10ARG     CB  151   2.968   2.975   3.357
   10ARG    HB1  152   3.008   2.884   3.366
   10ARG    HB2  153   2.878   2.977   3.402
   10ARG     CG  154   3.059   3.076   3.425
   10ARG    HG1  155   3.028   3.169   3.403
   10ARG    HG2  156   3.152   3.064   3.393
   10ARG     CD  157   3.056   3.058   3.575
   10ARG    HD1  158   3.096   2.970   3.600
   10ARG    HD2  159   2.962   3.063   3.608
   10ARG     NE  160   3.133   3.164   3.640
   10ARG     HE  161   3.230   3.172   3.617
   10ARG     CZ  162   3.083   3.249   3.727
   10ARG    NH1  163   2.956   3.244   3.762
   10ARG   HH11  164   2.896   3.174   3.723
   10ARG   HH12  165   2.919   3.310   3.829
   10ARG    NH2  166   3.160   3.343   3.780
   10ARG   HH21  167   3.256   3.349   3.753
   10ARG   HH22  168   3.122   3.408   3.846
   10ARG      C  169   3.070   2.958   3.129
   10ARG      O  170   3.157   3.034   3.090
   11THR      N  171   3.072   2.828   3.103
   11THR      H  172   2.998   2.770   3.137
   11THR     CA  173   3.180   2.768   3.026
   11THR     HA  174   3.264   2.792   3.076
   11THR     CB  175   3.163   2.616   3.017
   11THR     HB  176   3.079   2.593   2.970
   11THR    CG2  177   3.281   2.551   2.947
   11THR   HG21  178   3.268   2.452   2.942
   11THR   HG22  179   3.289   2.588   2.854
   11THR   HG23  180   3.365   2.571   2.997
   11THR    OG1  181   3.154   2.561   3.150
   11THR    HG1  182   3.143   2.462   3.144
   11THR      C  183   3.183   2.827   2.885
   11THR      O  184   3.289   2.859   2.831
   12PHE      N  185   3.067   2.842   2.826
   12PHE      H  186   2.983   2.815   2.873
   12PHE     CA  187   3.057   2.898   2.692
   12PHE     HA  188   3.117   2.843   2.634
   12PHE     CB  189   2.912   2.890   2.644
   12PHE    HB1  190   2.857   2.956   2.694
   12PHE    HB2  191   2.877   2.798   2.662
   12PHE     CG  192   2.898   2.918   2.497
   12PHE    CD1  193   2.938   2.824   2.403
   12PHE    HD1  194   2.975   2.736   2.434
   12PHE    CE1  195   2.926   2.849   2.267
   12PHE    HE1  196   2.956   2.780   2.200
   12PHE     CZ  197   2.874   2.970   2.223
   12PHE     HZ  198   2.865   2.989   2.125
   12PHE    CE2  199   2.834   3.066   2.316
   12PHE    HE2  200   2.796   3.153   2.285
   12PHE    CD2  201   2.846   3.039   2.452
   12PHE    HD2  202   2.818   3.108   2.519
   12PHE      C  203   3.105   3.043   2.689
   12PHE      O  204   3.174   3.086   2.597
   13ALA      N  205   3.068   3.120   2.791
   13ALA      H  206   3.011   3.081   2.863
   13ALA     CA  207   3.110   3.260   2.799
   13ALA     HA  208   3.078   3.303   2.715
   13ALA     CB  209   3.044   3.325   2.922
   13ALA    HB1  210   3.073   3.421   2.928
   13ALA    HB2  211   2.945   3.320   2.913
   13ALA    HB3  212   3.073   3.277   3.005
   13ALA      C  213   3.262   3.272   2.808
   13ALA      O  214   3.322   3.357   2.742
   14GLU      N  215   3.324   3.186   2.886
   14GLU      H  216   3.270   3.119   2.937
   14GLU     CA  217   3.469   3.187   2.899
   14GLU     HA  218   3.491   3.280   2.928
   14GLU     CB  219   3.514   3.084   3.003
   14GLU    HB1  220   3.602   3.046   2.975
   14GLU    HB2  221   3.446   3.011   3.008
   14GLU     CG  222   3.529   3.144   3.142
   14GLU    HG1  223   3.438   3.165   3.178
   14GLU    HG2  224   3.583   3.228   3.134
   14GLU     CD  225   3.599   3.050   3.238
   14GLU    OE1  226   3.632   2.937   3.198
   14GLU    OE2  227   3.621   3.088   3.352
   14GLU      C  228   3.536   3.156   2.766
   14GLU      O  229   3.633   3.220   2.725
   15SER      N  230   3.484   3.055   2.697
   15SER      H  231   3.405   3.006   2.735
   15SER     CA  232   3.538   3.015   2.568
   15SER     HA  233   3.634   2.994   2.584
   15SER     CB  234   3.464   2.892   2.516
   15SER    HB1  235   3.370   2.916   2.490
   15SER    HB2  236   3.462   2.820   2.585
   15SER     OG  237   3.526   2.839   2.402
   15SER     HG  238   3.475   2.759   2.370
   15SER      C  239   3.526   3.130   2.468
   15SER      O  240   3.619   3.161   2.393
   16SER      N  241   3.410   3.194   2.466
   16SER      H  242   3.338   3.164   2.528
   16SER     CA  243   3.385   3.306   2.377
   16SER     HA  244   3.402   3.272   2.285
   16SER     CB  245   3.240   3.353   2.391
   16SER    HB1  246   3.224   3.392   2.482
   16SER    HB2  247   3.177   3.277   2.377
   16SER     OG  248   3.209   3.452   2.296
   16SER     HG  249   3.113   3.481   2.307
   16SER      C  250   3.480   3.423   2.407
   16SER      O  251   3.529   3.490   2.315
   17ASP      N  252   3.505   3.447   2.535
   17ASP      H  253   3.463   3.390   2.605
   17ASP     CA  254   3.594   3.556   2.575
   17ASP     HA  255   3.554   3.639   2.535
   17ASP     CB  256   3.598   3.567   2.728
   17ASP    HB1  257   3.650   3.490   2.765
   17ASP    HB2  258   3.505   3.564   2.764
   17ASP     CG  259   3.663   3.696   2.775
   17ASP    OD1  260   3.636   3.801   2.713
   17ASP    OD2  261   3.741   3.692   2.872
   17ASP      C  262   3.736   3.536   2.521
   17ASP      O  263   3.802   3.630   2.476
   18LYS      N  264   3.784   3.411   2.524
   18LYS      H  265   3.727   3.338   2.562
   18LYS     CA  266   3.917   3.380   2.473
   18LYS     HA  267   3.980   3.443   2.519
   18LYS     CB  268   3.952   3.234   2.506
   18LYS    HB1  269   4.021   3.201   2.441
   18LYS    HB2  270   3.869   3.178   2.498
   18LYS     CG  271   4.007   3.222   2.648
   18LYS    HG1  272   3.950   3.275   2.711
   18LYS    HG2  273   4.101   3.257   2.650
   18LYS     CD  274   4.008   3.076   2.694
   18LYS    HD1  275   3.923   3.032   2.665
   18LYS    HD2  276   4.015   3.072   2.794
   18LYS     CE  277   4.122   3.000   2.636
   18LYS    HE1  278   4.208   3.043   2.663
   18LYS    HE2  279   4.115   2.999   2.537
   18LYS     NZ  280   4.119   2.860   2.688
   18LYS    HZ1  281   4.196   2.809   2.649
   18LYS    HZ2  282   4.127   2.861   2.787
   18LYS    HZ3  283   4.033   2.817   2.661
   18LYS      C  284   3.924   3.401   2.322
   18LYS      O  285   4.021   3.457   2.271
   19LEU      N  286   3.821   3.357   2.252
   19LEU      H  287   3.746   3.311   2.300
   19LEU     CA  288   3.814   3.373   2.107
   19LEU     HA  289   3.900   3.334   2.073
   19LEU     CB  290   3.693   3.297   2.049
   19LEU    HB1  291   3.671   3.337   1.961
   19LEU    HB2  292   3.616   3.309   2.112
   19LEU     CG  293   3.717   3.147   2.030
   19LEU     HG  294   3.747   3.106   2.116
   19LEU    CD1  295   3.586   3.081   1.988
   19LEU   HD11  296   3.601   2.983   1.976
   19LEU   HD12  297   3.517   3.095   2.060
   19LEU   HD13  298   3.554   3.121   1.903
   19LEU    CD2  299   3.825   3.124   1.923
   19LEU   HD21  300   3.839   3.026   1.910
   19LEU   HD22  301   3.795   3.165   1.836
   19LEU   HD23  302   3.910   3.167   1.952
   19LEU      C  303   3.804   3.520   2.069
   19LEU      O  304   3.864   3.565   1.972
   20ARG      N  305   3.725   3.595   2.145
   20ARG      H  306   3.679   3.553   2.223
   20ARG     CA  307   3.706   3.736   2.118
   20ARG     HA  308   3.674   3.741   2.023
   20ARG     CB  309   3.602   3.794   2.215
   20ARG    HB1  310   3.643   3.801   2.306
   20ARG    HB2  311   3.523   3.732   2.219
   20ARG     CG  312   3.554   3.931   2.173
   20ARG    HG1  313   3.520   3.925   2.080
   20ARG    HG2  314   3.632   3.994   2.177
   20ARG     CD  315   3.445   3.982   2.263
   20ARG    HD1  316   3.478   3.992   2.357
   20ARG    HD2  317   3.367   3.919   2.262
   20ARG     NE  318   3.398   4.112   2.219
   20ARG     HE  319   3.338   4.114   2.139
   20ARG     CZ  320   3.428   4.227   2.279
   20ARG    NH1  321   3.498   4.230   2.390
   20ARG   HH11  322   3.530   4.144   2.431
   20ARG   HH12  323   3.520   4.317   2.434
   20ARG    NH2  324   3.386   4.341   2.225
   20ARG   HH21  325   3.332   4.340   2.141
   20ARG   HH22  326   3.408   4.428   2.269
   20ARG      C  327   3.835   3.815   2.129
   20ARG      O  328   3.859   3.910   2.054
   21ARG      N  329   3.916   3.776   2.225
   21ARG      H  330   3.889   3.701   2.286
   21ARG     CA  331   4.045   3.841   2.242
   21ARG     HA  332   4.024   3.939   2.243
   21ARG     CB  333   4.112   3.798   2.372
   21ARG    HB1  334   4.151   3.707   2.361
   21ARG    HB2  335   4.045   3.798   2.446
   21ARG     CG  336   4.224   3.895   2.407
   21ARG    HG1  337   4.187   3.988   2.407
   21ARG    HG2  338   4.296   3.887   2.338
   21ARG     CD  339   4.283   3.866   2.543
   21ARG    HD1  340   4.326   3.776   2.544
   21ARG    HD2  341   4.212   3.871   2.613
   21ARG     NE  342   4.384   3.967   2.571
   21ARG     HE  343   4.354   4.061   2.586
   21ARG     CZ  344   4.513   3.942   2.580
   21ARG    NH1  345   4.556   3.819   2.571
   21ARG   HH11  346   4.492   3.744   2.557
   21ARG   HH12  347   4.654   3.800   2.577
   21ARG    NH2  348   4.600   4.041   2.596
   21ARG   HH21  349   4.568   4.136   2.601
   21ARG   HH22  350   4.698   4.021   2.602
   21ARG      C  351   4.137   3.809   2.126
   21ARG    OC1  352   4.147   3.715   2.093
   21ARG    OC2  353   4.203   3.906   2.073
   22SOL     OW  354   0.230   0.628   0.113
   22SOL    HW1  355   0.137   0.626   0.150
   22SOL    HW2  356   0.231   0.589   0.021
   23SOL     OW  357   0.225   0.275   0.996
   23SOL    HW1  358   0.260   0.258   1.088
   23SOL    HW2  359   0.137   0.230   0.984
   24SOL     OW  360   0.019   0.368   0.647
   24SOL    HW1  361  -0.063   0.411   0.686
   24SOL    HW2  362  -0.009   0.295   0.584
   25SOL     OW  363   0.569   1.275   1.165
   25SOL    HW1  364   0.476   1.268   1.128
   25SOL    HW2  365   0.580   1.364   1.209
   26SOL     OW  366   1.555   1.511   0.703
   26SOL    HW1  367   1.498   1.495   0.784
   26SOL    HW2  368   1.496   1.521   0.623
   27SOL     OW  369   1.135   0.703   0.717
   27SOL    HW1  370   1.192   0.781   0.692
   27SOL    HW2  371   1.075   0.729   0.793
   28SOL     OW  372   1.755   0.607   0.231
   28SOL    HW1  373   1.743   0.594   0.132
   28SOL    HW2  374   1.725   0.526   0.280
   29SOL     OW  375   0.768   1.144   1.023
   29SOL    HW1  376   0.690   1.161   1.083
   29SOL    HW2  377   0.802   1.231   0.987
   30SOL     OW  378   0.850   0.798   1.823
   30SOL    HW1  379   0.846   0.874   1.888
   30SOL    HW2  380   0.872   0.834   1.732
   31SOL     OW  381   0.685   1.012   0.665
   31SOL    HW1  382   0.754   0.996   0.735
   31SOL    HW2  383   0.612   1.069   0.703
   32SOL     OW  384   0.686   1.161   1.803
   32SOL    HW1  385   0.746   1.240   1.817
   32SOL    HW2  386   0.600   1.192   1.762
   33SOL     OW  387   0.335   1.435   1.061
   33SOL    HW1  388   0.257   1.404   1.008
   33SOL    HW2  389   0.393   1.493   1.004
   34SOL     OW  390   1.460   1.505   1.339
   34SOL    HW1  391   1.484   1.599   1.365
   34SOL    HW2  392   1.444   1.451   1.421
   35SOL     OW  393   0.438   0.392   1.499
   35SOL    HW1  394   0.520   0.336   1.508
   35SOL    HW2  395   0.357   0.334   1.503
   36SOL     OW  396   1.603   0.447   0.737
   36SOL    HW1  397   1.529   0.493   0.687
   36SOL    HW2  398   1.654   0.515   0.790
   37SOL     OW  399   0.231   1.713   0.483
   37SOL    HW1  400   0.265   1.790   0.537
   37SOL    HW2  401   0.275   1.713   0.393
   38SOL     OW  402   1.127   1.341   1.690
   38SOL    HW1  403   1.174   1.341   1.778
   38SOL    HW2  404   1.079   1.254   1.679
   39SOL     OW  405   0.230   1.434   0.538
   39SOL    HW1  406   0.204   1.530   0.538
   39SOL    HW2  407   0.159   1.380   0.583
   40SOL     OW  408   0.240   1.091   0.886
   40SOL    HW1  409   0.254   1.007   0.938
   40SOL    HW2  410   0.185   1.155   0.941
   41SOL     OW  411   0.620   1.786   1.439
   41SOL    HW1  412   0.528   1.769   1.474
   41SOL    HW2  413   0.648   1.878   1.465
   42SOL     OW  414   0.606   0.964   0.123
   42SOL    HW1  415   0.613   1.048   0.069
   42SOL    HW2  416   0.652   0.977   0.211
   43SOL     OW  417   1.594   0.114   1.480
   43SOL    HW1  418   1.576   0.181   1.408
   43SOL    HW2  419   1.591   0.160   1.569
   44SOL     OW  420   0.122   0.643   0.563
   44SOL    HW1  421   0.077   0.555   0.580
   44SOL    HW2  422   0.121   0.697   0.647
   45SOL     OW  423   1.842   1.767   0.359
   45SOL    HW1  424   1.896   1.738   0.439
   45SOL    HW2  425   1.872   1.857   0.330
   46SOL     OW  426   0.027   1.596   0.117
   46SOL    HW1  427   0.008   1.500   0.138
   46SOL    HW2  428  -0.006   1.654   0.192
   47SOL     OW  429   1.689   0.922   0.612
   47SOL    HW1  430   1.784   0.893   0.620
   47SOL    HW2  431   1.681   0.987   0.537
   48SOL     OW  432   1.641   1.108   0.432
   48SOL    HW1  433   1.727   1.110   0.380
   48SOL    HW2  434   1.655   1.155   0.520
   49SOL     OW  435   0.113   0.737   1.597
   49SOL    HW1  436   0.201   0.724   1.642
   49SOL    HW2  437   0.100   0.834   1.575
   50SOL     OW  438   0.613   1.365   0.726
   50SOL    HW1  439   0.564   1.278   0.735
   50SOL    HW2  440   0.590   1.408   0.639
   51SOL     OW  441   1.293   1.228   1.423
   51SOL    HW1  442   1.330   1.155   1.365
   51SOL    HW2  443   1.345   1.233   1.508
   52SOL     OW  444   0.809   0.004   0.502
   52SOL    HW1  445   0.849   0.095   0.493
   52SOL    HW2  446   0.709   0.012   0.508
   53SOL     OW  447   0.197   0.976   1.264
   53SOL    HW1  448   0.286   0.931   1.250
   53SOL    HW2  449   0.124   0.911   1.245
   54SOL     OW  450   1.525   0.999   0.190
   54SOL    HW1  451   1.462   0.923   0.203
   54SOL    HW2  452   1.573   1.017   0.276
   55SOL     OW  453   1.187   1.792   1.616
   55SOL    HW1  454   1.211   1.852   1.540
   55SOL    HW2  455   1.194   1.697   1.586
   56SOL     OW  456   0.317   0.251   1.801
   56SOL    HW1  457   0.388   0.322   1.807
   56SOL    HW2  458   0.229   0.290   1.829
   57SOL     OW  459   1.466   1.417   0.953
   57SOL    HW1  460   1.407   1.423   1.033
   57SOL    HW2  461   1.451   1.329   0.907
   58SOL     OW  462   1.667   1.714   0.572
   58SOL    HW1  463   1.626   1.691   0.484
   58SOL    HW2  464   1.649   1.640   0.637
   59SOL     OW  465   0.598   0.729   0.270
   59SOL    HW1  466   0.622   0.798   0.202
   59SOL    HW2  467   0.520   0.762   0.324
   60SOL     OW  468   1.281   0.345   0.944
   60SOL    HW1  469   1.195   0.295   0.931
   60SOL    HW2  470   1.343   0.291   1.000
   61SOL     OW  471   1.576   1.662   0.307
   61SOL    HW1  472   1.665   1.708   0.310
   61SOL    HW2  473   1.555   1.638   0.212
   62SOL     OW  474   0.807   0.605   1.465
   62SOL    HW1  475   0.760   0.602   1.554
   62SOL    HW2  476   0.756   0.550   1.399
   63SOL     OW  477   1.394   0.469   1.674
   63SOL    HW1  478   1.374   0.512   1.762
   63SOL    HW2  479   1.472   0.407   1.683
   64SOL     OW  480   0.973   0.890   1.572
   64SOL    HW1  481   1.019   0.806   1.543
   64SOL    HW2  482   0.917   0.924   1.497
   65SOL     OW  483   0.991   0.410   1.242
   65SOL    HW1  484   0.914   0.444   1.296
   65SOL    HW2  485   0.957   0.359   1.163
   66SOL     OW  486   1.041   0.701   0.429
   66SOL    HW1  487   1.067   0.697   0.525
   66SOL    HW2  488   0.956   0.650   0.415
   67SOL     OW  489   0.076   0.811   0.789
   67SOL    HW1  490   0.175   0.799   0.798
   67SOL    HW2  491   0.052   0.906   0.810
   68SOL     OW  492   0.130   1.821   1.571
   68SOL    HW1  493   0.120   1.806   1.670
   68SOL    HW2  494   0.044   1.857   1.535
   69SOL     OW  495   0.865   0.348   0.195
   69SOL    HW1  496   0.924   0.411   0.146
   69SOL    HW2  497   0.884   0.254   0.166
   70SOL     OW  498   1.719   0.585   1.831
   70SOL    HW1  499   1.693   0.674   1.795
   70SOL    HW2  500   1.717   0.517   1.758
   71SOL     OW  501   1.362   1.144   0.545
   71SOL    HW1  502   1.445   1.115   0.497
   71SOL    HW2  503   1.313   1.211   0.489
   72SOL     OW  504   0.550   0.196   0.885
   72SOL    HW1  505   0.545   0.191   0.985
   72SOL    HW2  506   0.552   0.292   0.856
   73SOL     OW  507   1.008   1.456   0.477
   73SOL    HW1  508   0.962   1.528   0.425
   73SOL    HW2  509   1.004   1.476   0.575
   74SOL     OW  510   0.351   1.801   0.853
   74SOL    HW1  511   0.401   1.715   0.859
   74SOL    HW2  512   0.416   1.878   0.850
   75SOL     OW  513   1.795   1.066   0.873
   75SOL    HW1  514   1.733   1.051   0.797
   75SOL    HW2  515   1.743   1.077   0.958
   76SOL     OW  516   1.227   1.550   1.506
   76SOL    HW1  517   1.233   1.473   1.570
   76SOL    HW2  518   1.175   1.524   1.426
   77SOL     OW  519   0.321   0.943   0.242
   77SOL    HW1  520   0.403   0.982   0.200
   77SOL    HW2  521   0.294   0.861   0.193
   78SOL     OW  522   1.458   0.735   0.728
   78SOL    HW1  523   1.453   0.670   0.803
   78SOL    HW2  524   1.538   0.794   0.741
   79SOL     OW  525   0.461   1.266   1.727
   79SOL    HW1  526   0.411   1.267   1.641
   79SOL    HW2  527   0.398   1.248   1.803
   80SOL     OW  528   1.111   1.776   0.237
   80SOL    HW1  529   1.051   1.714   0.287
   80SOL    HW2  530   1.142   1.732   0.152
   81SOL     OW  531   0.202   0.285   1.498
   81SOL    HW1  532   0.122   0.345   1.485
   81SOL    HW2  533   0.192   0.236   1.584
   82SOL     OW  534   1.632   1.377   0.081
   82SOL    HW1  535   1.600   1.471   0.071
   82SOL    HW2  536   1.556   1.314   0.069
   83SOL     OW  537   0.464   1.743   0.323
   83SOL    HW1  538   0.497   1.782   0.409
   83SOL    HW2  539   0.540   1.736   0.258
   84SOL     OW  540   1.400   0.107   0.426
   84SOL    HW1  541   1.376   0.070   0.336
   84SOL    HW2  542   1.499   0.123   0.430
   85SOL     OW  543   0.249   1.785   1.241
   85SOL    HW1  544   0.306   1.720   1.291
   85SOL    HW2  545   0.233   1.752   1.148
   86SOL     OW  546   0.940   1.698   0.904
   86SOL    HW1  547   1.020   1.641   0.925
   86SOL    HW2  548   0.891   1.658   0.827
   87SOL     OW  549   0.382   0.700   0.480
   87SOL    HW1  550   0.427   0.610   0.477
   87SOL    HW2  551   0.288   0.689   0.513
   88SOL     OW  552   1.547   0.222   1.729
   88SOL    HW1  553   1.542   0.259   1.821
   88SOL    HW2  554   1.475   0.153   1.717
   89SOL     OW  555   0.614   0.122   0.117
   89SOL    HW1  556   0.712   0.100   0.124
   89SOL    HW2  557   0.583   0.105   0.024
   90SOL     OW  558   0.781   0.264   1.749
   90SOL    HW1  559   0.848   0.203   1.792
   90SOL    HW2  560   0.708   0.283   1.814
   91SOL     OW  561   0.888   1.514   1.195
   91SOL    HW1  562   0.865   1.489   1.101
   91SOL    HW2  563   0.949   1.445   1.234
   92SOL     OW  564   1.351   0.590   1.433
   92SOL    HW1  565   1.379   0.547   1.518
   92SOL    HW2  566   1.376   0.686   1.434
   93SOL     OW  567   0.803   1.402   0.924
   93SOL    HW1  568   0.893   1.416   0.882
   93SOL    HW2  569   0.732   1.404   0.853
   94SOL     OW  570   0.922   0.503   0.899
   94SOL    HW1  571   0.897   0.494   0.803
   94SOL    HW2  572   0.970   0.421   0.930
   95SOL     OW  573   0.539   0.064   0.512
   95SOL    HW1  574   0.458   0.065   0.570
   95SOL    HW2  575   0.542   0.147   0.457
   96SOL     OW  576   1.434   1.188   0.041
   96SOL    HW1  577   1.466   1.112   0.098
   96SOL    HW2  578   1.342   1.215   0.071
   97SOL     OW  579   0.297   0.035   0.171
   97SOL    HW1  580   0.346   0.119   0.150
   97SOL    HW2  581   0.359  -0.030   0.216
   98SOL     OW  582   0.935   0.236   0.480
   98SOL    HW1  583   0.887   0.277   0.402
   98SOL    HW2  584   1.034   0.234   0.461
   99SOL     OW  585   1.076   0.683   1.464
   99SOL    HW1  586   0.996   0.622   1.467
   99SOL    HW2  587   1.157   0.630   1.440
  100SOL     OW  588   1.227   1.570   0.793
  100SOL    HW1  589   1.248   1.644   0.728
  100SOL    HW2  590   1.295   1.570   0.866
  101SOL     OW  591   0.459   1.152   0.741
  101SOL    HW1  592   0.388   1.125   0.806
  101SOL    HW2  593   0.433   1.124   0.648
  102SOL     OW  594   1.271   1.797   0.591
  102SOL    HW1  595   1.315   1.861   0.527
  102SOL    HW2  596   1.221   1.849   0.661
  103SOL     OW  597   1.032   0.549   0.016
  103SOL    HW1  598   0.991   0.631  -0.023
  103SOL    HW2  599   1.096   0.575   0.089
  104SOL     OW  600   0.078   0.556   1.386
  104SOL    HW1  601   0.170   0.555   1.345
  104SOL    HW2  602   0.072   0.630   1.453
  105SOL     OW  603   0.561   0.222   1.147
  105SOL    HW1  604   0.599   0.138   1.184
  105SOL    HW2  605   0.473   0.241   1.191
  106SOL     OW  606   0.866   0.454   0.642
  106SOL    HW1  607   0.834   0.526   0.580
  106SOL    HW2  608   0.890   0.373   0.589
  107SOL     OW  609   1.017   0.039   0.753
  107SOL    HW1  610   0.945   0.044   0.684
  107SOL    HW2  611   0.993  -0.030   0.822
  108SOL     OW  612   1.429   1.173   0.867
  108SOL    HW1  613   1.374   1.089   0.860
  108SOL    HW2  614   1.455   1.202   0.775
  109SOL     OW  615   1.466   0.590   0.992
  109SOL    HW1  616   1.436   0.495   0.999
  109SOL    HW2  617   1.539   0.606   1.058
  110SOL     OW  618   1.857   0.833   0.377
  110SOL    HW1  619   1.899   0.769   0.441
  110SOL    HW2  620   1.819   0.782   0.299
  111SOL     OW  621   0.488   1.385   0.174
  111SOL    HW1  622   0.401   1.370   0.221
  111SOL    HW2  623   0.471   1.411   0.079
  112SOL     OW  624   1.664   1.280   0.657
  112SOL    HW1  625   1.763   1.288   0.671
  112SOL    HW2  626   1.619   1.364   0.688
  113SOL     OW  627   1.390   0.575   0.078
  113SOL    HW1  628   1.336   0.554   0.159
  113SOL    HW2  629   1.481   0.534   0.087
  114SOL     OW  630   0.527   0.256   0.328
  114SOL    HW1  631   0.554   0.197   0.253
  114SOL    HW2  632   0.527   0.351   0.297
  115SOL     OW  633   1.754   1.223   1.588
  115SOL    HW1  634   1.845   1.184   1.575
  115SOL    HW2  635   1.762   1.319   1.612
  116SOL     OW  636   1.064   1.347   1.340
  116SOL    HW1  637   0.984   1.324   1.395
  116SOL    HW2  638   1.147   1.321   1.389
  117SOL     OW  639   1.592   1.629   1.625
  117SOL    HW1  640   1.619   1.663   1.535
  117SOL    HW2  641   1.671   1.591   1.671
  118SOL     OW  642   1.111   1.195   1.100
  118SOL    HW1  643   1.071   1.239   1.181
  118SOL    HW2  644   1.070   1.232   1.017
  119SOL     OW  645   1.638   1.099   1.079
  119SOL    HW1  646   1.643   1.180   1.138
  119SOL    HW2  647   1.552   1.101   1.028
  120SOL     OW  648   0.915   0.089   1.402
  120SOL    HW1  649   0.940   0.069   1.307
  120SOL    HW2  650   0.987   0.145   1.444
  121SOL     OW  651   0.980   1.116   1.719
  121SOL    HW1  652   0.881   1.122   1.729
  121SOL    HW2  653   1.003   1.036   1.663
  122SOL     OW  654   0.705   1.050   0.368
  122SOL    HW1  655   0.691   1.057   0.467
  122SOL    HW2  656   0.789   0.999   0.350
  123SOL     OW  657   0.410   0.813   1.251
  123SOL    HW1  658   0.496   0.825   1.301
  123SOL    HW2  659   0.368   0.726   1.278
  124SOL     OW  660   1.274   0.386   1.262
  124SOL    HW1  661   1.295   0.460   1.326
  124SOL    HW2  662   1.185   0.403   1.219
  125SOL     OW  663   0.064   1.564   1.331
  125SOL    HW1  664   0.018   1.646   1.297
  125SOL    HW2  665   0.162   1.583   1.340
  126SOL     OW  666   0.367   1.100   0.501
  126SOL    HW1  667   0.360   1.183   0.445
  126SOL    HW2  668   0.371   1.020   0.441
  127SOL     OW  669   0.566   0.537   0.865
  127SOL    HW1  670   0.578   0.603   0.791
  127SOL    HW2  671   0.612   0.571   0.948
  128SOL     OW  672   1.252   1.348   0.388
  128SOL    HW1  673   1.302   1.425   0.428
  128SOL    HW2  674   1.157   1.350   0.420
  129SOL     OW  675   1.272   1.445   1.142
  129SOL    HW1  676   1.319   1.458   1.229
  129SOL    HW2  677   1.206   1.371   1.151
  130SOL     OW  678   1.582   0.639   0.472
  130SOL    HW1  679   1.551   0.700   0.545
  130SOL    HW2  680   1.632   0.691   0.403
  131SOL     OW  681   0.354   1.510   1.329
  131SOL    HW1  682   0.333   1.466   1.242
  131SOL    HW2  683   0.451   1.536   1.332
  132SOL     OW  684   0.402   0.751   1.598
  132SOL    HW1  685   0.470   0.806   1.551
  132SOL    HW2  686   0.442   0.663   1.625
  133SOL     OW  687   1.587   0.779   1.670
  133SOL    HW1  688   1.495   0.817   1.665
  133SOL    HW2  689   1.647   0.826   1.605
  134SOL     OW  690   1.013   0.105   1.770
  134SOL    HW1  691   1.019   0.190   1.718
  134SOL    HW2  692   1.045   0.029   1.713
  135SOL     OW  693   0.504   0.050   1.740
  135SOL    HW1  694   0.462  -0.007   1.670
  135SOL    HW2  695   0.438   0.119   1.772
  136SOL     OW  696   0.573   0.870   1.029
  136SOL    HW1  697   0.617   0.959   1.020
  136SOL    HW2  698   0.510   0.870   1.106
  137SOL     OW  699   1.360   0.862   1.045
  137SOL    HW1  700   1.285   0.862   0.979
  137SOL    HW2  701   1.397   0.770   1.054
  138SOL     OW  702   1.209   0.525   0.275
  138SOL    HW1  703   1.222   0.441   0.329
  138SOL    HW2  704   1.180   0.599   0.335
  139SOL     OW  705   0.307   0.213   1.231
  139SOL    HW1  706   0.284   0.250   1.321
  139SOL    HW2  707   0.277   0.118   1.225
  140SOL     OW  708   0.037   1.310   1.282
  140SOL    HW1  709   0.090   1.261   1.350
  140SOL    HW2  710   0.059   1.408   1.287
  141SOL     OW  711   0.732   0.634   1.064
  141SOL    HW1  712   0.791   0.608   0.988
  141SOL    HW2  713   0.704   0.730   1.053
  142SOL     OW  714   1.728   0.935   1.854
  142SOL    HW1  715   1.682   0.928   1.765
  142SOL    HW2  716   1.666   0.979   1.920
  143SOL     OW  717   0.307   0.063   0.618
  143SOL    HW1  718   0.296   0.157   0.651
  143SOL    HW2  719   0.302   0.000   0.695
  144SOL     OW  720   1.622   0.367   0.374
  144SOL    HW1  721   1.624   0.291   0.438
  144SOL    HW2  722   1.574   0.444   0.414
  145SOL     OW  723   1.023   0.766   0.966
  145SOL    HW1  724   1.038   0.787   1.062
  145SOL    HW2  725   0.993   0.671   0.957
  146SOL     OW  726   0.980   1.573   1.700
  146SOL    HW1  727   0.960   1.617   1.612
  146SOL    HW2  728   1.019   1.482   1.684
  147SOL     OW  729   1.859   1.518   1.605
  147SOL    HW1  730   1.873   1.545   1.510
  147SOL    HW2  731   1.942   1.540   1.658
  148SOL     OW  732   0.350   0.898   1.804
  148SOL    HW1  733   0.426   0.942   1.852
  148SOL    HW2  734   0.385   0.851   1.722
  149SOL     OW  735   1.540   0.274   0.125
  149SOL    HW1  736   1.479   0.199   0.148
  149SOL    HW2  737   1.562   0.326   0.208
  150SOL     OW  738   1.303   0.838   0.042
  150SOL    HW1  739   1.337   0.745   0.057
  150SOL    HW2  740   1.321   0.865  -0.053
  151SOL     OW  741   1.068   1.333   0.849
  151SOL    HW1  742   1.075   1.249   0.794
  151SOL    HW2  743   1.130   1.402   0.813
  152SOL     OW  744   0.319   0.810   0.949
  152SOL    HW1  745   0.412   0.846   0.954
  152SOL    HW2  746   0.313   0.725   1.001
  153SOL     OW  747   0.339   0.509   1.006
  153SOL    HW1  748   0.287   0.426   0.989
  153SOL    HW2  749   0.416   0.514   0.942
  154SOL     OW  750   1.138   0.380   1.678
  154SOL    HW1  751   1.093   0.443   1.742
  154SOL    HW2  752   1.231   0.411   1.661
  155SOL     OW  753   1.160   0.207   1.477
  155SOL    HW1  754   1.160   0.271   1.554
  155SOL    HW2  755   1.188   0.255   1.394
  156SOL     OW  756   0.008   1.326   0.200
  156SOL    HW1  757  -0.085   1.347   0.169
  156SOL    HW2  758   0.018   1.227   0.213
  157SOL     OW  759   0.088   1.801   0.927
  157SOL    HW1  760   0.046   1.715   0.900
  157SOL    HW2  761   0.182   1.804   0.893
  158SOL     OW  762   0.504   1.568   0.910
  158SOL    HW1  763   0.570   1.642   0.919
  158SOL    HW2  764   0.548   1.489   0.868
  159SOL     OW  765   1.002   0.796   1.238
  159SOL    HW1  766   1.043   0.764   1.324
  159SOL    HW2  767   0.906   0.769   1.235
  160SOL     OW  768   0.040   0.544   1.114
  160SOL    HW1  769   0.125   0.511   1.073
  160SOL    HW2  770   0.053   0.559   1.212
  161SOL     OW  771   0.189   0.520   1.722
  161SOL    HW1  772   0.248   0.480   1.652
  161SOL    HW2  773   0.131   0.591   1.681
  162SOL     OW  774   1.369   0.950   1.660
  162SOL    HW1  775   1.408   1.039   1.680
  162SOL    HW2  776   1.379   0.930   1.563
  163SOL     OW  777   0.815   0.572   0.325
  163SOL    HW1  778   0.822   0.483   0.279
  163SOL    HW2  779   0.721   0.606   0.317
  164SOL     OW  780   1.657   0.604   1.206
  164SOL    HW1  781   1.619   0.535   1.268
  164SOL    HW2  782   1.739   0.568   1.162
  165SOL     OW  783   0.252   1.564   1.744
  165SOL    HW1  784   0.222   1.621   1.820
  165SOL    HW2  785   0.245   1.467   1.770
  166SOL     OW  786   0.671   0.464   1.269
  166SOL    HW1  787   0.637   0.375   1.239
  166SOL    HW2  788   0.697   0.518   1.189
  167SOL     OW  789   0.930   1.678   1.465
  167SOL    HW1  790   0.906   1.660   1.370
  167SOL    HW2  791   0.960   1.772   1.475
  168SOL     OW  792   0.473   0.500   0.191
  168SOL    HW1  793   0.534   0.580   0.195
  168SOL    HW2  794   0.378   0.531   0.198
  169SOL     OW  795   0.159   1.137   1.466
  169SOL    HW1  796   0.181   1.076   1.542
  169SOL    HW2  797   0.169   1.088   1.380
  170SOL     OW  798   1.347   1.059   1.234
  170SOL    HW1  799   1.371   0.996   1.160
  170SOL    HW2  800   1.257   1.099   1.216
  171SOL     OW  801   1.302   0.855   0.309
  171SOL    HW1  802   1.216   0.824   0.351
  171SOL    HW2  803   1.298   0.841   0.210
  172SOL     OW  804   1.759   1.747   1.154
  172SOL    HW1  805   1.820   1.777   1.081
  172SOL    HW2  806   1.721   1.658   1.132
  173SOL     OW  807   1.252   1.731   1.128
  173SOL    HW1  808   1.336   1.736   1.074
  173SOL    HW2  809   1.229   1.635   1.146
  174SOL     OW  810   0.083   1.258   1.022
  174SOL    HW1  811   0.078   1.257   1.122
  174SOL    HW2  812   0.000   1.217   0.984
  175SOL     OW  813   0.688   1.662   1.716
  175SOL    HW1  814   0.632   1.743   1.725
  175SOL    HW2  815   0.740   1.666   1.630
  176SOL     OW  816   0.903   0.086   0.133
  176SOL    HW1  817   0.954   0.087   0.047
  176SOL    HW2  818   0.959   0.044   0.204
  177SOL     OW  819   1.726   0.135   0.523
  177SOL    HW1  820   1.799   0.118   0.456
  177SOL    HW2  821   1.695   0.048   0.561
  178SOL     OW  822   1.388   1.573   0.477
  178SOL    HW1  823   1.455   1.585   0.403
  178SOL    HW2  824   1.348   1.662   0.500
  179SOL     OW  825   0.130   1.794   1.851
  179SOL    HW1  826   0.089   1.720   1.904
  179SOL    HW2  827   0.194   1.845   1.909
  180SOL     OW  828   1.280   0.927   0.672
  180SOL    HW1  829   1.340   0.846   0.674
  180SOL    HW2  830   1.320   0.996   0.612
  181SOL     OW  831   0.830   1.273   1.422
  181SOL    HW1  832   0.825   1.306   1.517
  181SOL    HW2  833   0.744   1.292   1.376
  182SOL     OW  834   0.672   1.616   0.154
  182SOL    HW1  835   0.681   1.626   0.055
  182SOL    HW2  836   0.632   1.527   0.175
  183SOL     OW  837   1.650   1.720   1.394
  183SOL    HW1  838   1.703   1.730   1.310
  183SOL    HW2  839   1.623   1.810   1.428
  184SOL     OW  840   1.841   0.175   0.963
  184SOL    HW1  841   1.880   0.090   0.927
  184SOL    HW2  842   1.743   0.177   0.944
  185SOL     OW  843   0.263   0.326   0.720
  185SOL    HW1  844   0.184   0.377   0.686
  185SOL    HW2  845   0.254   0.311   0.818
  186SOL     OW  846   1.194   1.612   0.031
  186SOL    HW1  847   1.200   1.519   0.068
  186SOL    HW2  848   1.135   1.612  -0.049
  187SOL     OW  849   0.822   1.002   1.372
  187SOL    HW1  850   0.862   1.001   1.280
  187SOL    HW2  851   0.832   1.094   1.412
  188SOL     OW  852   0.916   0.910   0.291
  188SOL    HW1  853   0.979   0.948   0.223
  188SOL    HW2  854   0.956   0.827   0.330
  189SOL     OW  855   1.504   1.607   0.044
  189SOL    HW1  856   1.412   1.644   0.051
  189SOL    HW2  857   1.542   1.627  -0.046
  190SOL     OW  858   0.372   1.288   1.490
  190SOL    HW1  859   0.359   1.381   1.456
  190SOL    HW2  860   0.288   1.236   1.477
  191SOL     OW  861   1.614   1.292   1.289
  191SOL    HW1  862   1.674   1.295   1.369
  191SOL    HW2  863   1.539   1.356   1.302
  192SOL     OW  864   1.039   1.098   0.696
  192SOL    HW1  865   0.969   1.051   0.750
  192SOL    HW2  866   1.098   1.030   0.653
  193SOL     OW  867   1.014   0.236   0.971
  193SOL    HW1  868   1.006   0.200   0.878
  193SOL    HW2  869   1.012   0.160   1.036
  194SOL     OW  870   0.590   1.487   0.491
  194SOL    HW1  871   0.632   1.429   0.421
  194SOL    HW2  872   0.546   1.566   0.447
  195SOL     OW  873   1.709   0.385   1.381
  195SOL    HW1  874   1.782   0.454   1.385
  195SOL    HW2  875   1.737   0.310   1.322
  196SOL     OW  876   0.255   1.348   0.290
  196SOL    HW1  877   0.159   1.349   0.263
  196SOL    HW2  878   0.267   1.401   0.374
  197SOL     OW  879   0.105   1.013   1.726
  197SOL    HW1  880   0.028   0.980   1.780
  197SOL    HW2  881   0.190   0.983   1.768
  198SOL     OW  882   0.672   0.203   1.489
  198SOL    HW1  883   0.762   0.187   1.449
  198SOL    HW2  884   0.680   0.208   1.588
  199SOL     OW  885   0.075   0.345   0.033
  199SOL    HW1  886  -0.017   0.317   0.004
  199SOL    HW2  887   0.106   0.422  -0.023
  200SOL     OW  888   1.440   0.856   1.398
  200SOL    HW1  889   1.383   0.908   1.335
  200SOL    HW2  890   1.536   0.868   1.374
  201SOL     OW  891   0.072   0.166   0.318
  201SOL    HW1  892   0.055   0.249   0.264
  201SOL    HW2  893   0.162   0.129   0.296
  202SOL     OW  894   1.183   1.335   0.119
  202SOL    HW1  895   1.084   1.324   0.121
  202SOL    HW2  896   1.217   1.350   0.212
  203SOL     OW  897   0.613   0.842   1.431
  203SOL    HW1  898   0.669   0.923   1.414
  203SOL    HW2  899   0.672   0.762   1.434
  204SOL     OW  900   1.493   1.767   0.959
  204SOL    HW1  901   1.526   1.831   0.890
  204SOL    HW2  902   1.559   1.761   1.034
  205SOL     OW  903   0.716   0.565   1.708
  205SOL    HW1  904   0.735   0.630   1.782
  205SOL    HW2  905   0.776   0.485   1.717
  206SOL     OW  906   1.450   1.220   1.633
  206SOL    HW1  907   1.441   1.210   1.732
  206SOL    HW2  908   1.546   1.213   1.607
  207SOL     OW  909   0.390   1.741   1.560
  207SOL    HW1  910   0.299   1.782   1.558
  207SOL    HW2  911   0.383   1.647   1.592
  208SOL     OW  912   1.674   0.883   1.254
  208SOL    HW1  913   1.647   0.794   1.217
  208SOL    HW2  914   1.675   0.951   1.181
  209SOL     OW  915   1.225   0.325   0.449
  209SOL    HW1  916   1.290   0.251   0.438
  209SOL    HW2  917   1.245   0.375   0.533
  210SOL     OW  918   0.594   0.745   0.652
  210SOL    HW1  919   0.644   0.830   0.633
  210SOL    HW2  920   0.506   0.747   0.604
  211SOL     OW  921   1.777   0.342   1.642
  211SOL    HW1  922   1.760   0.373   1.548
  211SOL    HW2  923   1.693   0.305   1.680
  212SOL     OW  924   1.730   0.934   1.517
  212SOL    HW1  925   1.768   1.025   1.532
  212SOL    HW2  926   1.722   0.917   1.418
  213SOL     OW  927   0.859   1.374   0.016
  213SOL    HW1  928   0.813   1.389   0.104
  213SOL    HW2  929   0.903   1.459  -0.014
  214SOL     OW  930   0.661   1.790   0.953
  214SOL    HW1  931   0.615   1.878   0.940
  214SOL    HW2  932   0.760   1.802   0.946
  215SOL     OW  933   0.859   0.956   0.861
  215SOL    HW1  934   0.913   0.887   0.909
  215SOL    HW2  935   0.827   1.025   0.927
  216SOL     OW  936   1.083   0.984   0.087
  216SOL    HW1  937   1.060   1.037   0.005
  216SOL    HW2  938   1.164   0.928   0.068
  217SOL     OW  939   1.861   1.569   0.851
  217SOL    HW1  940   1.790   1.557   0.781
  217SOL    HW2  941   1.862   1.490   0.911
  218SOL     OW  942   0.221   1.314   1.844
  218SOL    HW1  943   0.156   1.241   1.823
  218SOL    HW2  944   0.225   1.328   1.942
  219SOL     OW  945   0.079   1.240   0.653
  219SOL    HW1  946   0.078   1.193   0.741
  219SOL    HW2  947   0.161   1.212   0.602
  220SOL     OW  948   0.672   1.391   1.624
  220SOL    HW1  949   0.594   1.341   1.662
  220SOL    HW2  950   0.669   1.486   1.655
  221SOL     OW  951   1.824   0.192   1.227
  221SOL    HW1  952   1.820   0.102   1.271
  221SOL    HW2  953   1.827   0.181   1.128
  222SOL     OW  954   0.428   0.424   0.520
  222SOL    HW1  955   0.458   0.352   0.458
  222SOL    HW2  956   0.389   0.384   0.603
  223SOL     OW  957   1.705   1.487   1.104
  223SOL    HW1  958   1.612   1.462   1.077
  223SOL    HW2  959   1.731   1.437   1.186
  224SOL     OW  960   0.317   0.547   1.280
  224SOL    HW1  961   0.355   0.488   1.352
  224SOL    HW2  962   0.357   0.521   1.192
  225SOL     OW  963   0.812   1.586   0.687
  225SOL    HW1  964   0.844   1.596   0.593
  225SOL    HW2  965   0.733   1.524   0.689
  226SOL     OW  966   1.424   0.214   1.112
  226SOL    HW1  967   1.476   0.149   1.167
  226SOL    HW2  968   1.375   0.277   1.173
  227SOL     OW  969   1.001   0.034   1.154
  227SOL    HW1  970   0.938  -0.038   1.123
  227SOL    HW2  971   1.094  -0.002   1.154
  228SOL     OW  972   0.770   1.330   0.301
  228SOL    HW1  973   0.724   1.243   0.318
  228SOL    HW2  974   0.861   1.327   0.342
  229SOL     OW  975   0.618   1.567   1.284
  229SOL    HW1  976   0.613   1.649   1.341
  229SOL    HW2  977   0.707   1.564   1.239
  230SOL     OW  978   1.352   0.052   0.168
  230SOL    HW1  979   1.387   0.011   0.084
  230SOL    HW2  980   1.262   0.014   0.188
  231SOL     OW  981   1.300   0.453   0.691
  231SOL    HW1  982   1.241   0.533   0.695
  231SOL    HW2  983   1.315   0.418   0.784
  232SOL     OW  984   1.593   0.221   0.882
  232SOL    HW1  985   1.509   0.220   0.936
  232SOL    HW2  986   1.595   0.304   0.826
  233SOL     OW  987   0.039   1.077   0.300
  233SOL    HW1  988   0.138   1.066   0.291
  233SOL    HW2  989  -0.001   0.991   0.332
  234SOL     OW  990   0.875   1.646   0.337
  234SOL    HW1  991   0.798   1.611   0.283
  234SOL    HW2  992   0.843   1.717   0.399
  235SOL     OW  993   0.230   0.628   1.975
  235SOL    HW1  994   0.137   0.626   2.012
  235SOL    HW2  995   0.231   0.589   1.883
  236SOL     OW  996   0.225   0.275   2.858
  236SOL    HW1  997   0.260   0.258   2.950
  236SOL    HW2  998   0.137   0.230   2.846
  237SOL     OW  999   0.019   0.368   2.509
  237SOL    HW1 1000  -0.063   0.411   2.548
  237SOL    HW2 1001  -0.009   0.295   2.446
  238SOL     OW 1002   0.569   1.275   3.027
  238SOL    HW1 1003   0.476   1.268   2.990
  238SOL    HW2 1004   0.580   1.364   3.071
  239SOL     OW 1005   1.555   1.511   2.565
  239SOL    HW1 1006   1.498   1.495   2.646
  239SOL    HW2 1007   1.496   1.521   2.485
  240SOL     OW 1008   1.135   0.703   2.579
  240SOL    HW1 1009   1.192   0.781   2.554
  240SOL    HW2 1010   1.075   0.729   2.655
  241SOL     OW 1011   1.755   0.607   2.093
  241SOL    HW1 1012   1.743   0.594   1.994
  241SOL    HW2 1013   1.725   0.526   2.142
  242SOL     OW 1014   0.768   1.144   2.885
  242SOL    HW1 1015   0.690   1.161   2.945
  242SOL    HW2 1016   0.802   1.231   2.849
  243SOL     OW 1017   0.850   0.798   3.685
  243SOL    HW1 1018   0.846   0.874   3.750
  243SOL    HW2 1019   0.872   0.834   3.594
  244SOL     OW 1020   0.685   1.012   2.527
  244SOL    HW1 1021   0.754   0.996   2.597
  244SOL    HW2 1022   0.612   1.069   2.565
  245SOL     OW 1023   0.686   1.161   3.665
  245SOL    HW1 1024   0.746   1.240   3.679
  245SOL    HW2 1025   0.600   1.192   3.624
  246SOL     OW 1026   0.335   1.435   2.923
  246SOL    HW1 1027   0.257   1.404   2.870
  246SOL    HW2 1028   0.393   1.493   2.866
  247SOL     OW 1029   1.460   1.505   3.201
  247SOL    HW1 1030   1.484   1.599   3.227
  247SOL    HW2 1031   1.444   1.451   3.283
  248SOL     OW 1032   0.438   0.392   3.361
  248SOL    HW1 1033   0.520   0.336   3.370
  248SOL    HW2 1034   0.357   0.334   3.365
  249SOL     OW 1035   1.603   0.447   2.599
  249SOL    HW1 1036   1.529   0.493   2.549
  249SOL    HW2 1037   1.654   0.515   2.652
  250SOL     OW 1038   0.231   1.713   2.345
  250SOL    HW1 1039   0.265   1.790   2.399
  250SOL    HW2 1040   0.275   1.713   2.255
  251SOL     OW 1041   1.127   1.341   3.552
  251SOL    HW1 1042   1.174   1.341   3.640
  251SOL    HW2 1043   1.079   1.254   3.541
  252SOL     OW 1044   0.230   1.434   2.400
  252SOL    HW1 1045   0.204   1.530   2.400
  252SOL    HW2 1046   0.159   1.380   2.445
  253SOL     OW 1047   0.240   1.091   2.748
  253SOL    HW1 1048   0.254   1.007   2.800
  253SOL    HW2 1049   0.185   1.155   2.803
  254SOL     OW 1050   0.620   1.786   3.301
  254SOL    HW1 1051   0.528   1.769   3.336
  254SOL    HW2 1052   0.648   1.878   3.327
  255SOL     OW 1053   0.606   0.964   1.985
  255SOL    HW1 1054   0.613   1.048   1.931
  255SOL    HW2 1055   0.652   0.977   2.073
  256SOL     OW 1056   1.594   0.114   3.342
  256SOL    HW1 1057   1.576   0.181   3.270
  256SOL    HW2 1058   1.591   0.160   3.431
  257SOL     OW 1059   0.122   0.643   2.425
  257SOL    HW1 1060   0.077   0.555   2.442
  257SOL    HW2 1061   0.121   0.697   2.509
  258SOL     OW 1062   1.842   1.767   2.221
  258SOL    HW1 1063   1.896   1.738   2.301
  258SOL    HW2 1064   1.872   1.857   2.192
  259SOL     OW 1065   0.027   1.596   1.979
  259SOL    HW1 1066   0.008   1.500   2.000
  259SOL    HW2 1067  -0.006   1.654   2.054
  260SOL     OW 1068   1.689   0.922   2.474
  260SOL    HW1 1069   1.784   0.893   2.482
  260SOL    HW2 1070   1.681   0.987   2.399
  261SOL     OW 1071   1.641   1.108   2.294
  261SOL    HW1 1072   1.727   1.110   2.242
  261SOL    HW2 1073   1.655   1.155   2.382
  262SOL     OW 1074   0.113   0.737   3.459
  262SOL    HW1 1075   0.201   0.724   3.504
  262SOL    HW2 1076   0.100   0.834   3.437
  263SOL     OW 1077   0.613   1.365   2.588
  263SOL    HW1 1078   0.564   1.278   2.597
  263SOL    HW2 1079   0.590   1.408   2.501
  264SOL     OW 1080   1.293   1.228   3.285
  264SOL    HW1 1081   1.330   1.155   3.227
  264SOL    HW2 1082   1.345   1.233   3.370
  265SOL     OW 1083   0.809   0.004   2.364
  265SOL    HW1 1084   0.849   0.095   2.355
  265SOL    HW2 1085   0.709   0.012   2.370
  266SOL     OW 1086   0.197   0.976   3.126
  266SOL    HW1 1087   0.286   0.931   3.112
  266SOL    HW2 1088   0.124   0.911   3.107
  267SOL     OW 1089   1.525   0.999   2.052
  267SOL    HW1 1090   1.462   0.923   2.065
  267SOL    HW2 1091   1.573   1.017   2.138
  268SOL     OW 1092   1.187   1.792   3.478
  268SOL    HW1 1093   1.211   1.852   3.402
  268SOL    HW2 1094   1.194   1.697   3.448
  269SOL     OW 1095   0.317   0.251   3.663
  269SOL    HW1 1096   0.388   0.322   3.669
  269SOL    HW2 1097   0.229   0.290   3.691
  270SOL     OW 1098   1.466   1.417   2.815
  270SOL    HW1 1099   1.407   1.423   2.895
  270SOL    HW2 1100   1.451   1.329   2.769
  271SOL     OW 1101   1.667   1.714   2.434
  271SOL    HW1 1102   1.626   1.691   2.346
  271SOL    HW2 1103   1.649   1.640   2.499
  272SOL     OW 1104   0.598   0.729   2.132
  272SOL    HW1 1105   0.622   0.798   2.064
  272SOL    HW2 1106   0.520   0.762   2.186
  273SOL     OW 1107   1.281   0.345   2.806
  273SOL    HW1 1108   1.195   0.295   2.793
  273SOL    HW2 1109   1.343   0.291   2.862
  274SOL     OW 1110   1.576   1.662   2.169
  274SOL    HW1 1111   1.665   1.708   2.172
  274SOL    HW2 1112   1.555   1.638   2.074
  275SOL     OW 1113   0.807   0.605   3.327
  275SOL    HW1 1114   0.760   0.602   3.416
  275SOL    HW2 1115   0.756   0.550   3.261
  276SOL     OW 1116   1.394   0.469   3.536
  276SOL    HW1 1117   1.374   0.512   3.624
  276SOL    HW2 1118   1.472   0.407   3.545
  277SOL     OW 1119   0.973   0.890   3.434
  277SOL    HW1 1120   1.019   0.806   3.405
  277SOL    HW2 1121   0.917   0.924   3.359
  278SOL     OW 1122   0.991   0.410   3.104
  278SOL    HW1 1123   0.914   0.444   3.158
  278SOL    HW2 1124   0.957   0.359   3.025
  279SOL     OW 1125   1.041   0.701   2.291
  279SOL    HW1 1126   1.067   0.697   2.387
  279SOL    HW2 1127   0.956   0.650   2.277
  280SOL     OW 1128   0.076   0.811   2.651
  280SOL    HW1 1129   0.175   0.799   2.660
  280SOL    HW2 1130   0.052   0.906   2.672
  281SOL     OW 1131   0.130   1.821   3.433
  281SOL    HW1 1132   0.120   1.806   3.532
  281SOL    HW2 1133   0.044   1.857   3.397
  282SOL     OW 1134   0.865   0.348   2.057
  282SOL    HW1 1135   0.924   0.411   2.008
  282SOL    HW2 1136   0.884   0.254   2.028
  283SOL     OW 1137   1.719   0.585   3.693
  283SOL    HW1 1138   1.693   0.674   3.657
  283SOL    HW2 1139   1.717   0.517   3.620
  284SOL     OW 1140   1.362   1.144   2.407
  284SOL    HW1 1141   1.445   1.115   2.359
  284SOL    HW2 1142   1.313   1.211   2.351
  285SOL     OW 1143   0.550   0.196   2.747
  285SOL    HW1 1144   0.545   0.191   2.847
  285SOL    HW2 1145   0.552   0.292   2.718
  286SOL     OW 1146   1.008   1.456   2.339
  286SOL    HW1 1147   0.962   1.528   2.287
  286SOL    HW2 1148   1.004   1.476   2.437
  287SOL     OW 1149   0.351   1.801   2.715
  287SOL    HW1 1150   0.401   1.715   2.721
  287SOL    HW2 1151   0.416   1.878   2.712
  288SOL     OW 1152   1.795   1.066   2.735
  288SOL    HW1 1153   1.733   1.051   2.659
  288SOL    HW2 1154   1.743   1.077   2.820
  289SOL     OW 1155   1.227   1.550   3.368
  289SOL    HW1 1156   1.233   1.473   3.432
  289SOL    HW2 1157   1.175   1.524   3.288
  290SOL     OW 1158   0.321   0.943   2.104
  290SOL    HW1 1159   0.403   0.982   2.062
  290SOL    HW2 1160   0.294   0.861   2.055
  291SOL     OW 1161   1.458   0.735   2.590
  291SOL    HW1 1162   1.453   0.670   2.665
  291SOL    HW2 1163   1.538   0.794   2.603
  292SOL     OW 1164   0.461   1.266   3.589
  292SOL    HW1 1165   0.411   1.267   3.503
  292SOL    HW2 1166   0.398   1.248   3.665
  293SOL     OW 1167   1.111   1.776   2.099
  293SOL    HW1 1168   1.051   1.714   2.149
  293SOL    HW2 1169   1.142   1.732   2.014
  294SOL     OW 1170   0.202   0.285   3.360
  294SOL    HW1 1171   0.122   0.345   3.347
  294SOL    HW2 1172   0.192   0.236   3.446
  295SOL     OW 1173   1.632   1.377   1.943
  295SOL    HW1 1174   1.600   1.471   1.933
  295SOL    HW2 1175   1.556   1.314   1.931
  296SOL     OW 1176   0.464   1.743   2.185
  296SOL    HW1 1177   0.497   1.782   2.271
  296SOL    HW2 1178   0.540   1.736   2.120
  297SOL     OW 1179   1.400   0.107   2.288
  297SOL    HW1 1180   1.376   0.070   2.198
  297SOL    HW2 1181   1.499   0.123   2.292
  298SOL     OW 1182   0.249   1.785   3.103
  298SOL    HW1 1183   0.306   1.720   3.153
  298SOL    HW2 1184   0.233   1.752   3.010
  299SOL     OW 1185   0.940   1.698   2.766
  299SOL    HW1 1186   1.020   1.641   2.787
  299SOL    HW2 1187   0.891   1.658   2.689
  300SOL     OW 1188   0.382   0.700   2.342
  300SOL    HW1 1189   0.427   0.610   2.339
  300SOL    HW2 1190   0.288   0.689   2.375
  301SOL     OW 1191   1.547   0.222   3.591
  301SOL    HW1 1192   1.542   0.259   3.683
  301SOL    HW2 1193   1.475   0.153   3.579
  302SOL     OW 1194   0.614   0.122   1.979
  302SOL    HW1 1195   0.712   0.100   1.986
  302SOL    HW2 1196   0.583   0.105   1.886
  303SOL     OW 1197   0.781   0.264   3.611
  303SOL    HW1 1198   0.848   0.203   3.654
  303SOL    HW2 1199   0.708   0.283   3.676
  304SOL     OW 1200   0.888   1.514   3.057
  304SOL    HW1 1201   0.865   1.489   2.963
  304SOL    HW2 1202   0.949   1.445   3.096
  305SOL     OW 1203   1.351   0.590   3.295
  305SOL    HW1 1204   1.379   0.547   3.380
  305SOL    HW2 1205   1.376   0.686   3.296
  306SOL     OW 1206   0.803   1.402   2.786
  306SOL    HW1 1207   0.893   1.416   2.744
  306SOL    HW2 1208   0.732   1.404   2.715
  307SOL     OW 1209   0.922   0.503   2.761
  307SOL    HW1 1210   0.897   0.494   2.665
  307SOL    HW2 1211   0.970   0.421   2.792
  308SOL     OW 1212   0.539   0.064   2.374
  308SOL    HW1 1213   0.458   0.065   2.432
  308SOL    HW2 1214   0.542   0.147   2.319
  309SOL     OW 1215   1.434   1.188   1.903
  309SOL    HW1 1216   1.466   1.112   1.960
  309SOL    HW2 1217   1.342   1.215   1.933
  310SOL     OW 1218   0.297   0.035   2.033
  310SOL    HW1 1219   0.346   0.119   2.012
  310SOL    HW2 1220   0.359  -0.030   2.078
  311SOL     OW 1221   0.935   0.236   2.342
  311SOL    HW1 1222   0.887   0.277   2.264
  311SOL    HW2 1223   1.034   0.234   2.323
  312SOL     OW 1224   1.076   0.683   3.326
  312SOL    HW1 1225   0.996   0.622   3.329
  312SOL    HW2 1226   1.157   0.630   3.302
  313SOL     OW 1227   1.227   1.570   2.655
  313SOL    HW1 1228   1.248   1.644   2.590
  313SOL    HW2 1229   1.295   1.570   2.728
  314SOL     OW 1230   0.459   1.152   2.603
  314SOL    HW1 1231   0.388   1.125   2.668
  314SOL    HW2 1232   0.433   1.124   2.510
  315SOL     OW 1233   1.271   1.797   2.453
  315SOL    HW1 1234   1.315   1.861   2.389
  315SOL    HW2 1235   1.221   1.849   2.523
  316SOL     OW 1236   1.032   0.549   1.878
  316SOL    HW1 1237   0.991   0.631   1.839
  316SOL    HW2 1238   1.096   0.575   1.951
  317SOL     OW 1239   0.078   0.556   3.248
  317SOL    HW1 1240   0.170   0.555   3.207
  317SOL    HW2 1241   0.072   0.630   3.315
  318SOL     OW 1242   0.561   0.222   3.009
  318SOL    HW1 1243   0.599   0.138   3.046
  318SOL    HW2 1244   0.473   0.241   3.053
  319SOL     OW 1245   0.866   0.454   2.504
  319SOL    HW1 1246   0.834   0.526   2.442
  319SOL    HW2 1247   0.890   0.373   2.451
  320SOL     OW 1248   1.017   0.039   2.615
  320SOL    HW1 1249   0.945   0.044   2.546
  320SOL    HW2 1250   0.993  -0.030   2.684
  321SOL     OW 1251   1.429   1.173   2.729
  321SOL    HW1 1252   1.374   1.089   2.722
  321SOL    HW2 1253   1.455   1.202   2.637
  322SOL     OW 1254   1.466   0.590   2.854
  322SOL    HW1 1255   1.436   0.495   2.861
  322SOL    HW2 1256   1.539   0.606   2.920
  323SOL     OW 1257   1.857   0.833   2.239
  323SOL    HW1 1258   1.899   0.769   2.303
  323SOL    HW2 1259   1.819   0.782   2.161
  324SOL     OW 1260   0.488   1.385   2.036
  324SOL    HW1 1261   0.401   1.370   2.083
  324SOL    HW2 1262   0.471   1.411   1.941
  325SOL     OW 1263   1.664   1.280   2.519
  325SOL    HW1 1264   1.763   1.288   2.533
  325SOL    HW2 1265   1.619   1.364   2.550
  326SOL     OW 1266   1.390   0.575   1.940
  326SOL    HW1 1267   1.336   0.554   2.021
  326SOL    HW2 1268   1.481   0.534   1.949
  327SOL     OW 1269   0.527   0.256   2.190
  327SOL    HW1 1270   0.554   0.197   2.115
  327SOL    HW2 1271   0.527   0.351   2.159
  328SOL     OW 1272   1.754   1.223   3.450
  328SOL    HW1 1273   1.845   1.184   3.437
  328SOL    HW2 1274   1.762   1.319   3.474
  329SOL     OW 1275   1.064   1.347   3.202
  329SOL    HW1 1276   0.984   1.324   3.257
  329SOL    HW2 1277   1.147   1.321   3.251
  330SOL     OW 1278   1.592   1.629   3.487
  330SOL    HW1 1279   1.619   1.663   3.397
  330SOL    HW2 1280   1.671   1.591   3.533
  331SOL     OW 1281   1.111   1.195   2.962
  331SOL    HW1 1282   1.071   1.239   3.043
  331SOL    HW2 1283   1.070   1.232   2.879
  332SOL     OW 1284   1.638   1.099   2.941
  332SOL    HW1 1285   1.643   1.180   3.000
  332SOL    HW2 1286   1.552   1.101   2.890
  333SOL     OW 1287   0.915   0.089   3.264
  333SOL    HW1 1288   0.940   0.069   3.169
  333SOL    HW2 1289   0.987   0.145   3.306
  334SOL     OW 1290   0.980   1.116   3.581
  334SOL    HW1 1291   0.881   1.122   3.591
  334SOL    HW2 1292   1.003   1.036   3.525
  335SOL     OW 1293   0.705   1.050   2.230
  335SOL    HW1 1294   0.691   1.057   2.329
  335SOL    HW2 1295   0.789   0.999   2.212
  336SOL     OW 1296   0.410   0.813   3.113
  336SOL    HW1 1297   0.496   0.825   3.163
  336SOL    HW2 1298   0.368   0.726   3.140
  337SOL     OW 1299   1.274   0.386   3.124
  337SOL    HW1 1300   1.295   0.460   3.188
  337SOL    HW2 1301   1.185   0.403   3.081
  338SOL     OW 1302   0.064   1.564   3.193
  338SOL    HW1 1303   0.018   1.646   3.159
  338SOL    HW2 1304   0.162   1.583   3.202
  339SOL     OW 1305   0.367   1.100   2.363
  339SOL    HW1 1306   0.360   1.183   2.307
  339SOL    HW2 1307   0.371   1.020   2.303
  340SOL     OW 1308   0.566   0.537   2.727
  340SOL    HW1 1309   0.578   0.603   2.653
  340SOL    HW2 1310   0.612   0.571   2.810
  341SOL     OW 1311   1.252   1.348   2.250
  341SOL    HW1 1312   1.302   1.425   2.290
  341SOL    HW2 1313   1.157   1.350   2.282
  342SOL     OW 1314   1.272   1.445   3.004
  342SOL    HW1 1315   1.319   1.458   3.091
  342SOL    HW2 1316   1.206   1.371   3.013
  343SOL     OW 1317   1.582   0.639   2.334
  343SOL    HW1 1318   1.551   0.700   2.407
  343SOL    HW2 1319   1.632   0.691   2.265
  344SOL     OW 1320   0.354   1.510   3.191
  344SOL    HW1 1321   0.333   1.466   3.104
  344SOL    HW2 1322   0.451   1.536   3.194
  345SOL     OW 1323   0.402   0.751   3.460
  345SOL    HW1 1324   0.470   0.806   3.413
  345SOL    HW2 1325   0.442   0.663   3.487
  346SOL     OW 1326   1.587   0.779   3.532
  346SOL    HW1 1327   1.495   0.817   3.527
  346SOL    HW2 1328   1.647   0.826   3.467
  347SOL     OW 1329   1.013   0.105   3.632
  347SOL    HW1 1330   1.019   0.190   3.580
  347SOL    HW2 1331   1.045   0.029   3.575
  348SOL     OW 1332   0.504   0.050   3.602
  348SOL    HW1 1333   0.462  -0.007   3.532
  348SOL    HW2 1334   0.438   0.119   3.634
  349SOL     OW 1335   0.573   0.870   2.891
  349SOL    HW1 1336   0.617   0.959   2.882
  349SOL    HW2 1337   0.510   0.870   2.968
  350SOL     OW 1338   1.360   0.862   2.907
  350SOL    HW1 1339   1.285   0.862   2.841
  350SOL    HW2 1340   1.397   0.770   2.916
  351SOL     OW 1341   1.209   0.525   2.137
  351SOL    HW1 1342   1.222   0.441   2.191
  351SOL    HW2 1343   1.180   0.599   2.197
  352SOL     OW 1344   0.307   0.213   3.093
  352SOL    HW1 1345   0.284   0.250   3.183
  352SOL    HW2 1346   0.277   0.118   3.087
  353SOL     OW 1347   0.037   1.310   3.144
  353SOL    HW1 1348   0.090   1.261   3.212
  353SOL    HW2 1349   0.059   1.408   3.149
  354SOL     OW 1350   0.732   0.634   2.926
  354SOL    HW1 1351   0.791   0.608   2.850
  354SOL    HW2 1352   0.704   0.730   2.915
  355SOL     OW 1353   1.728   0.935   3.716
  355SOL    HW1 1354   1.682   0.928   3.627
  355SOL    HW2 1355   1.666   0.979   3.782
  356SOL     OW 1356   0.307   0.063   2.480
  356SOL    HW1 1357   0.296   0.157   2.513
  356SOL    HW2 1358   0.302   0.000   2.557
  357SOL     OW 1359   1.622   0.367   2.236
  357SOL    HW1 1360   1.624   0.291   2.300
  357SOL    HW2 1361   1.574   0.444   2.276
  358SOL     OW 1362   1.023   0.766   2.828
  358SOL    HW1 1363   1.038   0.787   2.924
  358SOL    HW2 1364   0.993   0.671   2.819
  359SOL     OW 1365   0.980   1.573   3.562
  359SOL    HW1 1366   0.960   1.617   3.474
  359SOL    HW2 1367   1.019   1.482   3.546
  360SOL     OW 1368   1.859   1.518   3.467
  360SOL    HW1 1369   1.873   1.545   3.372
  360SOL    HW2 1370   1.942   1.540   3.520
  361SOL     OW 1371   0.350   0.898   3.666
  361SOL    HW1 1372   0.426   0.942   3.714
  361SOL    HW2 1373   0.385   0.851   3.584
  362SOL     OW 1374   1.540   0.274   1.987
  362SOL    HW1 1375   1.479   0.199   2.010
  362SOL    HW2 1376   1.562   0.326   2.070
  363SOL     OW 1377   1.303   0.838   1.904
  363SOL    HW1 1378   1.337   0.745   1.919
  363SOL    HW2 1379   1.321   0.865   1.809
  364SOL     OW 1380   1.068   1.333   2.711
  364SOL    HW1 1381   1.075   1.249   2.656
  364SOL    HW2 1382   1.130   1.402   2.675
  365SOL     OW 1383   0.319   0.810   2.811
  365SOL    HW1 1384   0.412   0.846   2.816
  365SOL    HW2 1385   0.313   0.725   2.863
  366SOL     OW 1386   0.339   0.509   2.868
  366SOL    HW1 1387   0.287   0.426   2.851
  366SOL    HW2 1388   0.416   0.514   2.804
  367SOL     OW 1389   1.138   0.380   3.540
  367SOL    HW1 1390   1.093   0.443   3.604
  367SOL    HW2 1391   1.231   0.411   3.523
  368SOL     OW 1392   1.160   0.207   3.339
  368SOL    HW1 1393   1.160   0.271   3.416
  368SOL    HW2 1394   1.188   0.255   3.256
  369SOL     OW 1395   0.008   1.326   2.062
  369SOL    HW1 1396  -0.085   1.347   2.031
  369SOL    HW2 1397   0.018   1.227   2.075
  370SOL     OW 1398   0.088   1.801   2.789
  370SOL    HW1 1399   0.046   1.715   2.762
  370SOL    HW2 1400   0.182   1.804   2.755
  371SOL     OW 1401   0.504   1.568   2.772
  371SOL    HW1 1402   0.570   1.642   2.781
  371SOL    HW2 1403   0.548   1.489   2.730
  372SOL     OW 1404   1.002   0.796   3.100
  372SOL    HW1 1405   1.043   0.764   3.186
  372SOL    HW2 1406   0.906   0.769   3.097
  373SOL     OW 1407   0.040   0.544   2.976
  373SOL    HW1 1408   0.125   0.511   2.935
  373SOL    HW2 1409   0.053   0.559   3.074
  374SOL     OW 1410   0.189   0.520   3.584
  374SOL    HW1 1411   0.248   0.480   3.514
  374SOL    HW2 1412   0.131   0.591   3.543
  375SOL     OW 1413   1.369   0.950   3.522
  375SOL    HW1 1414   1.408   1.039   3.542
  375SOL    HW2 1415   1.379   0.930   3.425
  376SOL     OW 1416   0.815   0.572   2.187
  376SOL    HW1 1417   0.822   0.483   2.141
  376SOL    HW2 1418   0.721   0.606   2.179
  377SOL     OW 1419   1.657   0.604   3.068
  377SOL    HW1 1420   1.619   0.535   3.130
  377SOL    HW2 1421   1.739   0.568   3.024
  378SOL     OW 1422   0.252   1.564   3.606
  378SOL    HW1 1423   0.222   1.621   3.682
  378SOL    HW2 1424   0.245   1.467   3.632
  379SOL     OW 1425   0.671   0.464   3.131
  379SOL    HW1 1426   0.637   0.375   3.101
  379SOL    HW2 1427   0.697   0.518   3.051
  380SOL     OW 1428   0.930   1.678   3.327
  380SOL    HW1 1429   0.906   1.660   3.232
  380SOL    HW2 1430   0.960   1.772   3.337
  381SOL     OW 1431   0.473   0.500   2.053
  381SOL    HW1 1432   0.534   0.580   2.057
  381SOL    HW2 1433   0.378   0.531   2.060
  382SOL     OW 1434   0.159   1.137   3.328
  382SOL    HW1 1435   0.181   1.076   3.404
  382SOL    HW2 1436   0.169   1.088   3.242
  383SOL     OW 1437   1.347   1.059   3.096
  383SOL    HW1 1438   1.371   0.996   3.022
  383SOL    HW2 1439   1.257   1.099   3.078
  384SOL     OW 1440   1.302   0.855   2.171
  384SOL    HW1 1441   1.216   0.824   2.213
  384SOL    HW2 1442   1.298   0.841   2.072
  385SOL     OW 1443   1.759   1.747   3.016
  385SOL    HW1 1444   1.820   1.777   2.943
  385SOL    HW2 1445   1.721   1.658   2.994
  386SOL     OW 1446   1.252   1.731   2.990
  386SOL    HW1 1447   1.336   1.736   2.936
  386SOL    HW2 1448   1.229   1.635   3.008
  387SOL     OW 1449   0.083   1.258   2.884
  387SOL    HW1 1450   0.078   1.257   2.984
  387SOL    HW2 1451   0.000   1.217   2.846
  388SOL     OW 1452   0.688   1.662   3.578
  388SOL    HW1 1453   0.632   1.743   3.587
  388SOL    HW2 1454   0.740   1.666   3.492
  389SOL     OW 1455   1.726   0.135   2.385
  389SOL    HW1 1456   1.799   0.118   2.318
  389SOL    HW2 1457   1.695   0.048   2.423
  390SOL     OW 1458   1.388   1.573   2.339
  390SOL    HW1 1459   1.455   1.585   2.265
  390SOL    HW2 1460   1.348   1.662   2.362
  391SOL     OW 1461   0.130   1.794   3.713
  391SOL    HW1 1462   0.089   1.720   3.766
  391SOL    HW2 1463   0.194   1.845   3.771
  392SOL     OW 1464   1.280   0.927   2.534
  392SOL    HW1 1465   1.340   0.846   2.536
  392SOL    HW2 1466   1.320   0.996   2.474
  393SOL     OW 1467   0.830   1.273   3.284
  393SOL    HW1 1468   0.825   1.306   3.379
  393SOL    HW2 1469   0.744   1.292   3.238
  394SOL     OW 1470   0.672   1.616   2.016
  394SOL    HW1 1471   0.681   1.626   1.917
  394SOL    HW2 1472   0.632   1.527   2.037
  395SOL     OW 1473   1.650   1.720   3.256
  395SOL    HW1 1474   1.703   1.730   3.172
  395SOL    HW2 1475   1.623   1.810   3.290
  396SOL     OW 1476   1.841   0.175   2.825
  396SOL    HW1 1477   1.880   0.090   2.789
  396SOL    HW2 1478   1.743   0.177   2.806
  397SOL     OW 1479   0.263   0.326   2.582
  397SOL    HW1 1480   0.184   0.377   2.548
  397SOL    HW2 1481   0.254   0.311   2.680
  398SOL     OW 1482   1.194   1.612   1.893
  398SOL    HW1 1483   1.200   1.519   1.930
  398SOL    HW2 1484   1.135   1.612   1.813
  399SOL     OW 1485   0.822   1.002   3.234
  399SOL    HW1 1486   0.862   1.001   3.142
  399SOL    HW2 1487   0.832   1.094   3.274
  400SOL     OW 1488   0.916   0.910   2.153
  400SOL    HW1 1489   0.979   0.948   2.085
  400SOL    HW2 1490   0.956   0.827   2.192
  401SOL     OW 1491   1.504   1.607   1.906
  401SOL    HW1 1492   1.412   1.644   1.913
  401SOL    HW2 1493   1.542   1.627   1.816
  402SOL     OW 1494   0.372   1.288   3.352
  402SOL    HW1 1495   0.359   1.381   3.318
  402SOL    HW2 1496   0.288   1.236   3.339
  403SOL     OW 1497   1.614   1.292   3.151
  403SOL    HW1 1498   1.674   1.295   3.231
  403SOL    HW2 1499   1.539   1.356   3.164
  404SOL     OW 1500   1.039   1.098   2.558
  404SOL    HW1 1501   0.969   1.051   2.612
  404SOL    HW2 1502   1.098   1.030   2.515
  405SOL     OW 1503   1.014   0.236   2.833
  405SOL    HW1 1504   1.006   0.200   2.740
  405SOL    HW2 1505   1.012   0.160   2.898
  406SOL     OW 1506   0.590   1.487   2.353
  406SOL    HW1 1507   0.632   1.429   2.283
  406SOL    HW2 1508   0.546   1.566   2.309
  407SOL     OW 1509   1.709   0.385   3.243
  407SOL    HW1 1510   1.782   0.454   3.247
  407SOL    HW2 1511   1.737   0.310   3.184
  408SOL     OW 1512   0.255   1.348   2.152
  408SOL    HW1 1513   0.159   1.349   2.125
  408SOL    HW2 1514   0.267   1.401   2.236
  409SOL     OW 1515   0.105   1.013   3.588
  409SOL    HW1 1516   0.028   0.980   3.642
  409SOL    HW2 1517   0.190   0.983   3.630
  410SOL     OW 1518   0.672   0.203   3.351
  410SOL    HW1 1519   0.762   0.187   3.311
  410SOL    HW2 1520   0.680   0.208   3.450
  411SOL     OW 1521   0.075   0.345   1.895
  411SOL    HW1 1522  -0.017   0.317   1.866
  411SOL    HW2 1523   0.106   0.422   1.839
  412SOL     OW 1524   1.440   0.856   3.260
  412SOL    HW1 1525   1.383   0.908   3.197
  412SOL    HW2 1526   1.536   0.868   3.236
  413SOL     OW 1527   0.072   0.166   2.180
  413SOL    HW1 1528   0.055   0.249   2.126
  413SOL    HW2 1529   0.162   0.129   2.158
  414SOL     OW 1530   1.183   1.335   1.981
  414SOL    HW1 1531   1.084   1.324   1.983
  414SOL    HW2 1532   1.217   1.350   2.074
  415SOL     OW 1533   0.613   0.842   3.293
  415SOL    HW1 1534   0.669   0.923   3.276
  415SOL    HW2 1535   0.672   0.762   3.296
  416SOL     OW 1536   1.493   1.767   2.821
  416SOL    HW1 1537   1.526   1.831   2.752
  416SOL    HW2 1538   1.559   1.761   2.896
  417SOL     OW 1539   0.716   0.565   3.570
  417SOL    HW1 1540   0.735   0.630   3.644
  417SOL    HW2 1541   0.776   0.485   3.579
  418SOL     OW 1542   1.450   1.220   3.495
  418SOL    HW1 1543   1.441   1.210   3.594
  418SOL    HW2 1544   1.546   1.213   3.469
  419SOL     OW 1545   0.390   1.741   3.422
  419SOL    HW1 1546   0.299   1.782   3.420
  419SOL    HW2 1547   0.383   1.647   3.454
  420SOL     OW 1548   1.674   0.883   3.116
  420SOL    HW1 1549   1.647   0.794   3.079
  420SOL    HW2 1550   1.675   0.951   3.043
  421SOL     OW 1551   1.225   0.325   2.311
  421SOL    HW1 1552   1.290   0.251   2.300
  421SOL    HW2 1553   1.245   0.375   2.395
  422SOL     OW 1554   0.594   0.745   2.514
  422SOL    HW1 1555   0.644   0.830   2.495
  422SOL    HW2 1556   0.506   0.747   2.466
  423SOL     OW 1557   1.777   0.342   3.504
  423SOL    HW1 1558   1.760   0.373   3.410
  423SOL    HW2 1559   1.693   0.305   3.542
  424SOL     OW 1560   1.730   0.934   3.379
  424SOL    HW1 1561   1.768   1.025   3.394
  424SOL    HW2 1562   1.722   0.917   3.280
  425SOL     OW 1563   0.859   1.374   1.878
  425SOL    HW1 1564   0.813   1.389   1.966
  425SOL    HW2 1565   0.903   1.459   1.848
  426SOL     OW 1566   0.661   1.790   2.815
  426SOL    HW1 1567   0.615   1.878   2.802
  426SOL    HW2 1568   0.760   1.802   2.808
  427SOL     OW 1569   0.859   0.956   2.723
  427SOL    HW1 1570   0.913   0.887   2.771
  427SOL    HW2 1571   0.827   1.025   2.789
  428SOL     OW 1572   1.083   0.984   1.949
  428SOL    HW1 1573   1.060   1.037   1.867
  428SOL    HW2 1574   1.164   0.928   1.930
  429SOL     OW 1575   1.861   1.569   2.713
  429SOL    HW1 1576   1.790   1.557   2.643
  429SOL    HW2 1577   1.862   1.490   2.773
  430SOL     OW 1578   0.221   1.314   3.706
  430SOL    HW1 1579   0.156   1.241   3.685
  430SOL    HW2 1580   0.225   1.328   3.804
  431SOL     OW 1581   0.079   1.240   2.515
  431SOL    HW1 1582   0.078   1.193   2.603
  431SOL    HW2 1583   0.161   1.212   2.464
  432SOL     OW 1584   0.672   1.391   3.486
  432SOL    HW1 1585   0.594   1.341   3.524
  432SOL    HW2 1586   0.669   1.486   3.517
  433SOL     OW 1587   1.824   0.192   3.089
  433SOL    HW1 1588   1.820   0.102   3.133
  433SOL    HW2 1589   1.827   0.181   2.990
  434SOL     OW 1590   0.428   0.424   2.382
  434SOL    HW1 1591   0.458   0.352   2.320
  434SOL    HW2 1592   0.389   0.384   2.465
  435SOL     OW 1593   1.705   1.487   2.966
  435SOL    HW1 1594   1.612   1.462   2.939
  435SOL    HW2 1595   1.731   1.437   3.048
  436SOL     OW 1596   0.317   0.547   3.142
  436SOL    HW1 1597   0.355   0.488   3.214
  436SOL    HW2 1598   0.357   0.521   3.054
  437SOL     OW 1599   0.812   1.586   2.549
  437SOL    HW1 1600   0.844   1.596   2.455
  437SOL    HW2 1601   0.733   1.524   2.551
  438SOL     OW 1602   1.424   0.214   2.974
  438SOL    HW1 1603   1.476   0.149   3.029
  438SOL    HW2 1604   1.375   0.277   3.035
  439SOL     OW 1605   1.001   0.034   3.016
  439SOL    HW1 1606   0.938  -0.038   2.985
  439SOL    HW2 1607   1.094  -0.002   3.016
  440SOL     OW 1608   0.770   1.330   2.163
  440SOL    HW1 1609   0.724   1.243   2.180
  440SOL    HW2 1610   0.861   1.327   2.204
  441SOL     OW 1611   0.618   1.567   3.146
  441SOL    HW1 1612   0.613   1.649   3.203
  441SOL    HW2 1613   0.707   1.564   3.101
  442SOL     OW 1614   1.352   0.052   2.030
  442SOL    HW1 1615   1.387   0.011   1.946
  442SOL    HW2 1616   1.262   0.014   2.050
  443SOL     OW 1617   1.300   0.453   2.553
  443SOL    HW1 1618   1.241   0.533   2.557
  443SOL    HW2 1619   1.315   0.418   2.646
  444SOL     OW 1620   1.593   0.221   2.744
  444SOL    HW1 1621   1.509   0.220   2.798
  444SOL    HW2 1622   1.595   0.304   2.688
  445SOL     OW 1623   0.039   1.077   2.162
  445SOL    HW1 1624   0.138   1.066   2.153
  445SOL    HW2 1625  -0.001   0.991   2.194
  446SOL     OW 1626   0.875   1.646   2.199
  446SOL    HW1 1627   0.798   1.611   2.145
  446SOL    HW2 1628   0.843   1.717   2.261
  447SOL     OW 1629   0.230   0.628   3.837
  447SOL    HW1 1630   0.137   0.626   3.874
  447SOL    HW2 1631   0.231   0.589   3.745
  448SOL     OW 1632   0.225   0.275   4.720
  448SOL    HW1 1633   0.260   0.258   4.812
  448SOL    HW2 1634   0.137   0.230   4.708
  449SOL     OW 1635   0.019   0.368   4.371
  449SOL    HW1 1636  -0.063   0.411   4.410
  449SOL    HW2 1637  -0.009   0.295   4.308
  450SOL     OW 1638   0.569   1.275   4.889
  450SOL    HW1 1639   0.476   1.268   4.852
  450SOL    HW2 1640   0.580   1.364   4.933
  451SOL     OW 1641   1.555   1.511   4.427
  451SOL    HW1 1642   1.498   1.495   4.508
  451SOL    HW2 1643   1.496   1.521   4.347
  452SOL     OW 1644   1.135   0.703   4.441
  452SOL    HW1 1645   1.192   0.781   4.416
  452SOL    HW2 1646   1.075   0.729   4.517
  453SOL     OW 1647   1.755   0.607   3.955
  453SOL    HW1 1648   1.743   0.594   3.856
  453SOL    HW2 1649   1.725   0.526   4.004
  454SOL     OW 1650   0.768   1.144   4.747
  454SOL    HW1 1651   0.690   1.161   4.807
  454SOL    HW2 1652   0.802   1.231   4.711
  455SOL     OW 1653   0.850   0.798   5.547
  455SOL    HW1 1654   0.846   0.874   5.612
  455SOL    HW2 1655   0.872   0.834   5.456
  456SOL     OW 1656   0.685   1.012   4.389
  456SOL    HW1 1657   0.754   0.996   4.459
  456SOL    HW2 1658   0.612   1.069   4.427
  457SOL     OW 1659   0.686   1.161   5.527
  457SOL    HW1 1660   0.746   1.240   5.541
  457SOL    HW2 1661   0.600   1.192   5.486
  458SOL     OW 1662   0.335   1.435   4.785
  458SOL    HW1 1663   0.257   1.404   4.732
  458SOL    HW2 1664   0.393   1.493   4.728
  459SOL     OW 1665   1.460   1.505   5.063
  459SOL    HW1 1666   1.484   1.599   5.089
  459SOL    HW2 1667   1.444   1.451   5.145
  460SOL     OW 1668   0.438   0.392   5.223
  460SOL    HW1 1669   0.520   0.336   5.232
  460SOL    HW2 1670   0.357   0.334   5.227
  461SOL     OW 1671   1.603   0.447   4.461
  461SOL    HW1 1672   1.529   0.493   4.411
  461SOL    HW2 1673   1.654   0.515   4.514
  462SOL     OW 1674   0.231   1.713   4.207
  462SOL    HW1 1675   0.265   1.790   4.261
  462SOL    HW2 1676   0.275   1.713   4.117
  463SOL     OW 1677   1.127   1.341   5.414
  463SOL    HW1 1678   1.174   1.341   5.502
  463SOL    HW2 1679   1.079   1.254   5.403
  464SOL     OW 1680   0.230   1.434   4.262
  464SOL    HW1 1681   0.204   1.530   4.262
  464SOL    HW2 1682   0.159   1.380   4.307
  465SOL     OW 1683   0.240   1.091   4.610
  465SOL    HW1 1684   0.254   1.007   4.662
  465SOL    HW2 1685   0.185   1.155   4.665
  466SOL     OW 1686   0.620   1.786   5.163
  466SOL    HW1 1687   0.528   1.769   5.198
  466SOL    HW2 1688   0.648   1.878   5.189
  467SOL     OW 1689   0.606   0.964   3.847
  467SOL    HW1 1690   0.613   1.048   3.793
  467SOL    HW2 1691   0.652   0.977   3.935
  468SOL     OW 1692   1.594   0.114   5.204
  468SOL    HW1 1693   1.576   0.181   5.132
  468SOL    HW2 1694   1.591   0.160   5.293
  469SOL     OW 1695   0.122   0.643   4.287
  469SOL    HW1 1696   0.077   0.555   4.304
  469SOL    HW2 1697   0.121   0.697   4.371
  470SOL     OW 1698   1.842   1.767   4.083
  470SOL    HW1 1699   1.896   1.738   4.163
  470SOL    HW2 1700   1.872   1.857   4.054
  471SOL     OW 1701   0.027   1.596   3.841
  471SOL    HW1 1702   0.008   1.500   3.862
  471SOL    HW2 1703  -0.006   1.654   3.916
  472SOL     OW 1704   1.689   0.922   4.336
  472SOL    HW1 1705   1.784   0.893   4.344
  472SOL    HW2 1706   1.681   0.987   4.261
  473SOL     OW 1707   1.641   1.108   4.156
  473SOL    HW1 1708   1.727   1.110   4.104
  473SOL    HW2 1709   1.655   1.155   4.244
  474SOL     OW 1710   0.113   0.737   5.321
  474SOL    HW1 1711   0.201   0.724   5.366
  474SOL    HW2 1712   0.100   0.834   5.299
  475SOL     OW 1713   0.613   1.365   4.450
  475SOL    HW1 1714   0.564   1.278   4.459
  475SOL    HW2 1715   0.590   1.408   4.363
  476SOL     OW 1716   1.293   1.228   5.147
  476SOL    HW1 1717   1.330   1.155   5.089
  476SOL    HW2 1718   1.345   1.233   5.232
  477SOL     OW 1719   0.809   0.004   4.226
  477SOL    HW1 1720   0.849   0.095   4.217
  477SOL    HW2 1721   0.709   0.012   4.232
  478SOL     OW 1722   0.197   0.976   4.988
  478SOL    HW1 1723   0.286   0.931   4.974
  478SOL    HW2 1724   0.124   0.911   4.969
  479SOL     OW 1725   1.525   0.999   3.914
  479SOL    HW1 1726   1.462   0.923   3.927
  479SOL    HW2 1727   1.573   1.017   4.000
  480SOL     OW 1728   1.187   1.792   5.340
  480SOL    HW1 1729   1.211   1.852   5.264
  480SOL    HW2 1730   1.194   1.697   5.310
  481SOL     OW 1731   0.317   0.251   5.525
  481SOL    HW1 1732   0.388   0.322   5.531
  481SOL    HW2 1733   0.229   0.290   5.553
  482SOL     OW 1734   1.466   1.417   4.677
  482SOL    HW1 1735   1.407   1.423   4.757
  482SOL    HW2 1736   1.451   1.329   4.631
  483SOL     OW 1737   1.667   1.714   4.296
  483SOL    HW1 1738   1.626   1.691   4.208
  483SOL    HW2 1739   1.649   1.640   4.361
  484SOL     OW 1740   0.598   0.729   3.994
  484SOL    HW1 1741   0.622   0.798   3.926
  484SOL    HW2 1742   0.520   0.762   4.048
  485SOL     OW 1743   1.281   0.345   4.668
  485SOL    HW1 1744   1.195   0.295   4.655
  485SOL    HW2 1745   1.343   0.291   4.724
  486SOL     OW 1746   1.576   1.662   4.031
  486SOL    HW1 1747   1.665   1.708   4.034
  486SOL    HW2 1748   1.555   1.638   3.936
  487SOL     OW 1749   0.807   0.605   5.189
  487SOL    HW1 1750   0.760   0.602   5.278
  487SOL    HW2 1751   0.756   0.550   5.123
  488SOL     OW 1752   1.394   0.469   5.398
  488SOL    HW1 1753   1.374   0.512   5.486
  488SOL    HW2 1754   1.472   0.407   5.407
  489SOL     OW 1755   0.973   0.890   5.296
  489SOL    HW1 1756   1.019   0.806   5.267
  489SOL    HW2 1757   0.917   0.924   5.221
  490SOL     OW 1758   0.991   0.410   4.966
  490SOL    HW1 1759   0.914   0.444   5.020
  490SOL    HW2 1760   0.957   0.359   4.887
  491SOL     OW 1761   1.041   0.701   4.153
  491SOL    HW1 1762   1.067   0.697   4.249
  491SOL    HW2 1763   0.956   0.650   4.139
  492SOL     OW 1764   0.076   0.811   4.513
  492SOL    HW1 1765   0.175   0.799   4.522
  492SOL    HW2 1766   0.052   0.906   4.534
  493SOL     OW 1767   0.130   1.821   5.295
  493SOL    HW1 1768   0.120   1.806   5.394
  493SOL    HW2 1769   0.044   1.857   5.259
  494SOL     OW 1770   0.865   0.348   3.919
  494SOL    HW1 1771   0.924   0.411   3.870
  494SOL    HW2 1772   0.884   0.254   3.890
  495SOL     OW 1773   1.719   0.585   5.555
  495SOL    HW1 1774   1.693   0.674   5.519
  495SOL    HW2 1775   1.717   0.517   5.482
  496SOL     OW 1776   1.362   1.144   4.269
  496SOL    HW1 1777   1.445   1.115   4.221
  496SOL    HW2 1778   1.313   1.211   4.213
  497SOL     OW 1779   0.550   0.196   4.609
  497SOL    HW1 1780   0.545   0.191   4.709
  497SOL    HW2 1781   0.552   0.292   4.580
  498SOL     OW 1782   1.008   1.456   4.201
  498SOL    HW1 1783   0.962   1.528   4.149
  498SOL    HW2 1784   1.004   1.476   4.299
  499SOL     OW 1785   0.351   1.801   4.577
  499SOL    HW1 1786   0.401   1.715   4.583
  499SOL    HW2 1787   0.416   1.878   4.574
  500SOL     OW 1788   1.795   1.066   4.597
  500SOL    HW1 1789   1.733   1.051   4.521
  500SOL    HW2 1790   1.743   1.077   4.682
  501SOL     OW 1791   1.227   1.550   5.230
  501SOL    HW1 1792   1.233   1.473   5.294
  501SOL    HW2 1793   1.175   1.524   5.150
  502SOL     OW 1794   0.321   0.943   3.966
  502SOL    HW1 1795   0.403   0.982   3.924
  502SOL    HW2 1796   0.294   0.861   3.917
  503SOL     OW 1797   1.458   0.735   4.452
  503SOL    HW1 1798   1.453   0.670   4.527
  503SOL    HW2 1799   1.538   0.794   4.465
  504SOL     OW 1800   0.461   1.266   5.451
  504SOL    HW1 1801   0.411   1.267   5.365
  504SOL    HW2 1802   0.398   1.248   5.527
  505SOL     OW 1803   1.111   1.776   3.961
  505SOL    HW1 1804   1.051   1.714   4.011
  505SOL    HW2 1805   1.142   1.732   3.876
  506SOL     OW 1806   0.202   0.285   5.222
  506SOL    HW1 1807   0.122   0.345   5.209
  506SOL    HW2 1808   0.192   0.236   5.308
  507SOL     OW 1809   1.632   1.377   3.805
  507SOL    HW1 1810   1.600   1.471   3.795
  507SOL    HW2 1811   1.556   1.314   3.793
  508SOL     OW 1812   0.464   1.743   4.047
  508SOL    HW1 1813   0.497   1.782   4.133
  508SOL    HW2 1814   0.540   1.736   3.982
  509SOL     OW 1815   1.400   0.107   4.150
  509SOL    HW1 1816   1.376   0.070   4.060
  509SOL    HW2 1817   1.499   0.123   4.154
  510SOL     OW 1818   0.249   1.785   4.965
  510SOL    HW1 1819   0.306   1.720   5.015
  510SOL    HW2 1820   0.233   1.752   4.872
  511SOL     OW 1821   0.940   1.698   4.628
  511SOL    HW1 1822   1.020   1.641   4.649
  511SOL    HW2 1823   0.891   1.658   4.551
  512SOL     OW 1824   0.382   0.700   4.204
  512SOL    HW1 1825   0.427   0.610   4.201
  512SOL    HW2 1826   0.288   0.689   4.237
  513SOL     OW 1827   1.547   0.222   5.453
  513SOL    HW1 1828   1.542   0.259   5.545
  513SOL    HW2 1829   1.475   0.153   5.441
  514SOL     OW 1830   0.614   0.122   3.841
  514SOL    HW1 1831   0.712   0.100   3.848
  514SOL    HW2 1832   0.583   0.105   3.748
  515SOL     OW 1833   0.781   0.264   5.473
  515SOL    HW1 1834   0.848   0.203   5.516
  515SOL    HW2 1835   0.708   0.283   5.538
  516SOL     OW 1836   0.888   1.514   4.919
  516SOL    HW1 1837   0.865   1.489   4.825
  516SOL    HW2 1838   0.949   1.445   4.958
  517SOL     OW 1839   1.351   0.590   5.157
  517SOL    HW1 1840   1.379   0.547   5.242
  517SOL    HW2 1841   1.376   0.686   5.158
  518SOL     OW 1842   0.803   1.402   4.648
  518SOL    HW1 1843   0.893   1.416   4.606
  518SOL    HW2 1844   0.732   1.404   4.577
  519SOL     OW 1845   0.922   0.503   4.623
  519SOL    HW1 1846   0.897   0.494   4.527
  519SOL    HW2 1847   0.970   0.421   4.654
  520SOL     OW 1848   0.539   0.064   4.236
  520SOL    HW1 1849   0.458   0.065   4.294
  520SOL    HW2 1850   0.542   0.147   4.181
  521SOL     OW 1851   1.434   1.188   3.765
  521SOL    HW1 1852   1.466   1.112   3.822
  521SOL    HW2 1853   1.342   1.215   3.795
  522SOL     OW 1854   0.297   0.035   3.895
  522SOL    HW1 1855   0.346   0.119   3.874
  522SOL    HW2 1856   0.359  -0.030   3.940
  523SOL     OW 1857   0.935   0.236   4.204
  523SOL    HW1 1858   0.887   0.277   4.126
  523SOL    HW2 1859   1.034   0.234   4.185
  524SOL     OW 1860   1.076   0.683   5.188
  524SOL    HW1 1861   0.996   0.622   5.191
  524SOL    HW2 1862   1.157   0.630   5.164
  525SOL     OW 1863   1.227   1.570   4.517
  525SOL    HW1 1864   1.248   1.644   4.452
  525SOL    HW2 1865   1.295   1.570   4.590
  526SOL     OW 1866   0.459   1.152   4.465
  526SOL    HW1 1867   0.388   1.125   4.530
  526SOL    HW2 1868   0.433   1.124   4.372
  527SOL     OW 1869   1.271   1.797   4.315
  527SOL    HW1 1870   1.315   1.861   4.251
  527SOL    HW2 1871   1.221   1.849   4.385
  528SOL     OW 1872   1.032   0.549   3.740
  528SOL    HW1 1873   0.991   0.631   3.701
  528SOL    HW2 1874   1.096   0.575   3.813
  529SOL     OW 1875   0.078   0.556   5.110
  529SOL    HW1 1876   0.170   0.555   5.069
  529SOL    HW2 1877   0.072   0.630   5.177
  530SOL     OW 1878   0.561   0.222   4.871
  530SOL    HW1 1879   0.599   0.138   4.908
  530SOL    HW2 1880   0.473   0.241   4.915
  531SOL     OW 1881   0.866   0.454   4.366
  531SOL    HW1 1882   0.834   0.526   4.304
  531SOL    HW2 1883   0.890   0.373   4.313
  532SOL     OW 1884   1.017   0.039   4.477
  532SOL    HW1 1885   0.945   0.044   4.408
  532SOL    HW2 1886   0.993  -0.030   4.546
  533SOL     OW 1887   1.429   1.173   4.591
  533SOL    HW1 1888   1.374   1.089   4.584
  533SOL    HW2 1889   1.455   1.202   4.499
  534SOL     OW 1890   1.466   0.590   4.716
  534SOL    HW1 1891   1.436   0.495   4.723
  534SOL    HW2 1892   1.539   0.606   4.782
  535SOL     OW 1893   1.857   0.833   4.101
  535SOL    HW1 1894   1.899   0.769   4.165
  535SOL    HW2 1895   1.819   0.782   4.023
  536SOL     OW 1896   0.488   1.385   3.898
  536SOL    HW1 1897   0.401   1.370   3.945
  536SOL    HW2 1898   0.471   1.411   3.803
  537SOL     OW 1899   1.664   1.280   4.381
  537SOL    HW1 1900   1.763   1.288   4.395
  537SOL    HW2 1901   1.619   1.364   4.412
  538SOL     OW 1902   1.390   0.575   3.802
  538SOL    HW1 1903   1.336   0.554   3.883
  538SOL    HW2 1904   1.481   0.534   3.811
  539SOL     OW 1905   0.527   0.256   4.052
  539SOL    HW1 1906   0.554   0.197   3.977
  539SOL    HW2 1907   0.527   0.351   4.021
  540SOL     OW 1908   1.754   1.223   5.312
  540SOL    HW1 1909   1.845   1.184   5.299
  540SOL    HW2 1910   1.762   1.319   5.336
  541SOL     OW 1911   1.064   1.347   5.064
  541SOL    HW1 1912   0.984   1.324   5.119
  541SOL    HW2 1913   1.147   1.321   5.113
  542SOL     OW 1914   1.592   1.629   5.349
  542SOL    HW1 1915   1.619   1.663   5.259
  542SOL    HW2 1916   1.671   1.591   5.395
  543SOL     OW 1917   1.111   1.195   4.824
  543SOL    HW1 1918   1.071   1.239   4.905
  543SOL    HW2 1919   1.070   1.232   4.741
  544SOL     OW 1920   1.638   1.099   4.803
  544SOL    HW1 1921   1.643   1.180   4.862
  544SOL    HW2 1922   1.552   1.101   4.752
  545SOL     OW 1923   0.915   0.089   5.126
  545SOL    HW1 1924   0.940   0.069   5.031
  545SOL    HW2 1925   0.987   0.145   5.168
  546SOL     OW 1926   0.980   1.116   5.443
  546SOL    HW1 1927   0.881   1.122   5.453
  546SOL    HW2 1928   1.003   1.036   5.387
  547SOL     OW 1929   0.705   1.050   4.092
  547SOL    HW1 1930   0.691   1.057   4.191
  547SOL    HW2 1931   0.789   0.999   4.074
  548SOL     OW 1932   0.410   0.813   4.975
  548SOL    HW1 1933   0.496   0.825   5.025
  548SOL    HW2 1934   0.368   0.726   5.002
  549SOL     OW 1935   1.274   0.386   4.986
  549SOL    HW1 1936   1.295   0.460   5.050
  549SOL    HW2 1937   1.185   0.403   4.943
  550SOL     OW 1938   0.064   1.564   5.055
  550SOL    HW1 1939   0.018   1.646   5.021
  550SOL    HW2 1940   0.162   1.583   5.064
  551SOL     OW 1941   0.367   1.100   4.225
  551SOL    HW1 1942   0.360   1.183   4.169
  551SOL    HW2 1943   0.371   1.020   4.165
  552SOL     OW 1944   0.566   0.537   4.589
  552SOL    HW1 1945   0.578   0.603   4.515
  552SOL    HW2 1946   0.612   0.571   4.672
  553SOL     OW 1947   1.252   1.348   4.112
  553SOL    HW1 1948   1.302   1.425   4.152
  553SOL    HW2 1949   1.157   1.350   4.144
  554SOL     OW 1950   1.272   1.445   4.866
  554SOL    HW1 1951   1.319   1.458   4.953
  554SOL    HW2 1952   1.206   1.371   4.875
  555SOL     OW 1953   1.582   0.639   4.196
  555SOL    HW1 1954   1.551   0.700   4.269
  555SOL    HW2 1955   1.632   0.691   4.127
  556SOL     OW 1956   0.354   1.510   5.053
  556SOL    HW1 1957   0.333   1.466   4.966
  556SOL    HW2 1958   0.451   1.536   5.056
  557SOL     OW 1959   0.402   0.751   5.322
  557SOL    HW1 1960   0.470   0.806   5.275
  557SOL    HW2 1961   0.442   0.663   5.349
  558SOL     OW 1962   1.587   0.779   5.394
  558SOL    HW1 1963   1.495   0.817   5.389
  558SOL    HW2 1964   1.647   0.826   5.329
  559SOL     OW 1965   1.013   0.105   5.494
  559SOL    HW1 1966   1.019   0.190   5.442
  559SOL    HW2 1967   1.045   0.029   5.437
  560SOL     OW 1968   0.504   0.050   5.464
  560SOL    HW1 1969   0.462  -0.007   5.394
  560SOL    HW2 1970   0.438   0.119   5.496
  561SOL     OW 1971   0.573   0.870   4.753
  561SOL    HW1 1972   0.617   0.959   4.744
  561SOL    HW2 1973   0.510   0.870   4.830
  562SOL     OW 1974   1.360   0.862   4.769
  562SOL    HW1 1975   1.285   0.862   4.703
  562SOL    HW2 1976   1.397   0.770   4.778
  563SOL     OW 1977   1.209   0.525   3.999
  563SOL    HW1 1978   1.222   0.441   4.053
  563SOL    HW2 1979   1.180   0.599   4.059
  564SOL     OW 1980   0.307   0.213   4.955
  564SOL    HW1 1981   0.284   0.250   5.045
  564SOL    HW2 1982   0.277   0.118   4.949
  565SOL     OW 1983   0.037   1.310   5.006
  565SOL    HW1 1984   0.090   1.261   5.074
  565SOL    HW2 1985   0.059   1.408   5.011
  566SOL     OW 1986   0.732   0.634   4.788
  566SOL    HW1 1987   0.791   0.608   4.712
  566SOL    HW2 1988   0.704   0.730   4.777
  567SOL     OW 1989   1.728   0.935   5.578
  567SOL    HW1 1990   1.682   0.928   5.489
  567SOL    HW2 1991   1.666   0.979   5.644
  568SOL     OW 1992   0.307   0.063   4.342
  568SOL    HW1 1993   0.296   0.157   4.375
  568SOL    HW2 1994   0.302   0.000   4.419
  569SOL     OW 1995   1.622   0.367   4.098
  569SOL    HW1 1996   1.624   0.291   4.162
  569SOL    HW2 1997   1.574   0.444   4.138
  570SOL     OW 1998   1.023   0.766   4.690
  570SOL    HW1 1999   1.038   0.787   4.786
  570SOL    HW2 2000   0.993   0.671   4.681
  571SOL     OW 2001   0.980   1.573   5.424
  571SOL    HW1 2002   0.960   1.617   5.336
  571SOL    HW2 2003   1.019   1.482   5.408
  572SOL     OW 2004   1.859   1.518   5.329
  572SOL    HW1 2005   1.873   1.545   5.234
  572SOL    HW2 2006   1.942   1.540   5.382
  573SOL     OW 2007   0.350   0.898   5.528
  573SOL    HW1 2008   0.426   0.942   5.576
  573SOL    HW2 2009   0.385   0.851   5.446
  574SOL     OW 2010   1.540   0.274   3.849
  574SOL    HW1 2011   1.479   0.199   3.872
  574SOL    HW2 2012   1.562   0.326   3.932
  575SOL     OW 2013   1.303   0.838   3.766
  575SOL    HW1 2014   1.337   0.745   3.781
  575SOL    HW2 2015   1.321   0.865   3.671
  576SOL     OW 2016   1.068   1.333   4.573
  576SOL    HW1 2017   1.075   1.249   4.518
  576SOL    HW2 2018   1.130   1.402   4.537
  577SOL     OW 2019   0.319   0.810   4.673
  577SOL    HW1 2020   0.412   0.846   4.678
  577SOL    HW2 2021   0.313   0.725   4.725
  578SOL     OW 2022   0.339   0.509   4.730
  578SOL    HW1 2023   0.287   0.426   4.713
  578SOL    HW2 2024   0.416   0.514   4.666
  579SOL     OW 2025   1.138   0.380   5.402
  579SOL    HW1 2026   1.093   0.443   5.466
  579SOL    HW2 2027   1.231   0.411   5.385
  580SOL     OW 2028   1.160   0.207   5.201
  580SOL    HW1 2029   1.160   0.271   5.278
  580SOL    HW2 2030   1.188   0.255   5.118
  581SOL     OW 2031   0.008   1.326   3.924
  581SOL    HW1 2032  -0.085   1.347   3.893
  581SOL    HW2 2033   0.018   1.227   3.937
  582SOL     OW 2034   0.088   1.801   4.651
  582SOL    HW1 2035   0.046   1.715   4.624
  582SOL    HW2 2036   0.182   1.804   4.617
  583SOL     OW 2037   0.504   1.568   4.634
  583SOL    HW1 2038   0.570   1.642   4.643
  583SOL    HW2 2039   0.548   1.489   4.592
  584SOL     OW 2040   1.002   0.796   4.962
  584SOL    HW1 2041   1.043   0.764   5.048
  584SOL    HW2 2042   0.906   0.769   4.959
  585SOL     OW 2043   0.040   0.544   4.838
  585SOL    HW1 2044   0.125   0.511   4.797
  585SOL    HW2 2045   0.053   0.559   4.936
  586SOL     OW 2046   0.189   0.520   5.446
  586SOL    HW1 2047   0.248   0.480   5.376
  586SOL    HW2 2048   0.131   0.591   5.405
  587SOL     OW 2049   1.369   0.950   5.384
  587SOL    HW1 2050   1.408   1.039   5.404
  587SOL    HW2 2051   1.379   0.930   5.287
  588SOL     OW 2052   0.815   0.572   4.049
  588SOL    HW1 2053   0.822   0.483   4.003
  588SOL    HW2 2054   0.721   0.606   4.041
  589SOL     OW 2055   1.657   0.604   4.930
  589SOL    HW1 2056   1.619   0.535   4.992
  589SOL    HW2 2057   1.739   0.568   4.886
  590SOL     OW 2058   0.252   1.564   5.468
  590SOL    HW1 2059   0.222   1.621   5.544
  590SOL    HW2 2060   0.245   1.467   5.494
  591SOL     OW 2061   0.671   0.464   4.993
  591SOL    HW1 2062   0.637   0.375   4.963
  591SOL    HW2 2063   0.697   0.518   4.913
  592SOL     OW 2064   0.930   1.678   5.189
  592SOL    HW1 2065   0.906   1.660   5.094
  592SOL    HW2 2066   0.960   1.772   5.199
  593SOL     OW 2067   0.473   0.500   3.915
  593SOL    HW1 2068   0.534   0.580   3.919
  593SOL    HW2 2069   0.378   0.531   3.922
  594SOL     OW 2070   0.159   1.137   5.190
  594SOL    HW1 2071   0.181   1.076   5.266
  594SOL    HW2 2072   0.169   1.088   5.104
  595SOL     OW 2073   1.347   1.059   4.958
  595SOL    HW1 2074   1.371   0.996   4.884
  595SOL    HW2 2075   1.257   1.099   4.940
  596SOL     OW 2076   1.302   0.855   4.033
  596SOL    HW1 2077   1.216   0.824   4.075
  596SOL    HW2 2078   1.298   0.841   3.934
  597SOL     OW 2079   1.759   1.747   4.878
  597SOL    HW1 2080   1.820   1.777   4.805
  597SOL    HW2 2081   1.721   1.658   4.856
  598SOL     OW 2082   1.252   1.731   4.852
  598SOL    HW1 2083   1.336   1.736   4.798
  598SOL    HW2 2084   1.229   1.635   4.870
  599SOL     OW 2085   0.083   1.258   4.746
  599SOL    HW1 2086   0.078   1.257   4.846
  599SOL    HW2 2087   0.000   1.217   4.708
  600SOL     OW 2088   0.688   1.662   5.440
  600SOL    HW1 2089   0.632   1.743   5.449
  600SOL    HW2 2090   0.740   1.666   5.354
  601SOL     OW 2091   1.726   0.135   4.247
  601SOL    HW1 2092   1.799   0.118   4.180
  601SOL    HW2 2093   1.695   0.048   4.285
  602SOL     OW 2094   1.388   1.573   4.201
  602SOL    HW1 2095   1.455   1.585   4.127
  602SOL    HW2 2096   1.348   1.662   4.224
  603SOL     OW 2097   0.130   1.794   5.575
  603SOL    HW1 2098   0.089   1.720   5.628
  603SOL    HW2 2099   0.194   1.845   5.633
  604SOL     OW 2100   1.280   0.927   4.396
  604SOL    HW1 2101   1.340   0.846   4.398
  604SOL    HW2 2102   1.320   0.996   4.336
  605SOL     OW 2103   0.830   1.273   5.146
  605SOL    HW1 2104   0.825   1.306   5.241
  605SOL    HW2 2105   0.744   1.292   5.100
  606SOL     OW 2106   0.672   1.616   3.878
  606SOL    HW1 2107   0.681   1.626   3.779
  606SOL    HW2 2108   0.632   1.527   3.899
  607SOL     OW 2109   1.650   1.720   5.118
  607SOL    HW1 2110   1.703   1.730   5.034
  607SOL    HW2 2111   1.623   1.810   5.152
  608SOL     OW 2112   1.841   0.175   4.687
  608SOL    HW1 2113   1.880   0.090   4.651
  608SOL    HW2 2114   1.743   0.177   4.668
  609SOL     OW 2115   0.263   0.326   4.444
  609SOL    HW1 2116   0.184   0.377   4.410
  609SOL    HW2 2117   0.254   0.311   4.542
  610SOL     OW 2118   1.194   1.612   3.755
  610SOL    HW1 2119   1.200   1.519   3.792
  610SOL    HW2 2120   1.135   1.612   3.675
  611SOL     OW 2121   0.822   1.002   5.096
  611SOL    HW1 2122   0.862   1.001   5.004
  611SOL    HW2 2123   0.832   1.094   5.136
  612SOL     OW 2124   0.916   0.910   4.015
  612SOL    HW1 2125   0.979   0.948   3.947
  612SOL    HW2 2126   0.956   0.827   4.054
  613SOL     OW 2127   1.504   1.607   3.768
  613SOL    HW1 2128   1.412   1.644   3.775
  613SOL    HW2 2129   1.542   1.627   3.678
  614SOL     OW 2130   0.372   1.288   5.214
  614SOL    HW1 2131   0.359   1.381   5.180
  614SOL    HW2 2132   0.288   1.236   5.201
  615SOL     OW 2133   1.614   1.292   5.013
  615SOL    HW1 2134   1.674   1.295   5.093
  615SOL    HW2 2135   1.539   1.356   5.026
  616SOL     OW 2136   1.039   1.098   4.420
  616SOL    HW1 2137   0.969   1.051   4.474
  616SOL    HW2 2138   1.098   1.030   4.377
  617SOL     OW 2139   1.014   0.236   4.695
  617SOL    HW1 2140   1.006   0.200   4.602
  617SOL    HW2 2141   1.012   0.160   4.760
  618SOL     OW 2142   0.590   1.487   4.215
  618SOL    HW1 2143   0.632   1.429   4.145
  618SOL    HW2 2144   0.546   1.566   4.171
  619SOL     OW 2145   1.709   0.385   5.105
  619SOL    HW1 2146   1.782   0.454   5.109
  619SOL    HW2 2147   1.737   0.310   5.046
  620SOL     OW 2148   0.255   1.348   4.014
  620SOL    HW1 2149   0.159   1.349   3.987
  620SOL    HW2 2150   0.267   1.401   4.098
  621SOL     OW 2151   0.105   1.013   5.450
  621SOL    HW1 2152   0.028   0.980   5.504
  621SOL    HW2 2153   0.190   0.983   5.492
  622SOL     OW 2154   0.672   0.203   5.213
  622SOL    HW1 2155   0.762   0.187   5.173
  622SOL    HW2 2156   0.680   0.208   5.312
  623SOL     OW 2157   0.075   0.345   3.757
  623SOL    HW1 2158  -0.017   0.317   3.728
  623SOL    HW2 2159   0.106   0.422   3.701
  624SOL     OW 2160   1.440   0.856   5.122
  624SOL    HW1 2161   1.383   0.908   5.059
  624SOL    HW2 2162   1.536   0.868   5.098
  625SOL     OW 2163   0.072   0.166   4.042
  625SOL    HW1 2164   0.055   0.249   3.988
  625SOL    HW2 2165   0.162   0.129   4.020
  626SOL     OW 2166   1.183   1.335   3.843
  626SOL    HW1 2167   1.084   1.324   3.845
  626SOL    HW2 2168   1.217   1.350   3.936
  627SOL     OW 2169   0.613   0.842   5.155
  627SOL    HW1 2170   0.669   0.923   5.138
  627SOL    HW2 2171   0.672   0.762   5.158
  628SOL     OW 2172   1.493   1.767   4.683
  628SOL    HW1 2173   1.526   1.831   4.614
  628SOL    HW2 2174   1.559   1.761   4.758
  629SOL     OW 2175   0.716   0.565   5.432
  629SOL    HW1 2176   0.735   0.630   5.506
  629SOL    HW2 2177   0.776   0.485   5.441
  630SOL     OW 2178   1.450   1.220   5.357
  630SOL    HW1 2179   1.441   1.210   5.456
  630SOL    HW2 2180   1.546   1.213   5.331
  631SOL     OW 2181   0.390   1.741   5.284
  631SOL    HW1 2182   0.299   1.782   5.282
  631SOL    HW2 2183   0.383   1.647   5.316
  632SOL     OW 2184   1.674   0.883   4.978
  632SOL    HW1 2185   1.647   0.794   4.941
  632SOL    HW2 2186   1.675   0.951   4.905
  633SOL     OW 2187   1.225   0.325   4.173
  633SOL    HW1 2188   1.290   0.251   4.162
  633SOL    HW2 2189   1.245   0.375   4.257
  634SOL     OW 2190   0.594   0.745   4.376
  634SOL    HW1 2191   0.644   0.830   4.357
  634SOL    HW2 2192   0.506   0.747   4.328
  635SOL     OW 2193   1.777   0.342   5.366
  635SOL    HW1 2194   1.760   0.373   5.272
  635SOL    HW2 2195   1.693   0.305   5.404
  636SOL     OW 2196   1.730   0.934   5.241
  636SOL    HW1 2197   1.768   1.025   5.256
  636SOL    HW2 2198   1.722   0.917   5.142
  637SOL     OW 2199   0.859   1.374   3.740
  637SOL    HW1 2200   0.813   1.389   3.828
  637SOL    HW2 2201   0.903   1.459   3.710
  638SOL     OW 2202   0.661   1.790   4.677
  638SOL    HW1 2203   0.615   1.878   4.664
  638SOL    HW2 2204   0.760   1.802   4.670
  639SOL     OW 2205   0.859   0.956   4.585
  639SOL    HW1 2206   0.913   0.887   4.633
  639SOL    HW2 2207   0.827   1.025   4.651
  640SOL     OW 2208   1.083   0.984   3.811
  640SOL    HW1 2209   1.060   1.037   3.729
  640SOL    HW2 2210   1.164   0.928   3.792
  641SOL     OW 2211   1.861   1.569   4.575
  641SOL    HW1 2212   1.790   1.557   4.505
  641SOL    HW2 2213   1.862   1.490   4.635
  642SOL     OW 2214   0.221   1.314   5.568
  642SOL    HW1 2215   0.156   1.241   5.547
  642SOL    HW2 2216   0.225   1.328   5.666
  643SOL     OW 2217   0.079   1.240   4.377
  643SOL    HW1 2218   0.078   1.193   4.465
  643SOL    HW2 2219   0.161   1.212   4.326
  644SOL     OW 2220   0.672   1.391   5.348
  644SOL    HW1 2221   0.594   1.341   5.386
  644SOL    HW2 2222   0.669   1.486   5.379
  645SOL     OW 2223   1.824   0.192   4.951
  645SOL    HW1 2224   1.820   0.102   4.995
  645SOL    HW2 2225   1.827   0.181   4.852
  646SOL     OW 2226   0.428   0.424   4.244
  646SOL    HW1 2227   0.458   0.352   4.182
  646SOL    HW2 2228   0.389   0.384   4.327
  647SOL     OW 2229   1.705   1.487   4.828
  647SOL    HW1 2230   1.612   1.462   4.801
  647SOL    HW2 2231   1.731   1.437   4.910
  648SOL     OW 2232   0.317   0.547   5.004
  648SOL    HW1 2233   0.355   0.488   5.076
  648SOL    HW2 2234   0.357   0.521   4.916
  649SOL     OW 2235   0.812   1.586   4.411
  649SOL    HW1 2236   0.844   1.596   4.317
  649SOL    HW2 2237   0.733   1.524   4.413
  650SOL     OW 2238   1.424   0.214   4.836
  650SOL    HW1 2239   1.476   0.149   4.891
  650SOL    HW2 2240   1.375   0.277   4.897
  651SOL     OW 2241   1.001   0.034   4.878
  651SOL    HW1 2242   0.938  -0.038   4.847
  651SOL    HW2 2243   1.094  -0.002   4.878
  652SOL     OW 2244   0.770   1.330   4.025
  652SOL    HW1 2245   0.724   1.243   4.042
  652SOL    HW2 2246   0.861   1.327   4.066
  653SOL     OW 2247   0.618   1.567   5.008
  653SOL    HW1 2248   0.613   1.649   5.065
  653SOL    HW2 2249   0.707   1.564   4.963
  654SOL     OW 2250   1.352   0.052   3.892
  654SOL    HW1 2251   1.387   0.011   3.808
  654SOL    HW2 2252   1.262   0.014   3.912
  655SOL     OW 2253   1.300   0.453   4.415
  655SOL    HW1 2254   1.241   0.533   4.419
  655SOL    HW2 2255   1.315   0.418   4.508
  656SOL     OW 2256   1.593   0.221   4.606
  656SOL    HW1 2257   1.509   0.220   4.660
  656SOL    HW2 2258   1.595   0.304   4.550
  657SOL     OW 2259   0.039   1.077   4.024
  657SOL    HW1 2260   0.138   1.066   4.015
  657SOL    HW2 2261  -0.001   0.991   4.056
  658SOL     OW 2262   0.875   1.646   4.061
  658SOL    HW1 2263   0.798   1.611   4.007
  658SOL    HW2 2264   0.843   1.717   4.123
  659SOL     OW 2265   0.230   0.628   5.699
  659SOL    HW1 2266   0.137   0.626   5.736
  659SOL    HW2 2267   0.231   0.589   5.607
  660SOL     OW 2268   1.755   0.607   5.817
  660SOL    HW1 2269   1.743   0.594   5.718
  660SOL    HW2 2270   1.725   0.526   5.866
  661SOL     OW 2271   0.231   1.713   6.069
  661SOL    HW1 2272   0.265   1.790   6.123
  661SOL    HW2 2273   0.275   1.713   5.979
  662SOL     OW 2274   0.606   0.964   5.709
  662SOL    HW1 2275   0.613   1.048   5.655
  662SOL    HW2 2276   0.652   0.977   5.797
  663SOL     OW 2277   1.842   1.767   5.945
  663SOL    HW1 2278   1.896   1.738   6.025
  663SOL    HW2 2279   1.872   1.857   5.916
  664SOL     OW 2280   0.027   1.596   5.703
  664SOL    HW1 2281   0.008   1.500   5.724
  664SOL    HW2 2282  -0.006   1.654   5.778
  665SOL     OW 2283   1.689   0.922   6.198
  665SOL    HW1 2284   1.784   0.893   6.206
  665SOL    HW2 2285   1.681   0.987   6.123
  666SOL     OW 2286   1.641   1.108   6.018
  666SOL    HW1 2287   1.727   1.110   5.966
  666SOL    HW2 2288   1.655   1.155   6.106
  667SOL     OW 2289   1.525   0.999   5.776
  667SOL    HW1 2290   1.462   0.923   5.789
  667SOL    HW2 2291   1.573   1.017   5.862
  668SOL     OW 2292   0.598   0.729   5.856
  668SOL    HW1 2293   0.622   0.798   5.788
  668SOL    HW2 2294   0.520   0.762   5.910
  669SOL     OW 2295   0.865   0.348   5.781
  669SOL    HW1 2296   0.924   0.411   5.732
  669SOL    HW2 2297   0.884   0.254   5.752
  670SOL     OW 2298   0.321   0.943   5.828
  670SOL    HW1 2299   0.403   0.982   5.786
  670SOL    HW2 2300   0.294   0.861   5.779
  671SOL     OW 2301   1.111   1.776   5.823
  671SOL    HW1 2302   1.051   1.714   5.873
  671SOL    HW2 2303   1.142   1.732   5.738
  672SOL     OW 2304   1.632   1.377   5.667
  672SOL    HW1 2305   1.600   1.471   5.657
  672SOL    HW2 2306   1.556   1.314   5.655
  673SOL     OW 2307   0.464   1.743   5.909
  673SOL    HW1 2308   0.497   1.782   5.995
  673SOL    HW2 2309   0.540   1.736   5.844
  674SOL     OW 2310   0.614   0.122   5.703
  674SOL    HW1 2311   0.712   0.100   5.710
  674SOL    HW2 2312   0.583   0.105   5.610
  675SOL     OW 2313   1.434   1.188   5.627
  675SOL    HW1 2314   1.466   1.112   5.684
  675SOL    HW2 2315   1.342   1.215   5.657
  676SOL     OW 2316   0.297   0.035   5.757
  676SOL    HW1 2317   0.346   0.119   5.736
  676SOL    HW2 2318   0.359  -0.030   5.802
  677SOL     OW 2319   1.032   0.549   5.602
  677SOL    HW1 2320   0.991   0.631   5.563
  677SOL    HW2 2321   1.096   0.575   5.675
  678SOL     OW 2322   1.857   0.833   5.963
  678SOL    HW1 2323   1.899   0.769   6.027
  678SOL    HW2 2324   1.819   0.782   5.885
  679SOL     OW 2325   0.488   1.385   5.760
  679SOL    HW1 2326   0.401   1.370   5.807
  679SOL    HW2 2327   0.471   1.411   5.665
  680SOL     OW 2328   1.664   1.280   6.243
  680SOL    HW1 2329   1.763   1.288   6.257
  680SOL    HW2 2330   1.619   1.364   6.274
  681SOL     OW 2331   1.390   0.575   5.664
  681SOL    HW1 2332   1.336   0.554   5.745
  681SOL    HW2 2333   1.481   0.534   5.673
  682SOL     OW 2334   0.527   0.256   5.914
  682SOL    HW1 2335   0.554   0.197   5.839
  682SOL    HW2 2336   0.527   0.351   5.883
  683SOL     OW 2337   0.367   1.100   6.087
  683SOL    HW1 2338   0.360   1.183   6.031
  683SOL    HW2 2339   0.371   1.020   6.027
  684SOL     OW 2340   1.209   0.525   5.861
  684SOL    HW1 2341   1.222   0.441   5.915
  684SOL    HW2 2342   1.180   0.599   5.921
  685SOL     OW 2343   1.540   0.274   5.711
  685SOL    HW1 2344   1.479   0.199   5.734
  685SOL    HW2 2345   1.562   0.326   5.794
  686SOL     OW 2346   1.303   0.838   5.628
  686SOL    HW1 2347   1.337   0.745   5.643
  686SOL    HW2 2348   1.321   0.865   5.533
  687SOL     OW 2349   0.008   1.326   5.786
  687SOL    HW1 2350  -0.085   1.347   5.755
  687SOL    HW2 2351   0.018   1.227   5.799
  688SOL     OW 2352   0.815   0.572   5.911
  688SOL    HW1 2353   0.822   0.483   5.865
  688SOL    HW2 2354   0.721   0.606   5.903
  689SOL     OW 2355   0.473   0.500   5.777
  689SOL    HW1 2356   0.534   0.580   5.781
  689SOL    HW2 2357   0.378   0.531   5.784
  690SOL     OW 2358   1.726   0.135   6.109
  690SOL    HW1 2359   1.799   0.118   6.042
  690SOL    HW2 2360   1.695   0.048   6.147
  691SOL     OW 2361   0.672   1.616   5.740
  691SOL    HW1 2362   0.681   1.626   5.641
  691SOL    HW2 2363   0.632   1.527   5.761
  692SOL     OW 2364   1.194   1.612   5.617
  692SOL    HW1 2365   1.200   1.519   5.654
  692SOL    HW2 2366   1.135   1.612   5.537
  693SOL     OW 2367   0.916   0.910   5.877
  693SOL    HW1 2368   0.979   0.948   5.809
  693SOL    HW2 2369   0.956   0.827   5.916
  694SOL     OW 2370   1.504   1.607   5.630
  694SOL    HW1 2371   1.412   1.644   5.637
  694SOL    HW2 2372   1.542   1.627   5.540
  695SOL     OW 2373   1.039   1.098   6.282
  695SOL    HW1 2374   0.969   1.051   6.336
  695SOL    HW2 2375   1.098   1.030   6.239
  696SOL     OW 2376   0.255   1.348   5.876
  696SOL    HW1 2377   0.159   1.349   5.849
  696SOL    HW2 2378   0.267   1.401   5.960
  697SOL     OW 2379   0.075   0.345   5.619
  697SOL    HW1 2380  -0.017   0.317   5.590
  697SOL    HW2 2381   0.106   0.422   5.563
  698SOL     OW 2382   0.072   0.166   5.904
  698SOL    HW1 2383   0.055   0.249   5.850
  698SOL    HW2 2384   0.162   0.129   5.882
  699SOL     OW 2385   1.183   1.335   5.705
  699SOL    HW1 2386   1.084   1.324   5.707
  699SOL    HW2 2387   1.217   1.350   5.798
  700SOL     OW 2388   1.225   0.325   6.035
  700SOL    HW1 2389   1.290   0.251   6.024
  700SOL    HW2 2390   1.245   0.375   6.119
  701SOL     OW 2391   0.859   1.374   5.602
  701SOL    HW1 2392   0.813   1.389   5.690
  701SOL    HW2 2393   0.903   1.459   5.572
  702SOL     OW 2394   1.083   0.984   5.673
  702SOL    HW1 2395   1.060   1.037   5.591
  702SOL    HW2 2396   1.164   0.928   5.654
  703SOL     OW 2397   1.352   0.052   5.754
  703SOL    HW1 2398   1.387   0.011   5.670
  703SOL    HW2 2399   1.262   0.014   5.774
  704SOL     OW 2400   0.039   1.077   5.886
  704SOL    HW1 2401   0.138   1.066   5.877
  704SOL    HW2 2402  -0.001   0.991   5.918
  705SOL     OW 2403   0.875   1.646   5.923
  705SOL    HW1 2404   0.798   1.611   5.869
  705SOL    HW2 2405   0.843   1.717   5.985
  706SOL     OW 2406   0.230   2.490   0.113
  706SOL    HW1 2407   0.137   2.488   0.150
  706SOL    HW2 2408   0.231   2.451   0.021
  707SOL     OW 2409   0.225   2.137   0.996
  707SOL    HW1 2410   0.260   2.120   1.088
  707SOL    HW2 2411   0.137   2.092   0.984
  708SOL     OW 2412   0.019   2.230   0.647
  708SOL    HW1 2413  -0.063   2.273   0.686
  708SOL    HW2 2414  -0.009   2.157   0.584
  709SOL     OW 2415   0.569   3.137   1.165
  709SOL    HW1 2416   0.476   3.130   1.128
  709SOL    HW2 2417   0.580   3.226   1.209
  710SOL     OW 2418   1.555   3.373   0.703
  710SOL    HW1 2419   1.498   3.357   0.784
  710SOL    HW2 2420   1.496   3.383   0.623
  711SOL     OW 2421   1.135   2.565   0.717
  711SOL    HW1 2422   1.192   2.643   0.692
  711SOL    HW2 2423   1.075   2.591   0.793
  712SOL     OW 2424   1.755   2.469   0.231
  712SOL    HW1 2425   1.743   2.456   0.132
  712SOL    HW2 2426   1.725   2.388   0.280
  713SOL     OW 2427   0.768   3.006   1.023
  713SOL    HW1 2428   0.690   3.023   1.083
  713SOL    HW2 2429   0.802   3.093   0.987
  714SOL     OW 2430   0.850   2.660   1.823
  714SOL    HW1 2431   0.846   2.736   1.888
  714SOL    HW2 2432   0.872   2.696   1.732
  715SOL     OW 2433   0.685   2.874   0.665
  715SOL    HW1 2434   0.754   2.858   0.735
  715SOL    HW2 2435   0.612   2.931   0.703
  716SOL     OW 2436   0.686   3.023   1.803
  716SOL    HW1 2437   0.746   3.102   1.817
  716SOL    HW2 2438   0.600   3.054   1.762
  717SOL     OW 2439   0.335   3.297   1.061
  717SOL    HW1 2440   0.257   3.266   1.008
  717SOL    HW2 2441   0.393   3.355   1.004
  718SOL     OW 2442   1.460   3.367   1.339
  718SOL    HW1 2443   1.484   3.461   1.365
  718SOL    HW2 2444   1.444   3.313   1.421
  719SOL     OW 2445   0.438   2.254   1.499
  719SOL    HW1 2446   0.520   2.198   1.508
  719SOL    HW2 2447   0.357   2.196   1.503
  720SOL     OW 2448   1.603   2.309   0.737
  720SOL    HW1 2449   1.529   2.355   0.687
  720SOL    HW2 2450   1.654   2.377   0.790
  721SOL     OW 2451   0.231   3.575   0.483
  721SOL    HW1 2452   0.265   3.652   0.537
  721SOL    HW2 2453   0.275   3.575   0.393
  722SOL     OW 2454   1.127   3.203   1.690
  722SOL    HW1 2455   1.174   3.203   1.778
  722SOL    HW2 2456   1.079   3.116   1.679
  723SOL     OW 2457   0.230   3.296   0.538
  723SOL    HW1 2458   0.204   3.392   0.538
  723SOL    HW2 2459   0.159   3.242   0.583
  724SOL     OW 2460   0.240   2.953   0.886
  724SOL    HW1 2461   0.254   2.869   0.938
  724SOL    HW2 2462   0.185   3.017   0.941
  725SOL     OW 2463   0.620   3.648   1.439
  725SOL    HW1 2464   0.528   3.631   1.474
  725SOL    HW2 2465   0.648   3.740   1.465
  726SOL     OW 2466   0.606   2.826   0.123
  726SOL    HW1 2467   0.613   2.910   0.069
  726SOL    HW2 2468   0.652   2.839   0.211
  727SOL     OW 2469   1.594   1.976   1.480
  727SOL    HW1 2470   1.576   2.043   1.408
  727SOL    HW2 2471   1.591   2.022   1.569
  728SOL     OW 2472   0.122   2.505   0.563
  728SOL    HW1 2473   0.077   2.417   0.580
  728SOL    HW2 2474   0.121   2.559   0.647
  729SOL     OW 2475   1.842   3.629   0.359
  729SOL    HW1 2476   1.896   3.600   0.439
  729SOL    HW2 2477   1.872   3.719   0.330
  730SOL     OW 2478   0.027   3.458   0.117
  730SOL    HW1 2479   0.008   3.362   0.138
  730SOL    HW2 2480  -0.006   3.516   0.192
  731SOL     OW 2481   1.689   2.784   0.612
  731SOL    HW1 2482   1.784   2.755   0.620
  731SOL    HW2 2483   1.681   2.849   0.537
  732SOL     OW 2484   1.641   2.970   0.432
  732SOL    HW1 2485   1.727   2.972   0.380
  732SOL    HW2 2486   1.655   3.017   0.520
  733SOL     OW 2487   0.113   2.599   1.597
  733SOL    HW1 2488   0.201   2.586   1.642
  733SOL    HW2 2489   0.100   2.696   1.575
  734SOL     OW 2490   0.613   3.227   0.726
  734SOL    HW1 2491   0.564   3.140   0.735
  734SOL    HW2 2492   0.590   3.270   0.639
  735SOL     OW 2493   1.293   3.090   1.423
  735SOL    HW1 2494   1.330   3.017   1.365
  735SOL    HW2 2495   1.345   3.095   1.508
  736SOL     OW 2496   0.809   1.866   0.502
  736SOL    HW1 2497   0.849   1.957   0.493
  736SOL    HW2 2498   0.709   1.874   0.508
  737SOL     OW 2499   0.197   2.838   1.264
  737SOL    HW1 2500   0.286   2.793   1.250
  737SOL    HW2 2501   0.124   2.773   1.245
  738SOL     OW 2502   1.525   2.861   0.190
  738SOL    HW1 2503   1.462   2.785   0.203
  738SOL    HW2 2504   1.573   2.879   0.276
  739SOL     OW 2505   1.187   3.654   1.616
  739SOL    HW1 2506   1.211   3.714   1.540
  739SOL    HW2 2507   1.194   3.559   1.586
  740SOL     OW 2508   0.317   2.113   1.801
  740SOL    HW1 2509   0.388   2.184   1.807
  740SOL    HW2 2510   0.229   2.152   1.829
  741SOL     OW 2511   1.466   3.279   0.953
  741SOL    HW1 2512   1.407   3.285   1.033
  741SOL    HW2 2513   1.451   3.191   0.907
  742SOL     OW 2514   1.667   3.576   0.572
  742SOL    HW1 2515   1.626   3.553   0.484
  742SOL    HW2 2516   1.649   3.502   0.637
  743SOL     OW 2517   0.598   2.591   0.270
  743SOL    HW1 2518   0.622   2.660   0.202
  743SOL    HW2 2519   0.520   2.624   0.324
  744SOL     OW 2520   1.281   2.207   0.944
  744SOL    HW1 2521   1.195   2.157   0.931
  744SOL    HW2 2522   1.343   2.153   1.000
  745SOL     OW 2523   1.576   3.524   0.307
  745SOL    HW1 2524   1.665   3.570   0.310
  745SOL    HW2 2525   1.555   3.500   0.212
  746SOL     OW 2526   0.807   2.467   1.465
  746SOL    HW1 2527   0.760   2.464   1.554
  746SOL    HW2 2528   0.756   2.412   1.399
  747SOL     OW 2529   1.394   2.331   1.674
  747SOL    HW1 2530   1.374   2.374   1.762
  747SOL    HW2 2531   1.472   2.269   1.683
  748SOL     OW 2532   0.973   2.752   1.572
  748SOL    HW1 2533   1.019   2.668   1.543
  748SOL    HW2 2534   0.917   2.786   1.497
  749SOL     OW 2535   0.991   2.272   1.242
  749SOL    HW1 2536   0.914   2.306   1.296
  749SOL    HW2 2537   0.957   2.221   1.163
  750SOL     OW 2538   1.041   2.563   0.429
  750SOL    HW1 2539   1.067   2.559   0.525
  750SOL    HW2 2540   0.956   2.512   0.415
  751SOL     OW 2541   0.076   2.673   0.789
  751SOL    HW1 2542   0.175   2.661   0.798
  751SOL    HW2 2543   0.052   2.768   0.810
  752SOL     OW 2544   0.130   3.683   1.571
  752SOL    HW1 2545   0.120   3.668   1.670
  752SOL    HW2 2546   0.044   3.719   1.535
  753SOL     OW 2547   0.865   2.210   0.195
  753SOL    HW1 2548   0.924   2.273   0.146
  753SOL    HW2 2549   0.884   2.116   0.166
  754SOL     OW 2550   1.719   2.447   1.831
  754SOL    HW1 2551   1.693   2.536   1.795
  754SOL    HW2 2552   1.717   2.379   1.758
  755SOL     OW 2553   1.362   3.006   0.545
  755SOL    HW1 2554   1.445   2.977   0.497
  755SOL    HW2 2555   1.313   3.073   0.489
  756SOL     OW 2556   0.550   2.058   0.885
  756SOL    HW1 2557   0.545   2.053   0.985
  756SOL    HW2 2558   0.552   2.154   0.856
  757SOL     OW 2559   1.008   3.318   0.477
  757SOL    HW1 2560   0.962   3.390   0.425
  757SOL    HW2 2561   1.004   3.338   0.575
  758SOL     OW 2562   0.351   3.663   0.853
  758SOL    HW1 2563   0.401   3.577   0.859
  758SOL    HW2 2564   0.416   3.740   0.850
  759SOL     OW 2565   1.795   2.928   0.873
  759SOL    HW1 2566   1.733   2.913   0.797
  759SOL    HW2 2567   1.743   2.939   0.958
  760SOL     OW 2568   1.227   3.412   1.506
  760SOL    HW1 2569   1.233   3.335   1.570
  760SOL    HW2 2570   1.175   3.386   1.426
  761SOL     OW 2571   0.321   2.805   0.242
  761SOL    HW1 2572   0.403   2.844   0.200
  761SOL    HW2 2573   0.294   2.723   0.193
  762SOL     OW 2574   1.458   2.597   0.728
  762SOL    HW1 2575   1.453   2.532   0.803
  762SOL    HW2 2576   1.538   2.656   0.741
  763SOL     OW 2577   0.461   3.128   1.727
  763SOL    HW1 2578   0.411   3.129   1.641
  763SOL    HW2 2579   0.398   3.110   1.803
  764SOL     OW 2580   1.111   3.638   0.237
  764SOL    HW1 2581   1.051   3.576   0.287
  764SOL    HW2 2582   1.142   3.594   0.152
  765SOL     OW 2583   0.202   2.147   1.498
  765SOL    HW1 2584   0.122   2.207   1.485
  765SOL    HW2 2585   0.192   2.098   1.584
  766SOL     OW 2586   1.632   3.239   0.081
  766SOL    HW1 2587   1.600   3.333   0.071
  766SOL    HW2 2588   1.556   3.176   0.069
  767SOL     OW 2589   0.464   3.605   0.323
  767SOL    HW1 2590   0.497   3.644   0.409
  767SOL    HW2 2591   0.540   3.598   0.258
  768SOL     OW 2592   1.400   1.969   0.426
  768SOL    HW1 2593   1.376   1.932   0.336
  768SOL    HW2 2594   1.499   1.985   0.430
  769SOL     OW 2595   0.249   3.647   1.241
  769SOL    HW1 2596   0.306   3.582   1.291
  769SOL    HW2 2597   0.233   3.614   1.148
  770SOL     OW 2598   0.940   3.560   0.904
  770SOL    HW1 2599   1.020   3.503   0.925
  770SOL    HW2 2600   0.891   3.520   0.827
  771SOL     OW 2601   0.382   2.562   0.480
  771SOL    HW1 2602   0.427   2.472   0.477
  771SOL    HW2 2603   0.288   2.551   0.513
  772SOL     OW 2604   1.547   2.084   1.729
  772SOL    HW1 2605   1.542   2.121   1.821
  772SOL    HW2 2606   1.475   2.015   1.717
  773SOL     OW 2607   0.614   1.984   0.117
  773SOL    HW1 2608   0.712   1.962   0.124
  773SOL    HW2 2609   0.583   1.967   0.024
  774SOL     OW 2610   0.781   2.126   1.749
  774SOL    HW1 2611   0.848   2.065   1.792
  774SOL    HW2 2612   0.708   2.145   1.814
  775SOL     OW 2613   0.888   3.376   1.195
  775SOL    HW1 2614   0.865   3.351   1.101
  775SOL    HW2 2615   0.949   3.307   1.234
  776SOL     OW 2616   1.351   2.452   1.433
  776SOL    HW1 2617   1.379   2.409   1.518
  776SOL    HW2 2618   1.376   2.548   1.434
  777SOL     OW 2619   0.803   3.264   0.924
  777SOL    HW1 2620   0.893   3.278   0.882
  777SOL    HW2 2621   0.732   3.266   0.853
  778SOL     OW 2622   0.922   2.365   0.899
  778SOL    HW1 2623   0.897   2.356   0.803
  778SOL    HW2 2624   0.970   2.283   0.930
  779SOL     OW 2625   0.539   1.926   0.512
  779SOL    HW1 2626   0.458   1.927   0.570
  779SOL    HW2 2627   0.542   2.009   0.457
  780SOL     OW 2628   1.434   3.050   0.041
  780SOL    HW1 2629   1.466   2.974   0.098
  780SOL    HW2 2630   1.342   3.077   0.071
  781SOL     OW 2631   0.935   2.098   0.480
  781SOL    HW1 2632   0.887   2.139   0.402
  781SOL    HW2 2633   1.034   2.096   0.461
  782SOL     OW 2634   1.076   2.545   1.464
  782SOL    HW1 2635   0.996   2.484   1.467
  782SOL    HW2 2636   1.157   2.492   1.440
  783SOL     OW 2637   1.227   3.432   0.793
  783SOL    HW1 2638   1.248   3.506   0.728
  783SOL    HW2 2639   1.295   3.432   0.866
  784SOL     OW 2640   0.459   3.014   0.741
  784SOL    HW1 2641   0.388   2.987   0.806
  784SOL    HW2 2642   0.433   2.986   0.648
  785SOL     OW 2643   1.271   3.659   0.591
  785SOL    HW1 2644   1.315   3.723   0.527
  785SOL    HW2 2645   1.221   3.711   0.661
  786SOL     OW 2646   1.032   2.411   0.016
  786SOL    HW1 2647   0.991   2.493  -0.023
  786SOL    HW2 2648   1.096   2.437   0.089
  787SOL     OW 2649   0.078   2.418   1.386
  787SOL    HW1 2650   0.170   2.417   1.345
  787SOL    HW2 2651   0.072   2.492   1.453
  788SOL     OW 2652   0.561   2.084   1.147
  788SOL    HW1 2653   0.599   2.000   1.184
  788SOL    HW2 2654   0.473   2.103   1.191
  789SOL     OW 2655   0.866   2.316   0.642
  789SOL    HW1 2656   0.834   2.388   0.580
  789SOL    HW2 2657   0.890   2.235   0.589
  790SOL     OW 2658   1.017   1.901   0.753
  790SOL    HW1 2659   0.945   1.906   0.684
  790SOL    HW2 2660   0.993   1.832   0.822
  791SOL     OW 2661   1.429   3.035   0.867
  791SOL    HW1 2662   1.374   2.951   0.860
  791SOL    HW2 2663   1.455   3.064   0.775
  792SOL     OW 2664   1.466   2.452   0.992
  792SOL    HW1 2665   1.436   2.357   0.999
  792SOL    HW2 2666   1.539   2.468   1.058
  793SOL     OW 2667   1.857   2.695   0.377
  793SOL    HW1 2668   1.899   2.631   0.441
  793SOL    HW2 2669   1.819   2.644   0.299
  794SOL     OW 2670   0.488   3.247   0.174
  794SOL    HW1 2671   0.401   3.232   0.221
  794SOL    HW2 2672   0.471   3.273   0.079
  795SOL     OW 2673   1.664   3.142   0.657
  795SOL    HW1 2674   1.763   3.150   0.671
  795SOL    HW2 2675   1.619   3.226   0.688
  796SOL     OW 2676   1.390   2.437   0.078
  796SOL    HW1 2677   1.336   2.416   0.159
  796SOL    HW2 2678   1.481   2.396   0.087
  797SOL     OW 2679   0.527   2.118   0.328
  797SOL    HW1 2680   0.554   2.059   0.253
  797SOL    HW2 2681   0.527   2.213   0.297
  798SOL     OW 2682   1.754   3.085   1.588
  798SOL    HW1 2683   1.845   3.046   1.575
  798SOL    HW2 2684   1.762   3.181   1.612
  799SOL     OW 2685   1.064   3.209   1.340
  799SOL    HW1 2686   0.984   3.186   1.395
  799SOL    HW2 2687   1.147   3.183   1.389
  800SOL     OW 2688   1.592   3.491   1.625
  800SOL    HW1 2689   1.619   3.525   1.535
  800SOL    HW2 2690   1.671   3.453   1.671
  801SOL     OW 2691   1.111   3.057   1.100
  801SOL    HW1 2692   1.071   3.101   1.181
  801SOL    HW2 2693   1.070   3.094   1.017
  802SOL     OW 2694   1.638   2.961   1.079
  802SOL    HW1 2695   1.643   3.042   1.138
  802SOL    HW2 2696   1.552   2.963   1.028
  803SOL     OW 2697   0.915   1.951   1.402
  803SOL    HW1 2698   0.940   1.931   1.307
  803SOL    HW2 2699   0.987   2.007   1.444
  804SOL     OW 2700   0.980   2.978   1.719
  804SOL    HW1 2701   0.881   2.984   1.729
  804SOL    HW2 2702   1.003   2.898   1.663
  805SOL     OW 2703   0.705   2.912   0.368
  805SOL    HW1 2704   0.691   2.919   0.467
  805SOL    HW2 2705   0.789   2.861   0.350
  806SOL     OW 2706   0.410   2.675   1.251
  806SOL    HW1 2707   0.496   2.687   1.301
  806SOL    HW2 2708   0.368   2.588   1.278
  807SOL     OW 2709   1.274   2.248   1.262
  807SOL    HW1 2710   1.295   2.322   1.326
  807SOL    HW2 2711   1.185   2.265   1.219
  808SOL     OW 2712   0.064   3.426   1.331
  808SOL    HW1 2713   0.018   3.508   1.297
  808SOL    HW2 2714   0.162   3.445   1.340
  809SOL     OW 2715   0.367   2.962   0.501
  809SOL    HW1 2716   0.360   3.045   0.445
  809SOL    HW2 2717   0.371   2.882   0.441
  810SOL     OW 2718   0.566   2.399   0.865
  810SOL    HW1 2719   0.578   2.465   0.791
  810SOL    HW2 2720   0.612   2.433   0.948
  811SOL     OW 2721   1.252   3.210   0.388
  811SOL    HW1 2722   1.302   3.287   0.428
  811SOL    HW2 2723   1.157   3.212   0.420
  812SOL     OW 2724   1.272   3.307   1.142
  812SOL    HW1 2725   1.319   3.320   1.229
  812SOL    HW2 2726   1.206   3.233   1.151
  813SOL     OW 2727   1.582   2.501   0.472
  813SOL    HW1 2728   1.551   2.562   0.545
  813SOL    HW2 2729   1.632   2.553   0.403
  814SOL     OW 2730   0.354   3.372   1.329
  814SOL    HW1 2731   0.333   3.328   1.242
  814SOL    HW2 2732   0.451   3.398   1.332
  815SOL     OW 2733   0.402   2.613   1.598
  815SOL    HW1 2734   0.470   2.668   1.551
  815SOL    HW2 2735   0.442   2.525   1.625
  816SOL     OW 2736   1.587   2.641   1.670
  816SOL    HW1 2737   1.495   2.679   1.665
  816SOL    HW2 2738   1.647   2.688   1.605
  817SOL     OW 2739   1.013   1.967   1.770
  817SOL    HW1 2740   1.019   2.052   1.718
  817SOL    HW2 2741   1.045   1.891   1.713
  818SOL     OW 2742   0.504   1.912   1.740
  818SOL    HW1 2743   0.462   1.855   1.670
  818SOL    HW2 2744   0.438   1.981   1.772
  819SOL     OW 2745   0.573   2.732   1.029
  819SOL    HW1 2746   0.617   2.821   1.020
  819SOL    HW2 2747   0.510   2.732   1.106
  820SOL     OW 2748   1.360   2.724   1.045
  820SOL    HW1 2749   1.285   2.724   0.979
  820SOL    HW2 2750   1.397   2.632   1.054
  821SOL     OW 2751   1.209   2.387   0.275
  821SOL    HW1 2752   1.222   2.303   0.329
  821SOL    HW2 2753   1.180   2.461   0.335
  822SOL     OW 2754   0.307   2.075   1.231
  822SOL    HW1 2755   0.284   2.112   1.321
  822SOL    HW2 2756   0.277   1.980   1.225
  823SOL     OW 2757   0.037   3.172   1.282
  823SOL    HW1 2758   0.090   3.123   1.350
  823SOL    HW2 2759   0.059   3.270   1.287
  824SOL     OW 2760   0.732   2.496   1.064
  824SOL    HW1 2761   0.791   2.470   0.988
  824SOL    HW2 2762   0.704   2.592   1.053
  825SOL     OW 2763   1.728   2.797   1.854
  825SOL    HW1 2764   1.682   2.790   1.765
  825SOL    HW2 2765   1.666   2.841   1.920
  826SOL     OW 2766   0.307   1.925   0.618
  826SOL    HW1 2767   0.296   2.019   0.651
  826SOL    HW2 2768   0.302   1.862   0.695
  827SOL     OW 2769   1.622   2.229   0.374
  827SOL    HW1 2770   1.624   2.153   0.438
  827SOL    HW2 2771   1.574   2.306   0.414
  828SOL     OW 2772   1.023   2.628   0.966
  828SOL    HW1 2773   1.038   2.649   1.062
  828SOL    HW2 2774   0.993   2.533   0.957
  829SOL     OW 2775   0.980   3.435   1.700
  829SOL    HW1 2776   0.960   3.479   1.612
  829SOL    HW2 2777   1.019   3.344   1.684
  830SOL     OW 2778   1.859   3.380   1.605
  830SOL    HW1 2779   1.873   3.407   1.510
  830SOL    HW2 2780   1.942   3.402   1.658
  831SOL     OW 2781   0.350   2.760   1.804
  831SOL    HW1 2782   0.426   2.804   1.852
  831SOL    HW2 2783   0.385   2.713   1.722
  832SOL     OW 2784   1.540   2.136   0.125
  832SOL    HW1 2785   1.479   2.061   0.148
  832SOL    HW2 2786   1.562   2.188   0.208
  833SOL     OW 2787   1.303   2.700   0.042
  833SOL    HW1 2788   1.337   2.607   0.057
  833SOL    HW2 2789   1.321   2.727  -0.053
  834SOL     OW 2790   1.068   3.195   0.849
  834SOL    HW1 2791   1.075   3.111   0.794
  834SOL    HW2 2792   1.130   3.264   0.813
  835SOL     OW 2793   0.319   2.672   0.949
  835SOL    HW1 2794   0.412   2.708   0.954
  835SOL    HW2 2795   0.313   2.587   1.001
  836SOL     OW 2796   0.339   2.371   1.006
  836SOL    HW1 2797   0.287   2.288   0.989
  836SOL    HW2 2798   0.416   2.376   0.942
  837SOL     OW 2799   1.138   2.242   1.678
  837SOL    HW1 2800   1.093   2.305   1.742
  837SOL    HW2 2801   1.231   2.273   1.661
  838SOL     OW 2802   1.160   2.069   1.477
  838SOL    HW1 2803   1.160   2.133   1.554
  838SOL    HW2 2804   1.188   2.117   1.394
  839SOL     OW 2805   0.008   3.188   0.200
  839SOL    HW1 2806  -0.085   3.209   0.169
  839SOL    HW2 2807   0.018   3.089   0.213
  840SOL     OW 2808   0.088   3.663   0.927
  840SOL    HW1 2809   0.046   3.577   0.900
  840SOL    HW2 2810   0.182   3.666   0.893
  841SOL     OW 2811   0.504   3.430   0.910
  841SOL    HW1 2812   0.570   3.504   0.919
  841SOL    HW2 2813   0.548   3.351   0.868
  842SOL     OW 2814   1.002   2.658   1.238
  842SOL    HW1 2815   1.043   2.626   1.324
  842SOL    HW2 2816   0.906   2.631   1.235
  843SOL     OW 2817   0.040   2.406   1.114
  843SOL    HW1 2818   0.125   2.373   1.073
  843SOL    HW2 2819   0.053   2.421   1.212
  844SOL     OW 2820   0.189   2.382   1.722
  844SOL    HW1 2821   0.248   2.342   1.652
  844SOL    HW2 2822   0.131   2.453   1.681
  845SOL     OW 2823   1.369   2.812   1.660
  845SOL    HW1 2824   1.408   2.901   1.680
  845SOL    HW2 2825   1.379   2.792   1.563
  846SOL     OW 2826   0.815   2.434   0.325
  846SOL    HW1 2827   0.822   2.345   0.279
  846SOL    HW2 2828   0.721   2.468   0.317
  847SOL     OW 2829   1.657   2.466   1.206
  847SOL    HW1 2830   1.619   2.397   1.268
  847SOL    HW2 2831   1.739   2.430   1.162
  848SOL     OW 2832   0.252   3.426   1.744
  848SOL    HW1 2833   0.222   3.483   1.820
  848SOL    HW2 2834   0.245   3.329   1.770
  849SOL     OW 2835   0.671   2.326   1.269
  849SOL    HW1 2836   0.637   2.237   1.239
  849SOL    HW2 2837   0.697   2.380   1.189
  850SOL     OW 2838   0.930   3.540   1.465
  850SOL    HW1 2839   0.906   3.522   1.370
  850SOL    HW2 2840   0.960   3.634   1.475
  851SOL     OW 2841   0.473   2.362   0.191
  851SOL    HW1 2842   0.534   2.442   0.195
  851SOL    HW2 2843   0.378   2.393   0.198
  852SOL     OW 2844   0.159   2.999   1.466
  852SOL    HW1 2845   0.181   2.938   1.542
  852SOL    HW2 2846   0.169   2.950   1.380
  853SOL     OW 2847   1.347   2.921   1.234
  853SOL    HW1 2848   1.371   2.858   1.160
  853SOL    HW2 2849   1.257   2.961   1.216
  854SOL     OW 2850   1.302   2.717   0.309
  854SOL    HW1 2851   1.216   2.686   0.351
  854SOL    HW2 2852   1.298   2.703   0.210
  855SOL     OW 2853   1.759   3.609   1.154
  855SOL    HW1 2854   1.820   3.639   1.081
  855SOL    HW2 2855   1.721   3.520   1.132
  856SOL     OW 2856   1.252   3.593   1.128
  856SOL    HW1 2857   1.336   3.598   1.074
  856SOL    HW2 2858   1.229   3.497   1.146
  857SOL     OW 2859   0.083   3.120   1.022
  857SOL    HW1 2860   0.078   3.119   1.122
  857SOL    HW2 2861   0.000   3.079   0.984
  858SOL     OW 2862   0.688   3.524   1.716
  858SOL    HW1 2863   0.632   3.605   1.725
  858SOL    HW2 2864   0.740   3.528   1.630
  859SOL     OW 2865   0.903   1.948   0.133
  859SOL    HW1 2866   0.954   1.949   0.047
  859SOL    HW2 2867   0.959   1.906   0.204
  860SOL     OW 2868   1.726   1.997   0.523
  860SOL    HW1 2869   1.799   1.980   0.456
  860SOL    HW2 2870   1.695   1.910   0.561
  861SOL     OW 2871   1.388   3.435   0.477
  861SOL    HW1 2872   1.455   3.447   0.403
  861SOL    HW2 2873   1.348   3.524   0.500
  862SOL     OW 2874   0.130   3.656   1.851
  862SOL    HW1 2875   0.089   3.582   1.904
  862SOL    HW2 2876   0.194   3.707   1.909
  863SOL     OW 2877   1.280   2.789   0.672
  863SOL    HW1 2878   1.340   2.708   0.674
  863SOL    HW2 2879   1.320   2.858   0.612
  864SOL     OW 2880   0.830   3.135   1.422
  864SOL    HW1 2881   0.825   3.168   1.517
  864SOL    HW2 2882   0.744   3.154   1.376
  865SOL     OW 2883   0.672   3.478   0.154
  865SOL    HW1 2884   0.681   3.488   0.055
  865SOL    HW2 2885   0.632   3.389   0.175
  866SOL     OW 2886   1.650   3.582   1.394
  866SOL    HW1 2887   1.703   3.592   1.310
  866SOL    HW2 2888   1.623   3.672   1.428
  867SOL     OW 2889   1.841   2.037   0.963
  867SOL    HW1 2890   1.880   1.952   0.927
  867SOL    HW2 2891   1.743   2.039   0.944
  868SOL     OW 2892   0.263   2.188   0.720
  868SOL    HW1 2893   0.184   2.239   0.686
  868SOL    HW2 2894   0.254   2.173   0.818
  869SOL     OW 2895   1.194   3.474   0.031
  869SOL    HW1 2896   1.200   3.381   0.068
  869SOL    HW2 2897   1.135   3.474  -0.049
  870SOL     OW 2898   0.822   2.864   1.372
  870SOL    HW1 2899   0.862   2.863   1.280
  870SOL    HW2 2900   0.832   2.956   1.412
  871SOL     OW 2901   0.916   2.772   0.291
  871SOL    HW1 2902   0.979   2.810   0.223
  871SOL    HW2 2903   0.956   2.689   0.330
  872SOL     OW 2904   1.504   3.469   0.044
  872SOL    HW1 2905   1.412   3.506   0.051
  872SOL    HW2 2906   1.542   3.489  -0.046
  873SOL     OW 2907   0.372   3.150   1.490
  873SOL    HW1 2908   0.359   3.243   1.456
  873SOL    HW2 2909   0.288   3.098   1.477
  874SOL     OW 2910   1.614   3.154   1.289
  874SOL    HW1 2911   1.674   3.157   1.369
  874SOL    HW2 2912   1.539   3.218   1.302
  875SOL     OW 2913   1.039   2.960   0.696
  875SOL    HW1 2914   0.969   2.913   0.750
  875SOL    HW2 2915   1.098   2.892   0.653
  876SOL     OW 2916   1.014   2.098   0.971
  876SOL    HW1 2917   1.006   2.062   0.878
  876SOL    HW2 2918   1.012   2.022   1.036
  877SOL     OW 2919   0.590   3.349   0.491
  877SOL    HW1 2920   0.632   3.291   0.421
  877SOL    HW2 2921   0.546   3.428   0.447
  878SOL     OW 2922   1.709   2.247   1.381
  878SOL    HW1 2923   1.782   2.316   1.385
  878SOL    HW2 2924   1.737   2.172   1.322
  879SOL     OW 2925   0.255   3.210   0.290
  879SOL    HW1 2926   0.159   3.211   0.263
  879SOL    HW2 2927   0.267   3.263   0.374
  880SOL     OW 2928   0.105   2.875   1.726
  880SOL    HW1 2929   0.028   2.842   1.780
  880SOL    HW2 2930   0.190   2.845   1.768
  881SOL     OW 2931   0.672   2.065   1.489
  881SOL    HW1 2932   0.762   2.049   1.449
  881SOL    HW2 2933   0.680   2.070   1.588
  882SOL     OW 2934   0.075   2.207   0.033
  882SOL    HW1 2935  -0.017   2.179   0.004
  882SOL    HW2 2936   0.106   2.284  -0.023
  883SOL     OW 2937   1.440   2.718   1.398
  883SOL    HW1 2938   1.383   2.770   1.335
  883SOL    HW2 2939   1.536   2.730   1.374
  884SOL     OW 2940   0.072   2.028   0.318
  884SOL    HW1 2941   0.055   2.111   0.264
  884SOL    HW2 2942   0.162   1.991   0.296
  885SOL     OW 2943   1.183   3.197   0.119
  885SOL    HW1 2944   1.084   3.186   0.121
  885SOL    HW2 2945   1.217   3.212   0.212
  886SOL     OW 2946   0.613   2.704   1.431
  886SOL    HW1 2947   0.669   2.785   1.414
  886SOL    HW2 2948   0.672   2.624   1.434
  887SOL     OW 2949   1.493   3.629   0.959
  887SOL    HW1 2950   1.526   3.693   0.890
  887SOL    HW2 2951   1.559   3.623   1.034
  888SOL     OW 2952   0.716   2.427   1.708
  888SOL    HW1 2953   0.735   2.492   1.782
  888SOL    HW2 2954   0.776   2.347   1.717
  889SOL     OW 2955   1.450   3.082   1.633
  889SOL    HW1 2956   1.441   3.072   1.732
  889SOL    HW2 2957   1.546   3.075   1.607
  890SOL     OW 2958   0.390   3.603   1.560
  890SOL    HW1 2959   0.299   3.644   1.558
  890SOL    HW2 2960   0.383   3.509   1.592
  891SOL     OW 2961   1.674   2.745   1.254
  891SOL    HW1 2962   1.647   2.656   1.217
  891SOL    HW2 2963   1.675   2.813   1.181
  892SOL     OW 2964   1.225   2.187   0.449
  892SOL    HW1 2965   1.290   2.113   0.438
  892SOL    HW2 2966   1.245   2.237   0.533
  893SOL     OW 2967   0.594   2.607   0.652
  893SOL    HW1 2968   0.644   2.692   0.633
  893SOL    HW2 2969   0.506   2.609   0.604
  894SOL     OW 2970   1.777   2.204   1.642
  894SOL    HW1 2971   1.760   2.235   1.548
  894SOL    HW2 2972   1.693   2.167   1.680
  895SOL     OW 2973   1.730   2.796   1.517
  895SOL    HW1 2974   1.768   2.887   1.532
  895SOL    HW2 2975   1.722   2.779   1.418
  896SOL     OW 2976   0.859   3.236   0.016
  896SOL    HW1 2977   0.813   3.251   0.104
  896SOL    HW2 2978   0.903   3.321  -0.014
  897SOL     OW 2979   0.661   3.652   0.953
  897SOL    HW1 2980   0.615   3.740   0.940
  897SOL    HW2 2981   0.760   3.664   0.946
  898SOL     OW 2982   0.859   2.818   0.861
  898SOL    HW1 2983   0.913   2.749   0.909
  898SOL    HW2 2984   0.827   2.887   0.927
  899SOL     OW 2985   1.083   2.846   0.087
  899SOL    HW1 2986   1.060   2.899   0.005
  899SOL    HW2 2987   1.164   2.790   0.068
  900SOL     OW 2988   1.861   3.431   0.851
  900SOL    HW1 2989   1.790   3.419   0.781
  900SOL    HW2 2990   1.862   3.352   0.911
  901SOL     OW 2991   0.221   3.176   1.844
  901SOL    HW1 2992   0.156   3.103   1.823
  901SOL    HW2 2993   0.225   3.190   1.942
  902SOL     OW 2994   0.079   3.102   0.653
  902SOL    HW1 2995   0.078   3.055   0.741
  902SOL    HW2 2996   0.161   3.074   0.602
  903SOL     OW 2997   0.672   3.253   1.624
  903SOL    HW1 2998   0.594   3.203   1.662
  903SOL    HW2 2999   0.669   3.348   1.655
  904SOL     OW 3000   1.824   2.054   1.227
  904SOL    HW1 3001   1.820   1.964   1.271
  904SOL    HW2 3002   1.827   2.043   1.128
  905SOL     OW 3003   0.428   2.286   0.520
  905SOL    HW1 3004   0.458   2.214   0.458
  905SOL    HW2 3005   0.389   2.246   0.603
  906SOL     OW 3006   1.705   3.349   1.104
  906SOL    HW1 3007   1.612   3.324   1.077
  906SOL    HW2 3008   1.731   3.299   1.186
  907SOL     OW 3009   0.317   2.409   1.280
  907SOL    HW1 3010   0.355   2.350   1.352
  907SOL    HW2 3011   0.357   2.383   1.192
  908SOL     OW 3012   0.812   3.448   0.687
  908SOL    HW1 3013   0.844   3.458   0.593
  908SOL    HW2 3014   0.733   3.386   0.689
  909SOL     OW 3015   1.424   2.076   1.112
  909SOL    HW1 3016   1.476   2.011   1.167
  909SOL    HW2 3017   1.375   2.139   1.173
  910SOL     OW 3018   1.001   1.896   1.154
  910SOL    HW1 3019   0.938   1.824   1.123
  910SOL    HW2 3020   1.094   1.860   1.154
  911SOL     OW 3021   0.770   3.192   0.301
  911SOL    HW1 3022   0.724   3.105   0.318
  911SOL    HW2 3023   0.861   3.189   0.342
  912SOL     OW 3024   0.618   3.429   1.284
  912SOL    HW1 3025   0.613   3.511   1.341
  912SOL    HW2 3026   0.707   3.426   1.239
  913SOL     OW 3027   1.352   1.914   0.168
  913SOL    HW1 3028   1.387   1.873   0.084
  913SOL    HW2 3029   1.262   1.876   0.188
  914SOL     OW 3030   1.300   2.315   0.691
  914SOL    HW1 3031   1.241   2.395   0.695
  914SOL    HW2 3032   1.315   2.280   0.784
  915SOL     OW 3033   1.593   2.083   0.882
  915SOL    HW1 3034   1.509   2.082   0.936
  915SOL    HW2 3035   1.595   2.166   0.826
  916SOL     OW 3036   0.039   2.939   0.300
  916SOL    HW1 3037   0.138   2.928   0.291
  916SOL    HW2 3038  -0.001   2.853   0.332
  917SOL     OW 3039   0.875   3.508   0.337
  917SOL    HW1 3040   0.798   3.473   0.283
  917SOL    HW2 3041   0.843   3.579   0.399
  918SOL     OW 3042   0.230   2.490   1.975
  918SOL    HW1 3043   0.137   2.488   2.012
  918SOL    HW2 3044   0.231   2.451   1.883
  919SOL     OW 3045   0.225   2.137   2.858
  919SOL    HW1 3046   0.260   2.120   2.950
  919SOL    HW2 3047   0.137   2.092   2.846
  920SOL     OW 3048   0.019   2.230   2.509
  920SOL    HW1 3049  -0.063   2.273   2.548
  920SOL    HW2 3050  -0.009   2.157   2.446
  921SOL     OW 3051   0.569   3.137   3.027
  921SOL    HW1 3052   0.476   3.130   2.990
  921SOL    HW2 3053   0.580   3.226   3.071
  922SOL     OW 3054   1.555   3.373   2.565
  922SOL    HW1 3055   1.498   3.357   2.646
  922SOL    HW2 3056   1.496   3.383   2.485
  923SOL     OW 3057   1.135   2.565   2.579
  923SOL    HW1 3058   1.192   2.643   2.554
  923SOL    HW2 3059   1.075   2.591   2.655
  924SOL     OW 3060   1.755   2.469   2.093
  924SOL    HW1 3061   1.743   2.456   1.994
  924SOL    HW2 3062   1.725   2.388   2.142
  925SOL     OW 3063   0.768   3.006   2.885
  925SOL    HW1 3064   0.690   3.023   2.945
  925SOL    HW2 3065   0.802   3.093   2.849
  926SOL     OW 3066   0.850   2.660   3.685
  926SOL    HW1 3067   0.846   2.736   3.750
  926SOL    HW2 3068   0.872   2.696   3.594
  927SOL     OW 3069   0.685   2.874   2.527
  927SOL    HW1 3070   0.754   2.858   2.597
  927SOL    HW2 3071   0.612   2.931   2.565
  928SOL     OW 3072   0.686   3.023   3.665
  928SOL    HW1 3073   0.746   3.102   3.679
  928SOL    HW2 3074   0.600   3.054   3.624
  929SOL     OW 3075   0.335   3.297   2.923
  929SOL    HW1 3076   0.257   3.266   2.870
  929SOL    HW2 3077   0.393   3.355   2.866
  930SOL     OW 3078   1.460   3.367   3.201
  930SOL    HW1 3079   1.484   3.461   3.227
  930SOL    HW2 3080   1.444   3.313   3.283
  931SOL     OW 3081   0.438   2.254   3.361
  931SOL    HW1 3082   0.520   2.198   3.370
  931SOL    HW2 3083   0.357   2.196   3.365
  932SOL     OW 3084   1.603   2.309   2.599
  932SOL    HW1 3085   1.529   2.355   2.549
  932SOL    HW2 3086   1.654   2.377   2.652
  933SOL     OW 3087   0.231   3.575   2.345
  933SOL    HW1 3088   0.265   3.652   2.399
  933SOL    HW2 3089   0.275   3.575   2.255
  934SOL     OW 3090   1.127   3.203   3.552
  934SOL    HW1 3091   1.174   3.203   3.640
  934SOL    HW2 3092   1.079   3.116   3.541
  935SOL     OW 3093   0.230   3.296   2.400
  935SOL    HW1 3094   0.204   3.392   2.400
  935SOL    HW2 3095   0.159   3.242   2.445
  936SOL     OW 3096   0.240   2.953   2.748
  936SOL    HW1 3097   0.254   2.869   2.800
  936SOL    HW2 3098   0.185   3.017   2.803
  937SOL     OW 3099   0.620   3.648   3.301
  937SOL    HW1 3100   0.528   3.631   3.336
  937SOL    HW2 3101   0.648   3.740   3.327
  938SOL     OW 3102   0.606   2.826   1.985
  938SOL    HW1 3103   0.613   2.910   1.931
  938SOL    HW2 3104   0.652   2.839   2.073
  939SOL     OW 3105   1.594   1.976   3.342
  939SOL    HW1 3106   1.576   2.043   3.270
  939SOL    HW2 3107   1.591   2.022   3.431
  940SOL     OW 3108   0.122   2.505   2.425
  940SOL    HW1 3109   0.077   2.417   2.442
  940SOL    HW2 3110   0.121   2.559   2.509
  941SOL     OW 3111   1.842   3.629   2.221
  941SOL    HW1 3112   1.896   3.600   2.301
  941SOL    HW2 3113   1.872   3.719   2.192
  942SOL     OW 3114   0.027   3.458   1.979
  942SOL    HW1 3115   0.008   3.362   2.000
  942SOL    HW2 3116  -0.006   3.516   2.054
  943SOL     OW 3117   1.689   2.784   2.474
  943SOL    HW1 3118   1.784   2.755   2.482
  943SOL    HW2 3119   1.681   2.849   2.399
  944SOL     OW 3120   1.641   2.970   2.294
  944SOL    HW1 3121   1.727   2.972   2.242
  944SOL    HW2 3122   1.655   3.017   2.382
  945SOL     OW 3123   0.113   2.599   3.459
  945SOL    HW1 3124   0.201   2.586   3.504
  945SOL    HW2 3125   0.100   2.696   3.437
  946SOL     OW 3126   0.613   3.227   2.588
  946SOL    HW1 3127   0.564   3.140   2.597
  946SOL    HW2 3128   0.590   3.270   2.501
  947SOL     OW 3129   1.293   3.090   3.285
  947SOL    HW1 3130   1.330   3.017   3.227
  947SOL    HW2 3131   1.345   3.095   3.370
  948SOL     OW 3132   0.809   1.866   2.364
  948SOL    HW1 3133   0.849   1.957   2.355
  948SOL    HW2 3134   0.709   1.874   2.370
  949SOL     OW 3135   0.197   2.838   3.126
  949SOL    HW1 3136   0.286   2.793   3.112
  949SOL    HW2 3137   0.124   2.773   3.107
  950SOL     OW 3138   1.525   2.861   2.052
  950SOL    HW1 3139   1.462   2.785   2.065
  950SOL    HW2 3140   1.573   2.879   2.138
  951SOL     OW 3141   1.187   3.654   3.478
  951SOL    HW1 3142   1.211   3.714   3.402
  951SOL    HW2 3143   1.194   3.559   3.448
  952SOL     OW 3144   0.317   2.113   3.663
  952SOL    HW1 3145   0.388   2.184   3.669
  952SOL    HW2 3146   0.229   2.152   3.691
  953SOL     OW 3147   1.466   3.279   2.815
  953SOL    HW1 3148   1.407   3.285   2.895
  953SOL    HW2 3149   1.451   3.191   2.769
  954SOL     OW 3150   1.667   3.576   2.434
  954SOL    HW1 3151   1.626   3.553   2.346
  954SOL    HW2 3152   1.649   3.502   2.499
  955SOL     OW 3153   0.598   2.591   2.132
  955SOL    HW1 3154   0.622   2.660   2.064
  955SOL    HW2 3155   0.520   2.624   2.186
  956SOL     OW 3156   1.281   2.207   2.806
  956SOL    HW1 3157   1.195   2.157   2.793
  956SOL    HW2 3158   1.343   2.153   2.862
  957SOL     OW 3159   1.576   3.524   2.169
  957SOL    HW1 3160   1.665   3.570   2.172
  957SOL    HW2 3161   1.555   3.500   2.074
  958SOL     OW 3162   0.807   2.467   3.327
  958SOL    HW1 3163   0.760   2.464   3.416
  958SOL    HW2 3164   0.756   2.412   3.261
  959SOL     OW 3165   1.394   2.331   3.536
  959SOL    HW1 3166   1.374   2.374   3.624
  959SOL    HW2 3167   1.472   2.269   3.545
  960SOL     OW 3168   0.973   2.752   3.434
  960SOL    HW1 3169   1.019   2.668   3.405
  960SOL    HW2 3170   0.917   2.786   3.359
  961SOL     OW 3171   0.991   2.272   3.104
  961SOL    HW1 3172   0.914   2.306   3.158
  961SOL    HW2 3173   0.957   2.221   3.025
  962SOL     OW 3174   1.041   2.563   2.291
  962SOL    HW1 3175   1.067   2.559   2.387
  962SOL    HW2 3176   0.956   2.512   2.277
  963SOL     OW 3177   0.076   2.673   2.651
  963SOL    HW1 3178   0.175   2.661   2.660
  963SOL    HW2 3179   0.052   2.768   2.672
  964SOL     OW 3180   0.130   3.683   3.433
  964SOL    HW1 3181   0.120   3.668   3.532
  964SOL    HW2 3182   0.044   3.719   3.397
  965SOL     OW 3183   0.865   2.210   2.057
  965SOL    HW1 3184   0.924   2.273   2.008
  965SOL    HW2 3185   0.884   2.116   2.028
  966SOL     OW 3186   1.362   3.006   2.407
  966SOL    HW1 3187   1.445   2.977   2.359
  966SOL    HW2 3188   1.313   3.073   2.351
  967SOL     OW 3189   0.550   2.058   2.747
  967SOL    HW1 3190   0.545   2.053   2.847
  967SOL    HW2 3191   0.552   2.154   2.718
  968SOL     OW 3192   1.008   3.318   2.339
  968SOL    HW1 3193   0.962   3.390   2.287
  968SOL    HW2 3194   1.004   3.338   2.437
  969SOL     OW 3195   0.351   3.663   2.715
  969SOL    HW1 3196   0.401   3.577   2.721
  969SOL    HW2 3197   0.416   3.740   2.712
  970SOL     OW 3198   1.795   2.928   2.735
  970SOL    HW1 3199   1.733   2.913   2.659
  970SOL    HW2 3200   1.743   2.939   2.820
  971SOL     OW 3201   1.227   3.412   3.368
  971SOL    HW1 3202   1.233   3.335   3.432
  971SOL    HW2 3203   1.175   3.386   3.288
  972SOL     OW 3204   0.321   2.805   2.104
  972SOL    HW1 3205   0.403   2.844   2.062
  972SOL    HW2 3206   0.294   2.723   2.055
  973SOL     OW 3207   1.458   2.597   2.590
  973SOL    HW1 3208   1.453   2.532   2.665
  973SOL    HW2 3209   1.538   2.656   2.603
  974SOL     OW 3210   0.461   3.128   3.589
  974SOL    HW1 3211   0.411   3.129   3.503
  974SOL    HW2 3212   0.398   3.110   3.665
  975SOL     OW 3213   1.111   3.638   2.099
  975SOL    HW1 3214   1.051   3.576   2.149
  975SOL    HW2 3215   1.142   3.594   2.014
  976SOL     OW 3216   0.202   2.147   3.360
  976SOL    HW1 3217   0.122   2.207   3.347
  976SOL    HW2 3218   0.192   2.098   3.446
  977SOL     OW 3219   1.632   3.239   1.943
  977SOL    HW1 3220   1.600   3.333   1.933
  977SOL    HW2 3221   1.556   3.176   1.931
  978SOL     OW 3222   0.464   3.605   2.185
  978SOL    HW1 3223   0.497   3.644   2.271
  978SOL    HW2 3224   0.540   3.598   2.120
  979SOL     OW 3225   1.400   1.969   2.288
  979SOL    HW1 3226   1.376   1.932   2.198
  979SOL    HW2 3227   1.499   1.985   2.292
  980SOL     OW 3228   0.249   3.647   3.103
  980SOL    HW1 3229   0.306   3.582   3.153
  980SOL    HW2 3230   0.233   3.614   3.010
  981SOL     OW 3231   0.940   3.560   2.766
  981SOL    HW1 3232   1.020   3.503   2.787
  981SOL    HW2 3233   0.891   3.520   2.689
  982SOL     OW 3234   0.382   2.562   2.342
  982SOL    HW1 3235   0.427   2.472   2.339
  982SOL    HW2 3236   0.288   2.551   2.375
  983SOL     OW 3237   1.547   2.084   3.591
  983SOL    HW1 3238   1.542   2.121   3.683
  983SOL    HW2 3239   1.475   2.015   3.579
  984SOL     OW 3240   0.614   1.984   1.979
  984SOL    HW1 3241   0.712   1.962   1.986
  984SOL    HW2 3242   0.583   1.967   1.886
  985SOL     OW 3243   0.781   2.126   3.611
  985SOL    HW1 3244   0.848   2.065   3.654
  985SOL    HW2 3245   0.708   2.145   3.676
  986SOL     OW 3246   0.888   3.376   3.057
  986SOL    HW1 3247   0.865   3.351   2.963
  986SOL    HW2 3248   0.949   3.307   3.096
  987SOL     OW 3249   1.351   2.452   3.295
  987SOL    HW1 3250   1.379   2.409   3.380
  987SOL    HW2 3251   1.376   2.548   3.296
  988SOL     OW 3252   0.803   3.264   2.786
  988SOL    HW1 3253   0.893   3.278   2.744
  988SOL    HW2 3254   0.732   3.266   2.715
  989SOL     OW 3255   0.922   2.365   2.761
  989SOL    HW1 3256   0.897   2.356   2.665
  989SOL    HW2 3257   0.970   2.283   2.792
  990SOL     OW 3258   0.539   1.926   2.374
  990SOL    HW1 3259   0.458   1.927   2.432
  990SOL    HW2 3260   0.542   2.009   2.319
  991SOL     OW 3261   1.434   3.050   1.903
  991SOL    HW1 3262   1.466   2.974   1.960
  991SOL    HW2 3263   1.342   3.077   1.933
  992SOL     OW 3264   0.297   1.897   2.033
  992SOL    HW1 3265   0.346   1.981   2.012
  992SOL    HW2 3266   0.359   1.832   2.078
  993SOL     OW 3267   0.935   2.098   2.342
  993SOL    HW1 3268   0.887   2.139   2.264
  993SOL    HW2 3269   1.034   2.096   2.323
  994SOL     OW 3270   1.076   2.545   3.326
  994SOL    HW1 3271   0.996   2.484   3.329
  994SOL    HW2 3272   1.157   2.492   3.302
  995SOL     OW 3273   1.227   3.432   2.655
  995SOL    HW1 3274   1.248   3.506   2.590
  995SOL    HW2 3275   1.295   3.432   2.728
  996SOL     OW 3276   0.459   3.014   2.603
  996SOL    HW1 3277   0.388   2.987   2.668
  996SOL    HW2 3278   0.433   2.986   2.510
  997SOL     OW 3279   1.271   3.659   2.453
  997SOL    HW1 3280   1.315   3.723   2.389
  997SOL    HW2 3281   1.221   3.711   2.523
  998SOL     OW 3282   1.032   2.411   1.878
  998SOL    HW1 3283   0.991   2.493   1.839
  998SOL    HW2 3284   1.096   2.437   1.951
  999SOL     OW 3285   0.078   2.418   3.248
  999SOL    HW1 3286   0.170   2.417   3.207
  999SOL    HW2 3287   0.072   2.492   3.315
 1000SOL     OW 3288   0.561   2.084   3.009
 1000SOL    HW1 3289   0.599   2.000   3.046
 1000SOL    HW2 3290   0.473   2.103   3.053
 1001SOL     OW 3291   0.866   2.316   2.504
 1001SOL    HW1 3292   0.834   2.388   2.442
 1001SOL    HW2 3293   0.890   2.235   2.451
 1002SOL     OW 3294   1.017   1.901   2.615
 1002SOL    HW1 3295   0.945   1.906   2.546
 1002SOL    HW2 3296   0.993   1.832   2.684
 1003SOL     OW 3297   1.429   3.035   2.729
 1003SOL    HW1 3298   1.374   2.951   2.722
 1003SOL    HW2 3299   1.455   3.064   2.637
 1004SOL     OW 3300   1.466   2.452   2.854
 1004SOL    HW1 3301   1.436   2.357   2.861
 1004SOL    HW2 3302   1.539   2.468   2.920
 1005SOL     OW 3303   1.857   2.695   2.239
 1005SOL    HW1 3304   1.899   2.631   2.303
 1005SOL    HW2 3305   1.819   2.644   2.161
 1006SOL     OW 3306   0.488   3.247   2.036
 1006SOL    HW1 3307   0.401   3.232   2.083
 1006SOL    HW2 3308   0.471   3.273   1.941
 1007SOL     OW 3309   1.664   3.142   2.519
 1007SOL    HW1 3310   1.763   3.150   2.533
 1007SOL    HW2 3311   1.619   3.226   2.550
 1008SOL     OW 3312   1.390   2.437   1.940
 1008SOL    HW1 3313   1.336   2.416   2.021
 1008SOL    HW2 3314   1.481   2.396   1.949
 1009SOL     OW 3315   0.527   2.118   2.190
 1009SOL    HW1 3316   0.554   2.059   2.115
 1009SOL    HW2 3317   0.527   2.213   2.159
 1010SOL     OW 3318   1.754   3.085   3.450
 1010SOL    HW1 3319   1.845   3.046   3.437
 1010SOL    HW2 3320   1.762   3.181   3.474
 1011SOL     OW 3321   1.064   3.209   3.202
 1011SOL    HW1 3322   0.984   3.186   3.257
 1011SOL    HW2 3323   1.147   3.183   3.251
 1012SOL     OW 3324   1.592   3.491   3.487
 1012SOL    HW1 3325   1.619   3.525   3.397
 1012SOL    HW2 3326   1.671   3.453   3.533
 1013SOL     OW 3327   1.111   3.057   2.962
 1013SOL    HW1 3328   1.071   3.101   3.043
 1013SOL    HW2 3329   1.070   3.094   2.879
 1014SOL     OW 3330   1.638   2.961   2.941
 1014SOL    HW1 3331   1.643   3.042   3.000
 1014SOL    HW2 3332   1.552   2.963   2.890
 1015SOL     OW 3333   0.915   1.951   3.264
 1015SOL    HW1 3334   0.940   1.931   3.169
 1015SOL    HW2 3335   0.987   2.007   3.306
 1016SOL     OW 3336   0.980   2.978   3.581
 1016SOL    HW1 3337   0.881   2.984   3.591
 1016SOL    HW2 3338   1.003   2.898   3.525
 1017SOL     OW 3339   0.705   2.912   2.230
 1017SOL    HW1 3340   0.691   2.919   2.329
 1017SOL    HW2 3341   0.789   2.861   2.212
 1018SOL     OW 3342   0.410   2.675   3.113
 1018SOL    HW1 3343   0.496   2.687   3.163
 1018SOL    HW2 3344   0.368   2.588   3.140
 1019SOL     OW 3345   1.274   2.248   3.124
 1019SOL    HW1 3346   1.295   2.322   3.188
 1019SOL    HW2 3347   1.185   2.265   3.081
 1020SOL     OW 3348   0.064   3.426   3.193
 1020SOL    HW1 3349   0.018   3.508   3.159
 1020SOL    HW2 3350   0.162   3.445   3.202
 1021SOL     OW 3351   0.367   2.962   2.363
 1021SOL    HW1 3352   0.360   3.045   2.307
 1021SOL    HW2 3353   0.371   2.882   2.303
 1022SOL     OW 3354   0.566   2.399   2.727
 1022SOL    HW1 3355   0.578   2.465   2.653
 1022SOL    HW2 3356   0.612   2.433   2.810
 1023SOL     OW 3357   1.252   3.210   2.250
 1023SOL    HW1 3358   1.302   3.287   2.290
 1023SOL    HW2 3359   1.157   3.212   2.282
 1024SOL     OW 3360   1.272   3.307   3.004
 1024SOL    HW1 3361   1.319   3.320   3.091
 1024SOL    HW2 3362   1.206   3.233   3.013
 1025SOL     OW 3363   1.582   2.501   2.334
 1025SOL    HW1 3364   1.551   2.562   2.407
 1025SOL    HW2 3365   1.632   2.553   2.265
 1026SOL     OW 3366   0.354   3.372   3.191
 1026SOL    HW1 3367   0.333   3.328   3.104
 1026SOL    HW2 3368   0.451   3.398   3.194
 1027SOL     OW 3369   0.402   2.613   3.460
 1027SOL    HW1 3370   0.470   2.668   3.413
 1027SOL    HW2 3371   0.442   2.525   3.487
 1028SOL     OW 3372   1.587   2.641   3.532
 1028SOL    HW1 3373   1.495   2.679   3.527
 1028SOL    HW2 3374   1.647   2.688   3.467
 1029SOL     OW 3375   1.013   1.967   3.632
 1029SOL    HW1 3376   1.019   2.052   3.580
 1029SOL    HW2 3377   1.045   1.891   3.575
 1030SOL     OW 3378   0.504   1.912   3.602
 1030SOL    HW1 3379   0.462   1.855   3.532
 1030SOL    HW2 3380   0.438   1.981   3.634
 1031SOL     OW 3381   0.573   2.732   2.891
 1031SOL    HW1 3382   0.617   2.821   2.882
 1031SOL    HW2 3383   0.510   2.732   2.968
 1032SOL     OW 3384   1.360   2.724   2.907
 1032SOL    HW1 3385   1.285   2.724   2.841
 1032SOL    HW2 3386   1.397   2.632   2.916
 1033SOL     OW 3387   1.209   2.387   2.137
 1033SOL    HW1 3388   1.222   2.303   2.191
 1033SOL    HW2 3389   1.180   2.461   2.197
 1034SOL     OW 3390   0.307   2.075   3.093
 1034SOL    HW1 3391   0.284   2.112   3.183
 1034SOL    HW2 3392   0.277   1.980   3.087
 1035SOL     OW 3393   0.037   3.172   3.144
 1035SOL    HW1 3394   0.090   3.123   3.212
 1035SOL    HW2 3395   0.059   3.270   3.149
 1036SOL     OW 3396   0.732   2.496   2.926
 1036SOL    HW1 3397   0.791   2.470   2.850
 1036SOL    HW2 3398   0.704   2.592   2.915
 1037SOL     OW 3399   0.307   1.925   2.480
 1037SOL    HW1 3400   0.296   2.019   2.513
 1037SOL    HW2 3401   0.302   1.862   2.557
 1038SOL     OW 3402   1.622   2.229   2.236
 1038SOL    HW1 3403   1.624   2.153   2.300
 1038SOL    HW2 3404   1.574   2.306   2.276
 1039SOL     OW 3405   1.023   2.628   2.828
 1039SOL    HW1 3406   1.038   2.649   2.924
 1039SOL    HW2 3407   0.993   2.533   2.819
 1040SOL     OW 3408   0.980   3.435   3.562
 1040SOL    HW1 3409   0.960   3.479   3.474
 1040SOL    HW2 3410   1.019   3.344   3.546
 1041SOL     OW 3411   1.859   3.380   3.467
 1041SOL    HW1 3412   1.873   3.407   3.372
 1041SOL    HW2 3413   1.942   3.402   3.520
 1042SOL     OW 3414   0.350   2.760   3.666
 1042SOL    HW1 3415   0.426   2.804   3.714
 1042SOL    HW2 3416   0.385   2.713   3.584
 1043SOL     OW 3417   1.540   2.136   1.987
 1043SOL    HW1 3418   1.479   2.061   2.010
 1043SOL    HW2 3419   1.562   2.188   2.070
 1044SOL     OW 3420   1.303   2.700   1.904
 1044SOL    HW1 3421   1.337   2.607   1.919
 1044SOL    HW2 3422   1.321   2.727   1.809
 1045SOL     OW 3423   1.068   3.195   2.711
 1045SOL    HW1 3424   1.075   3.111   2.656
 1045SOL    HW2 3425   1.130   3.264   2.675
 1046SOL     OW 3426   0.319   2.672   2.811
 1046SOL    HW1 3427   0.412   2.708   2.816
 1046SOL    HW2 3428   0.313   2.587   2.863
 1047SOL     OW 3429   0.339   2.371   2.868
 1047SOL    HW1 3430   0.287   2.288   2.851
 1047SOL    HW2 3431   0.416   2.376   2.804
 1048SOL     OW 3432   1.138   2.242   3.540
 1048SOL    HW1 3433   1.093   2.305   3.604
 1048SOL    HW2 3434   1.231   2.273   3.523
 1049SOL     OW 3435   1.160   2.069   3.339
 1049SOL    HW1 3436   1.160   2.133   3.416
 1049SOL    HW2 3437   1.188   2.117   3.256
 1050SOL     OW 3438   0.008   3.188   2.062
 1050SOL    HW1 3439  -0.085   3.209   2.031
 1050SOL    HW2 3440   0.018   3.089   2.075
 1051SOL     OW 3441   0.088   3.663   2.789
 1051SOL    HW1 3442   0.046   3.577   2.762
 1051SOL    HW2 3443   0.182   3.666   2.755
 1052SOL     OW 3444   0.504   3.430   2.772
 1052SOL    HW1 3445   0.570   3.504   2.781
 1052SOL    HW2 3446   0.548   3.351   2.730
 1053SOL     OW 3447   1.002   2.658   3.100
 1053SOL    HW1 3448   1.043   2.626   3.186
 1053SOL    HW2 3449   0.906   2.631   3.097
 1054SOL     OW 3450   0.040   2.406   2.976
 1054SOL    HW1 3451   0.125   2.373   2.935
 1054SOL    HW2 3452   0.053   2.421   3.074
 1055SOL     OW 3453   0.189   2.382   3.584
 1055SOL    HW1 3454   0.248   2.342   3.514
 1055SOL    HW2 3455   0.131   2.453   3.543
 1056SOL     OW 3456   1.369   2.812   3.522
 1056SOL    HW1 3457   1.408   2.901   3.542
 1056SOL    HW2 3458   1.379   2.792   3.425
 1057SOL     OW 3459   0.815   2.434   2.187
 1057SOL    HW1 3460   0.822   2.345   2.141
 1057SOL    HW2 3461   0.721   2.468   2.179
 1058SOL     OW 3462   1.657   2.466   3.068
 1058SOL    HW1 3463   1.619   2.397   3.130
 1058SOL    HW2 3464   1.739   2.430   3.024
 1059SOL     OW 3465   0.252   3.426   3.606
 1059SOL    HW1 3466   0.222   3.483   3.682
 1059SOL    HW2 3467   0.245   3.329   3.632
 1060SOL     OW 3468   0.671   2.326   3.131
 1060SOL    HW1 3469   0.637   2.237   3.101
 1060SOL    HW2 3470   0.697   2.380   3.051
 1061SOL     OW 3471   0.930   3.540   3.327
 1061SOL    HW1 3472   0.906   3.522   3.232
 1061SOL    HW2 3473   0.960   3.634   3.337
 1062SOL     OW 3474   0.473   2.362   2.053
 1062SOL    HW1 3475   0.534   2.442   2.057
 1062SOL    HW2 3476   0.378   2.393   2.060
 1063SOL     OW 3477   0.159   2.999   3.328
 1063SOL    HW1 3478   0.181   2.938   3.404
 1063SOL    HW2 3479   0.169   2.950   3.242
 1064SOL     OW 3480   1.347   2.921   3.096
 1064SOL    HW1 3481   1.371   2.858   3.022
 1064SOL    HW2 3482   1.257   2.961   3.078
 1065SOL     OW 3483   1.302   2.717   2.171
 1065SOL    HW1 3484   1.216   2.686   2.213
 1065SOL    HW2 3485   1.298   2.703   2.072
 1066SOL     OW 3486   1.759   3.609   3.016
 1066SOL    HW1 3487   1.820   3.639   2.943
 1066SOL    HW2 3488   1.721   3.520   2.994
 1067SOL     OW 3489   1.252   3.593   2.990
 1067SOL    HW1 3490   1.336   3.598   2.936
 1067SOL    HW2 3491   1.229   3.497   3.008
 1068SOL     OW 3492   0.083   3.120   2.884
 1068SOL    HW1 3493   0.078   3.119   2.984
 1068SOL    HW2 3494   0.000   3.079   2.846
 1069SOL     OW 3495   0.688   3.524   3.578
 1069SOL    HW1 3496   0.632   3.605   3.587
 1069SOL    HW2 3497   0.740   3.528   3.492
 1070SOL     OW 3498   1.726   1.997   2.385
 1070SOL    HW1 3499   1.799   1.980   2.318
 1070SOL    HW2 3500   1.695   1.910   2.423
 1071SOL     OW 3501   1.388   3.435   2.339
 1071SOL    HW1 3502   1.455   3.447   2.265
 1071SOL    HW2 3503   1.348   3.524   2.362
 1072SOL     OW 3504   0.130   3.656   3.713
 1072SOL    HW1 3505   0.089   3.582   3.766
 1072SOL    HW2 3506   0.194   3.707   3.771
 1073SOL     OW 3507   1.280   2.789   2.534
 1073SOL    HW1 3508   1.340   2.708   2.536
 1073SOL    HW2 3509   1.320   2.858   2.474
 1074SOL     OW 3510   0.830   3.135   3.284
 1074SOL    HW1 3511   0.825   3.168   3.379
 1074SOL    HW2 3512   0.744   3.154   3.238
 1075SOL     OW 3513   0.672   3.478   2.016
 1075SOL    HW1 3514   0.681   3.488   1.917
 1075SOL    HW2 3515   0.632   3.389   2.037
 1076SOL     OW 3516   1.650   3.582   3.256
 1076SOL    HW1 3517   1.703   3.592   3.172
 1076SOL    HW2 3518   1.623   3.672   3.290
 1077SOL     OW 3519   1.841   2.037   2.825
 1077SOL    HW1 3520   1.880   1.952   2.789
 1077SOL    HW2 3521   1.743   2.039   2.806
 1078SOL     OW 3522   0.263   2.188   2.582
 1078SOL    HW1 3523   0.184   2.239   2.548
 1078SOL    HW2 3524   0.254   2.173   2.680
 1079SOL     OW 3525   1.194   3.474   1.893
 1079SOL    HW1 3526   1.200   3.381   1.930
 1079SOL    HW2 3527   1.135   3.474   1.813
 1080SOL     OW 3528   0.822   2.864   3.234
 1080SOL    HW1 3529   0.862   2.863   3.142
 1080SOL    HW2 3530   0.832   2.956   3.274
 1081SOL     OW 3531   0.916   2.772   2.153
 1081SOL    HW1 3532   0.979   2.810   2.085
 1081SOL    HW2 3533   0.956   2.689   2.192
 1082SOL     OW 3534   1.504   3.469   1.906
 1082SOL    HW1 3535   1.412   3.506   1.913
 1082SOL    HW2 3536   1.542   3.489   1.816
 1083SOL     OW 3537   0.372   3.150   3.352
 1083SOL    HW1 3538   0.359   3.243   3.318
 1083SOL    HW2 3539   0.288   3.098   3.339
 1084SOL     OW 3540   1.614   3.154   3.151
 1084SOL    HW1 3541   1.674   3.157   3.231
 1084SOL    HW2 3542   1.539   3.218   3.164
 1085SOL     OW 3543   1.039   2.960   2.558
 1085SOL    HW1 3544   0.969   2.913   2.612
 1085SOL    HW2 3545   1.098   2.892   2.515
 1086SOL     OW 3546   1.014   2.098   2.833
 1086SOL    HW1 3547   1.006   2.062   2.740
 1086SOL    HW2 3548   1.012   2.022   2.898
 1087SOL     OW 3549   0.590   3.349   2.353
 1087SOL    HW1 3550   0.632   3.291   2.283
 1087SOL    HW2 3551   0.546   3.428   2.309
 1088SOL     OW 3552   1.709   2.247   3.243
 1088SOL    HW1 3553   1.782   2.316   3.247
 1088SOL    HW2 3554   1.737   2.172   3.184
 1089SOL     OW 3555   0.255   3.210   2.152
 1089SOL    HW1 3556   0.159   3.211   2.125
 1089SOL    HW2 3557   0.267   3.263   2.236
 1090SOL     OW 3558   0.105   2.875   3.588
 1090SOL    HW1 3559   0.028   2.842   3.642
 1090SOL    HW2 3560   0.190   2.845   3.630
 1091SOL     OW 3561   0.672   2.065   3.351
 1091SOL    HW1 3562   0.762   2.049   3.311
 1091SOL    HW2 3563   0.680   2.070   3.450
 1092SOL     OW 3564   0.075   2.207   1.895
 1092SOL    HW1 3565  -0.017   2.179   1.866
 1092SOL    HW2 3566   0.106   2.284   1.839
 1093SOL     OW 3567   1.440   2.718   3.260
 1093SOL    HW1 3568   1.383   2.770   3.197
 1093SOL    HW2 3569   1.536   2.730   3.236
 1094SOL     OW 3570   0.072   2.028   2.180
 1094SOL    HW1 3571   0.055   2.111   2.126
 1094SOL    HW2 3572   0.162   1.991   2.158
 1095SOL     OW 3573   1.183   3.197   1.981
 1095SOL    HW1 3574   1.084   3.186   1.983
 1095SOL    HW2 3575   1.217   3.212   2.074
 1096SOL     OW 3576   0.613   2.704   3.293
 1096SOL    HW1 3577   0.669   2.785   3.276
 1096SOL    HW2 3578   0.672   2.624   3.296
 1097SOL     OW 3579   1.493   3.629   2.821
 1097SOL    HW1 3580   1.526   3.693   2.752
 1097SOL    HW2 3581   1.559   3.623   2.896
 1098SOL     OW 3582   0.716   2.427   3.570
 1098SOL    HW1 3583   0.735   2.492   3.644
 1098SOL    HW2 3584   0.776   2.347   3.579
 1099SOL     OW 3585   1.450   3.082   3.495
 1099SOL    HW1 3586   1.441   3.072   3.594
 1099SOL    HW2 3587   1.546   3.075   3.469
 1100SOL     OW 3588   0.390   3.603   3.422
 1100SOL    HW1 3589   0.299   3.644   3.420
 1100SOL    HW2 3590   0.383   3.509   3.454
 1101SOL     OW 3591   1.674   2.745   3.116
 1101SOL    HW1 3592   1.647   2.656   3.079
 1101SOL    HW2 3593   1.675   2.813   3.043
 1102SOL     OW 3594   1.225   2.187   2.311
 1102SOL    HW1 3595   1.290   2.113   2.300
 1102SOL    HW2 3596   1.245   2.237   2.395
 1103SOL     OW 3597   0.594   2.607   2.514
 1103SOL    HW1 3598   0.644   2.692   2.495
 1103SOL    HW2 3599   0.506   2.609   2.466
 1104SOL     OW 3600   1.777   2.204   3.504
 1104SOL    HW1 3601   1.760   2.235   3.410
 1104SOL    HW2 3602   1.693   2.167   3.542
 1105SOL     OW 3603   1.730   2.796   3.379
 1105SOL    HW1 3604   1.768   2.887   3.394
 1105SOL    HW2 3605   1.722   2.779   3.280
 1106SOL     OW 3606   0.859   3.236   1.878
 1106SOL    HW1 3607   0.813   3.251   1.966
 1106SOL    HW2 3608   0.903   3.321   1.848
 1107SOL     OW 3609   0.661   3.652   2.815
 1107SOL    HW1 3610   0.615   3.740   2.802
 1107SOL    HW2 3611   0.760   3.664   2.808
 1108SOL     OW 3612   0.859   2.818   2.723
 1108SOL    HW1 3613   0.913   2.749   2.771
 1108SOL    HW2 3614   0.827   2.887   2.789
 1109SOL     OW 3615   1.083   2.846   1.949
 1109SOL    HW1 3616   1.060   2.899   1.867
 1109SOL    HW2 3617   1.164   2.790   1.930
 1110SOL     OW 3618   1.861   3.431   2.713
 1110SOL    HW1 3619   1.790   3.419   2.643
 1110SOL    HW2 3620   1.862   3.352   2.773
 1111SOL     OW 3621   0.221   3.176   3.706
 1111SOL    HW1 3622   0.156   3.103   3.685
 1111SOL    HW2 3623   0.225   3.190   3.804
 1112SOL     OW 3624   0.079   3.102   2.515
 1112SOL    HW1 3625   0.078   3.055   2.603
 1112SOL    HW2 3626   0.161   3.074   2.464
 1113SOL     OW 3627   0.672   3.253   3.486
 1113SOL    HW1 3628   0.594   3.203   3.524
 1113SOL    HW2 3629   0.669   3.348   3.517
 1114SOL     OW 3630   1.824   2.054   3.089
 1114SOL    HW1 3631   1.820   1.964   3.133
 1114SOL    HW2 3632   1.827   2.043   2.990
 1115SOL     OW 3633   0.428   2.286   2.382
 1115SOL    HW1 3634   0.458   2.214   2.320
 1115SOL    HW2 3635   0.389   2.246   2.465
 1116SOL     OW 3636   1.705   3.349   2.966
 1116SOL    HW1 3637   1.612   3.324   2.939
 1116SOL    HW2 3638   1.731   3.299   3.048
 1117SOL     OW 3639   0.317   2.409   3.142
 1117SOL    HW1 3640   0.355   2.350   3.214
 1117SOL    HW2 3641   0.357   2.383   3.054
 1118SOL     OW 3642   0.812   3.448   2.549
 1118SOL    HW1 3643   0.844   3.458   2.455
 1118SOL    HW2 3644   0.733   3.386   2.551
 1119SOL     OW 3645   1.424   2.076   2.974
 1119SOL    HW1 3646   1.476   2.011   3.029
 1119SOL    HW2 3647   1.375   2.139   3.035
 1120SOL     OW 3648   1.001   1.896   3.016
 1120SOL    HW1 3649   0.938   1.824   2.985
 1120SOL    HW2 3650   1.094   1.860   3.016
 1121SOL     OW 3651   0.770   3.192   2.163
 1121SOL    HW1 3652   0.724   3.105   2.180
 1121SOL    HW2 3653   0.861   3.189   2.204
 1122SOL     OW 3654   0.618   3.429   3.146
 1122SOL    HW1 3655   0.613   3.511   3.203
 1122SOL    HW2 3656   0.707   3.426   3.101
 1123SOL     OW 3657   1.352   1.914   2.030
 1123SOL    HW1 3658   1.387   1.873   1.946
 1123SOL    HW2 3659   1.262   1.876   2.050
 1124SOL     OW 3660   1.300   2.315   2.553
 1124SOL    HW1 3661   1.241   2.395   2.557
 1124SOL    HW2 3662   1.315   2.280   2.646
 1125SOL     OW 3663   1.593   2.083   2.744
 1125SOL    HW1 3664   1.509   2.082   2.798
 1125SOL    HW2 3665   1.595   2.166   2.688
 1126SOL     OW 3666   0.039   2.939   2.162
 1126SOL    HW1 3667   0.138   2.928   2.153
 1126SOL    HW2 3668  -0.001   2.853   2.194
 1127SOL     OW 3669   0.875   3.508   2.199
 1127SOL    HW1 3670   0.798   3.473   2.145
 1127SOL    HW2 3671   0.843   3.579   2.261
 1128SOL     OW 3672   0.230   2.490   3.837
 1128SOL    HW1 3673   0.137   2.488   3.874
 1128SOL    HW2 3674   0.231   2.451   3.745
 1129SOL     OW 3675   0.225   2.137   4.720
 1129SOL    HW1 3676   0.260   2.120   4.812
 1129SOL    HW2 3677   0.137   2.092   4.708
 1130SOL     OW 3678   0.019   2.230   4.371
 1130SOL    HW1 3679  -0.063   2.273   4.410
 1130SOL    HW2 3680  -0.009   2.157   4.308
 1131SOL     OW 3681   0.569   3.137   4.889
 1131SOL    HW1 3682   0.476   3.130   4.852
 1131SOL    HW2 3683   0.580   3.226   4.933
 1132SOL     OW 3684   1.555   3.373   4.427
 1132SOL    HW1 3685   1.498   3.357   4.508
 1132SOL    HW2 3686   1.496   3.383   4.347
 1133SOL     OW 3687   1.135   2.565   4.441
 1133SOL    HW1 3688   1.192   2.643   4.416
 1133SOL    HW2 3689   1.075   2.591   4.517
 1134SOL     OW 3690   0.768   3.006   4.747
 1134SOL    HW1 3691   0.690   3.023   4.807
 1134SOL    HW2 3692   0.802   3.093   4.711
 1135SOL     OW 3693   0.850   2.660   5.547
 1135SOL    HW1 3694   0.846   2.736   5.612
 1135SOL    HW2 3695   0.872   2.696   5.456
 1136SOL     OW 3696   0.685   2.874   4.389
 1136SOL    HW1 3697   0.754   2.858   4.459
 1136SOL    HW2 3698   0.612   2.931   4.427
 1137SOL     OW 3699   0.686   3.023   5.527
 1137SOL    HW1 3700   0.746   3.102   5.541
 1137SOL    HW2 3701   0.600   3.054   5.486
 1138SOL     OW 3702   0.335   3.297   4.785
 1138SOL    HW1 3703   0.257   3.266   4.732
 1138SOL    HW2 3704   0.393   3.355   4.728
 1139SOL     OW 3705   1.460   3.367   5.063
 1139SOL    HW1 3706   1.484   3.461   5.089
 1139SOL    HW2 3707   1.444   3.313   5.145
 1140SOL     OW 3708   0.438   2.254   5.223
 1140SOL    HW1 3709   0.520   2.198   5.232
 1140SOL    HW2 3710   0.357   2.196   5.227
 1141SOL     OW 3711   1.603   2.309   4.461
 1141SOL    HW1 3712   1.529   2.355   4.411
 1141SOL    HW2 3713   1.654   2.377   4.514
 1142SOL     OW 3714   0.231   3.575   4.207
 1142SOL    HW1 3715   0.265   3.652   4.261
 1142SOL    HW2 3716   0.275   3.575   4.117
 1143SOL     OW 3717   1.127   3.203   5.414
 1143SOL    HW1 3718   1.174   3.203   5.502
 1143SOL    HW2 3719   1.079   3.116   5.403
 1144SOL     OW 3720   0.230   3.296   4.262
 1144SOL    HW1 3721   0.204   3.392   4.262
 1144SOL    HW2 3722   0.159   3.242   4.307
 1145SOL     OW 3723   0.240   2.953   4.610
 1145SOL    HW1 3724   0.254   2.869   4.662
 1145SOL    HW2 3725   0.185   3.017   4.665
 1146SOL     OW 3726   0.620   3.648   5.163
 1146SOL    HW1 3727   0.528   3.631   5.198
 1146SOL    HW2 3728   0.648   3.740   5.189
 1147SOL     OW 3729   0.606   2.826   3.847
 1147SOL    HW1 3730   0.613   2.910   3.793
 1147SOL    HW2 3731   0.652   2.839   3.935
 1148SOL     OW 3732   1.594   1.976   5.204
 1148SOL    HW1 3733   1.576   2.043   5.132
 1148SOL    HW2 3734   1.591   2.022   5.293
 1149SOL     OW 3735   0.122   2.505   4.287
 1149SOL    HW1 3736   0.077   2.417   4.304
 1149SOL    HW2 3737   0.121   2.559   4.371
 1150SOL     OW 3738   1.842   3.629   4.083
 1150SOL    HW1 3739   1.896   3.600   4.163
 1150SOL    HW2 3740   1.872   3.719   4.054
 1151SOL     OW 3741   0.027   3.458   3.841
 1151SOL    HW1 3742   0.008   3.362   3.862
 1151SOL    HW2 3743  -0.006   3.516   3.916
 1152SOL     OW 3744   1.689   2.784   4.336
 1152SOL    HW1 3745   1.784   2.755   4.344
 1152SOL    HW2 3746   1.681   2.849   4.261
 1153SOL     OW 3747   0.113   2.599   5.321
 1153SOL    HW1 3748   0.201   2.586   5.366
 1153SOL    HW2 3749   0.100   2.696   5.299
 1154SOL     OW 3750   0.613   3.227   4.450
 1154SOL    HW1 3751   0.564   3.140   4.459
 1154SOL    HW2 3752   0.590   3.270   4.363
 1155SOL     OW 3753   1.293   3.090   5.147
 1155SOL    HW1 3754   1.330   3.017   5.089
 1155SOL    HW2 3755   1.345   3.095   5.232
 1156SOL     OW 3756   0.809   1.866   4.226
 1156SOL    HW1 3757   0.849   1.957   4.217
 1156SOL    HW2 3758   0.709   1.874   4.232
 1157SOL     OW 3759   0.197   2.838   4.988
 1157SOL    HW1 3760   0.286   2.793   4.974
 1157SOL    HW2 3761   0.124   2.773   4.969
 1158SOL     OW 3762   1.187   3.654   5.340
 1158SOL    HW1 3763   1.211   3.714   5.264
 1158SOL    HW2 3764   1.194   3.559   5.310
 1159SOL     OW 3765   0.317   2.113   5.525
 1159SOL    HW1 3766   0.388   2.184   5.531
 1159SOL    HW2 3767   0.229   2.152   5.553
 1160SOL     OW 3768   1.466   3.279   4.677
 1160SOL    HW1 3769   1.407   3.285   4.757
 1160SOL    HW2 3770   1.451   3.191   4.631
 1161SOL     OW 3771   1.667   3.576   4.296
 1161SOL    HW1 3772   1.626   3.553   4.208
 1161SOL    HW2 3773   1.649   3.502   4.361
 1162SOL     OW 3774   0.598   2.591   3.994
 1162SOL    HW1 3775   0.622   2.660   3.926
 1162SOL    HW2 3776   0.520   2.624   4.048
 1163SOL     OW 3777   1.281   2.207   4.668
 1163SOL    HW1 3778   1.195   2.157   4.655
 1163SOL    HW2 3779   1.343   2.153   4.724
 1164SOL     OW 3780   1.576   3.524   4.031
 1164SOL    HW1 3781   1.665   3.570   4.034
 1164SOL    HW2 3782   1.555   3.500   3.936
 1165SOL     OW 3783   0.807   2.467   5.189
 1165SOL    HW1 3784   0.760   2.464   5.278
 1165SOL    HW2 3785   0.756   2.412   5.123
 1166SOL     OW 3786   1.394   2.331   5.398
 1166SOL    HW1 3787   1.374   2.374   5.486
 1166SOL    HW2 3788   1.472   2.269   5.407
 1167SOL     OW 3789   0.973   2.752   5.296
 1167SOL    HW1 3790   1.019   2.668   5.267
 1167SOL    HW2 3791   0.917   2.786   5.221
 1168SOL     OW 3792   0.991   2.272   4.966
 1168SOL    HW1 3793   0.914   2.306   5.020
 1168SOL    HW2 3794   0.957   2.221   4.887
 1169SOL     OW 3795   1.041   2.563   4.153
 1169SOL    HW1 3796   1.067   2.559   4.249
 1169SOL    HW2 3797   0.956   2.512   4.139
 1170SOL     OW 3798   0.076   2.673   4.513
 1170SOL    HW1 3799   0.175   2.661   4.522
 1170SOL    HW2 3800   0.052   2.768   4.534
 1171SOL     OW 3801   0.130   3.683   5.295
 1171SOL    HW1 3802   0.120   3.668   5.394
 1171SOL    HW2 3803   0.044   3.719   5.259
 1172SOL     OW 3804   0.865   2.210   3.919
 1172SOL    HW1 3805   0.924   2.273   3.870
 1172SOL    HW2 3806   0.884   2.116   3.890
 1173SOL     OW 3807   1.719   2.447   5.555
 1173SOL    HW1 3808   1.693   2.536   5.519
 1173SOL    HW2 3809   1.717   2.379   5.482
 1174SOL     OW 3810   1.362   3.006   4.269
 1174SOL    HW1 3811   1.445   2.977   4.221
 1174SOL    HW2 3812   1.313   3.073   4.213
 1175SOL     OW 3813   0.550   2.058   4.609
 1175SOL    HW1 3814   0.545   2.053   4.709
 1175SOL    HW2 3815   0.552   2.154   4.580
 1176SOL     OW 3816   1.008   3.318   4.201
 1176SOL    HW1 3817   0.962   3.390   4.149
 1176SOL    HW2 3818   1.004   3.338   4.299
 1177SOL     OW 3819   0.351   3.663   4.577
 1177SOL    HW1 3820   0.401   3.577   4.583
 1177SOL    HW2 3821   0.416   3.740   4.574
 1178SOL     OW 3822   1.795   2.928   4.597
 1178SOL    HW1 3823   1.733   2.913   4.521
 1178SOL    HW2 3824   1.743   2.939   4.682
 1179SOL     OW 3825   1.227   3.412   5.230
 1179SOL    HW1 3826   1.233   3.335   5.294
 1179SOL    HW2 3827   1.175   3.386   5.150
 1180SOL     OW 3828   0.321   2.805   3.966
 1180SOL    HW1 3829   0.403   2.844   3.924
 1180SOL    HW2 3830   0.294   2.723   3.917
 1181SOL     OW 3831   1.458   2.597   4.452
 1181SOL    HW1 3832   1.453   2.532   4.527
 1181SOL    HW2 3833   1.538   2.656   4.465
 1182SOL     OW 3834   0.461   3.128   5.451
 1182SOL    HW1 3835   0.411   3.129   5.365
 1182SOL    HW2 3836   0.398   3.110   5.527
 1183SOL     OW 3837   1.111   3.638   3.961
 1183SOL    HW1 3838   1.051   3.576   4.011
 1183SOL    HW2 3839   1.142   3.594   3.876
 1184SOL     OW 3840   0.202   2.147   5.222
 1184SOL    HW1 3841   0.122   2.207   5.209
 1184SOL    HW2 3842   0.192   2.098   5.308
 1185SOL     OW 3843   1.632   3.239   3.805
 1185SOL    HW1 3844   1.600   3.333   3.795
 1185SOL    HW2 3845   1.556   3.176   3.793
 1186SOL     OW 3846   0.464   3.605   4.047
 1186SOL    HW1 3847   0.497   3.644   4.133
 1186SOL    HW2 3848   0.540   3.598   3.982
 1187SOL     OW 3849   1.400   1.969   4.150
 1187SOL    HW1 3850   1.376   1.932   4.060
 1187SOL    HW2 3851   1.499   1.985   4.154
 1188SOL     OW 3852   0.249   3.647   4.965
 1188SOL    HW1 3853   0.306   3.582   5.015
 1188SOL    HW2 3854   0.233   3.614   4.872
 1189SOL     OW 3855   0.940   3.560   4.628
 1189SOL    HW1 3856   1.020   3.503   4.649
 1189SOL    HW2 3857   0.891   3.520   4.551
 1190SOL     OW 3858   0.382   2.562   4.204
 1190SOL    HW1 3859   0.427   2.472   4.201
 1190SOL    HW2 3860   0.288   2.551   4.237
 1191SOL     OW 3861   1.547   2.084   5.453
 1191SOL    HW1 3862   1.542   2.121   5.545
 1191SOL    HW2 3863   1.475   2.015   5.441
 1192SOL     OW 3864   0.614   1.984   3.841
 1192SOL    HW1 3865   0.712   1.962   3.848
 1192SOL    HW2 3866   0.583   1.967   3.748
 1193SOL     OW 3867   0.781   2.126   5.473
 1193SOL    HW1 3868   0.848   2.065   5.516
 1193SOL    HW2 3869   0.708   2.145   5.538
 1194SOL     OW 3870   0.888   3.376   4.919
 1194SOL    HW1 3871   0.865   3.351   4.825
 1194SOL    HW2 3872   0.949   3.307   4.958
 1195SOL     OW 3873   1.351   2.452   5.157
 1195SOL    HW1 3874   1.379   2.409   5.242
 1195SOL    HW2 3875   1.376   2.548   5.158
 1196SOL     OW 3876   0.803   3.264   4.648
 1196SOL    HW1 3877   0.893   3.278   4.606
 1196SOL    HW2 3878   0.732   3.266   4.577
 1197SOL     OW 3879   0.922   2.365   4.623
 1197SOL    HW1 3880   0.897   2.356   4.527
 1197SOL    HW2 3881   0.970   2.283   4.654
 1198SOL     OW 3882   0.539   1.926   4.236
 1198SOL    HW1 3883   0.458   1.927   4.294
 1198SOL    HW2 3884   0.542   2.009   4.181
 1199SOL     OW 3885   1.434   3.050   3.765
 1199SOL    HW1 3886   1.466   2.974   3.822
 1199SOL    HW2 3887   1.342   3.077   3.795
 1200SOL     OW 3888   0.297   1.897   3.895
 1200SOL    HW1 3889   0.346   1.981   3.874
 1200SOL    HW2 3890   0.359   1.832   3.940
 1201SOL     OW 3891   0.935   2.098   4.204
 1201SOL    HW1 3892   0.887   2.139   4.126
 1201SOL    HW2 3893   1.034   2.096   4.185
 1202SOL     OW 3894   1.076   2.545   5.188
 1202SOL    HW1 3895   0.996   2.484   5.191
 1202SOL    HW2 3896   1.157   2.492   5.164
 1203SOL     OW 3897   1.227   3.432   4.517
 1203SOL    HW1 3898   1.248   3.506   4.452
 1203SOL    HW2 3899   1.295   3.432   4.590
 1204SOL     OW 3900   0.459   3.014   4.465
 1204SOL    HW1 3901   0.388   2.987   4.530
 1204SOL    HW2 3902   0.433   2.986   4.372
 1205SOL     OW 3903   1.271   3.659   4.315
 1205SOL    HW1 3904   1.315   3.723   4.251
 1205SOL    HW2 3905   1.221   3.711   4.385
 1206SOL     OW 3906   1.032   2.411   3.740
 1206SOL    HW1 3907   0.991   2.493   3.701
 1206SOL    HW2 3908   1.096   2.437   3.813
 1207SOL     OW 3909   0.078   2.418   5.110
 1207SOL    HW1 3910   0.170   2.417   5.069
 1207SOL    HW2 3911   0.072   2.492   5.177
 1208SOL     OW 3912   0.561   2.084   4.871
 1208SOL    HW1 3913   0.599   2.000   4.908
 1208SOL    HW2 3914   0.473   2.103   4.915
 1209SOL     OW 3915   0.866   2.316   4.366
 1209SOL    HW1 3916   0.834   2.388   4.304
 1209SOL    HW2 3917   0.890   2.235   4.313
 1210SOL     OW 3918   1.017   1.901   4.477
 1210SOL    HW1 3919   0.945   1.906   4.408
 1210SOL    HW2 3920   0.993   1.832   4.546
 1211SOL     OW 3921   1.429   3.035   4.591
 1211SOL    HW1 3922   1.374   2.951   4.584
 1211SOL    HW2 3923   1.455   3.064   4.499
 1212SOL     OW 3924   1.466   2.452   4.716
 1212SOL    HW1 3925   1.436   2.357   4.723
 1212SOL    HW2 3926   1.539   2.468   4.782
 1213SOL     OW 3927   1.857   2.695   4.101
 1213SOL    HW1 3928   1.899   2.631   4.165
 1213SOL    HW2 3929   1.819   2.644   4.023
 1214SOL     OW 3930   0.488   3.247   3.898
 1214SOL    HW1 3931   0.401   3.232   3.945
 1214SOL    HW2 3932   0.471   3.273   3.803
 1215SOL     OW 3933   1.664   3.142   4.381
 1215SOL    HW1 3934   1.763   3.150   4.395
 1215SOL    HW2 3935   1.619   3.226   4.412
 1216SOL     OW 3936   1.390   2.437   3.802
 1216SOL    HW1 3937   1.336   2.416   3.883
 1216SOL    HW2 3938   1.481   2.396   3.811
 1217SOL     OW 3939   0.527   2.118   4.052
 1217SOL    HW1 3940   0.554   2.059   3.977
 1217SOL    HW2 3941   0.527   2.213   4.021
 1218SOL     OW 3942   1.754   3.085   5.312
 1218SOL    HW1 3943   1.845   3.046   5.299
 1218SOL    HW2 3944   1.762   3.181   5.336
 1219SOL     OW 3945   1.064   3.209   5.064
 1219SOL    HW1 3946   0.984   3.186   5.119
 1219SOL    HW2 3947   1.147   3.183   5.113
 1220SOL     OW 3948   1.592   3.491   5.349
 1220SOL    HW1 3949   1.619   3.525   5.259
 1220SOL    HW2 3950   1.671   3.453   5.395
 1221SOL     OW 3951   1.111   3.057   4.824
 1221SOL    HW1 3952   1.071   3.101   4.905
 1221SOL    HW2 3953   1.070   3.094   4.741
 1222SOL     OW 3954   1.638   2.961   4.803
 1222SOL    HW1 3955   1.643   3.042   4.862
 1222SOL    HW2 3956   1.552   2.963   4.752
 1223SOL     OW 3957   0.915   1.951   5.126
 1223SOL    HW1 3958   0.940   1.931   5.031
 1223SOL    HW2 3959   0.987   2.007   5.168
 1224SOL     OW 3960   0.980   2.978   5.443
 1224SOL    HW1 3961   0.881   2.984   5.453
 1224SOL    HW2 3962   1.003   2.898   5.387
 1225SOL     OW 3963   0.705   2.912   4.092
 1225SOL    HW1 3964   0.691   2.919   4.191
 1225SOL    HW2 3965   0.789   2.861   4.074
 1226SOL     OW 3966   0.410   2.675   4.975
 1226SOL    HW1 3967   0.496   2.687   5.025
 1226SOL    HW2 3968   0.368   2.588   5.002
 1227SOL     OW 3969   1.274   2.248   4.986
 1227SOL    HW1 3970   1.295   2.322   5.050
 1227SOL    HW2 3971   1.185   2.265   4.943
 1228SOL     OW 3972   0.064   3.426   5.055
 1228SOL    HW1 3973   0.018   3.508   5.021
 1228SOL    HW2 3974   0.162   3.445   5.064
 1229SOL     OW 3975   0.367   2.962   4.225
 1229SOL    HW1 3976   0.360   3.045   4.169
 1229SOL    HW2 3977   0.371   2.882   4.165
 1230SOL     OW 3978   0.566   2.399   4.589
 1230SOL    HW1 3979   0.578   2.465   4.515
 1230SOL    HW2 3980   0.612   2.433   4.672
 1231SOL     OW 3981   1.252   3.210   4.112
 1231SOL    HW1 3982   1.302   3.287   4.152
 1231SOL    HW2 3983   1.157   3.212   4.144
 1232SOL     OW 3984   1.272   3.307   4.866
 1232SOL    HW1 3985   1.319   3.320   4.953
 1232SOL    HW2 3986   1.206   3.233   4.875
 1233SOL     OW 3987   1.582   2.501   4.196
 1233SOL    HW1 3988   1.551   2.562   4.269
 1233SOL    HW2 3989   1.632   2.553   4.127
 1234SOL     OW 3990   0.354   3.372   5.053
 1234SOL    HW1 3991   0.333   3.328   4.966
 1234SOL    HW2 3992   0.451   3.398   5.056
 1235SOL     OW 3993   0.402   2.613   5.322
 1235SOL    HW1 3994   0.470   2.668   5.275
 1235SOL    HW2 3995   0.442   2.525   5.349
 1236SOL     OW 3996   1.587   2.641   5.394
 1236SOL    HW1 3997   1.495   2.679   5.389
 1236SOL    HW2 3998   1.647   2.688   5.329
 1237SOL     OW 3999   1.013   1.967   5.494
 1237SOL    HW1 4000   1.019   2.052   5.442
 1237SOL    HW2 4001   1.045   1.891   5.437
 1238SOL     OW 4002   0.504   1.912   5.464
 1238SOL    HW1 4003   0.462   1.855   5.394
 1238SOL    HW2 4004   0.438   1.981   5.496
 1239SOL     OW 4005   0.573   2.732   4.753
 1239SOL    HW1 4006   0.617   2.821   4.744
 1239SOL    HW2 4007   0.510   2.732   4.830
 1240SOL     OW 4008   1.360   2.724   4.769
 1240SOL    HW1 4009   1.285   2.724   4.703
 1240SOL    HW2 4010   1.397   2.632   4.778
 1241SOL     OW 4011   1.209   2.387   3.999
 1241SOL    HW1 4012   1.222   2.303   4.053
 1241SOL    HW2 4013   1.180   2.461   4.059
 1242SOL     OW 4014   0.307   2.075   4.955
 1242SOL    HW1 4015   0.284   2.112   5.045
 1242SOL    HW2 4016   0.277   1.980   4.949
 1243SOL     OW 4017   0.037   3.172   5.006
 1243SOL    HW1 4018   0.090   3.123   5.074
 1243SOL    HW2 4019   0.059   3.270   5.011
 1244SOL     OW 4020   0.732   2.496   4.788
 1244SOL    HW1 4021   0.791   2.470   4.712
 1244SOL    HW2 4022   0.704   2.592   4.777
 1245SOL     OW 4023   1.728   2.797   5.578
 1245SOL    HW1 4024   1.682   2.790   5.489
 1245SOL    HW2 4025   1.666   2.841   5.644
 1246SOL     OW 4026   0.307   1.925   4.342
 1246SOL    HW1 4027   0.296   2.019   4.375
 1246SOL    HW2 4028   0.302   1.862   4.419
 1247SOL     OW 4029   1.023   2.628   4.690
 1247SOL    HW1 4030   1.038   2.649   4.786
 1247SOL    HW2 4031   0.993   2.533   4.681
 1248SOL     OW 4032   0.980   3.435   5.424
 1248SOL    HW1 4033   0.960   3.479   5.336
 1248SOL    HW2 4034   1.019   3.344   5.408
 1249SOL     OW 4035   1.859   3.380   5.329
 1249SOL    HW1 4036   1.873   3.407   5.234
 1249SOL    HW2 4037   1.942   3.402   5.382
 1250SOL     OW 4038   0.350   2.760   5.528
 1250SOL    HW1 4039   0.426   2.804   5.576
 1250SOL    HW2 4040   0.385   2.713   5.446
 1251SOL     OW 4041   1.540   2.136   3.849
 1251SOL    HW1 4042   1.479   2.061   3.872
 1251SOL    HW2 4043   1.562   2.188   3.932
 1252SOL     OW 4044   1.303   2.700   3.766
 1252SOL    HW1 4045   1.337   2.607   3.781
 1252SOL    HW2 4046   1.321   2.727   3.671
 1253SOL     OW 4047   1.068   3.195   4.573
 1253SOL    HW1 4048   1.075   3.111   4.518
 1253SOL    HW2 4049   1.130   3.264   4.537
 1254SOL     OW 4050   0.319   2.672   4.673
 1254SOL    HW1 4051   0.412   2.708   4.678
 1254SOL    HW2 4052   0.313   2.587   4.725
 1255SOL     OW 4053   0.339   2.371   4.730
 1255SOL    HW1 4054   0.287   2.288   4.713
 1255SOL    HW2 4055   0.416   2.376   4.666
 1256SOL     OW 4056   1.138   2.242   5.402
 1256SOL    HW1 4057   1.093   2.305   5.466
 1256SOL    HW2 4058   1.231   2.273   5.385
 1257SOL     OW 4059   1.160   2.069   5.201
 1257SOL    HW1 4060   1.160   2.133   5.278
 1257SOL    HW2 4061   1.188   2.117   5.118
 1258SOL     OW 4062   0.008   3.188   3.924
 1258SOL    HW1 4063  -0.085   3.209   3.893
 1258SOL    HW2 4064   0.018   3.089   3.937
 1259SOL     OW 4065   0.088   3.663   4.651
 1259SOL    HW1 4066   0.046   3.577   4.624
 1259SOL    HW2 4067   0.182   3.666   4.617
 1260SOL     OW 4068   0.504   3.430   4.634
 1260SOL    HW1 4069   0.570   3.504   4.643
 1260SOL    HW2 4070   0.548   3.351   4.592
 1261SOL     OW 4071   1.002   2.658   4.962
 1261SOL    HW1 4072   1.043   2.626   5.048
 1261SOL    HW2 4073   0.906   2.631   4.959
 1262SOL     OW 4074   0.040   2.406   4.838
 1262SOL    HW1 4075   0.125   2.373   4.797
 1262SOL    HW2 4076   0.053   2.421   4.936
 1263SOL     OW 4077   0.189   2.382   5.446
 1263SOL    HW1 4078   0.248   2.342   5.376
 1263SOL    HW2 4079   0.131   2.453   5.405
 1264SOL     OW 4080   1.369   2.812   5.384
 1264SOL    HW1 4081   1.408   2.901   5.404
 1264SOL    HW2 4082   1.379   2.792   5.287
 1265SOL     OW 4083   0.815   2.434   4.049
 1265SOL    HW1 4084   0.822   2.345   4.003
 1265SOL    HW2 4085   0.721   2.468   4.041
 1266SOL     OW 4086   1.657   2.466   4.930
 1266SOL    HW1 4087   1.619   2.397   4.992
 1266SOL    HW2 4088   1.739   2.430   4.886
 1267SOL     OW 4089   0.252   3.426   5.468
 1267SOL    HW1 4090   0.222   3.483   5.544
 1267SOL    HW2 4091   0.245   3.329   5.494
 1268SOL     OW 4092   0.671   2.326   4.993
 1268SOL    HW1 4093   0.637   2.237   4.963
 1268SOL    HW2 4094   0.697   2.380   4.913
 1269SOL     OW 4095   0.930   3.540   5.189
 1269SOL    HW1 4096   0.906   3.522   5.094
 1269SOL    HW2 4097   0.960   3.634   5.199
 1270SOL     OW 4098   0.473   2.362   3.915
 1270SOL    HW1 4099   0.534   2.442   3.919
 1270SOL    HW2 4100   0.378   2.393   3.922
 1271SOL     OW 4101   0.159   2.999   5.190
 1271SOL    HW1 4102   0.181   2.938   5.266
 1271SOL    HW2 4103   0.169   2.950   5.104
 1272SOL     OW 4104   1.347   2.921   4.958
 1272SOL    HW1 4105   1.371   2.858   4.884
 1272SOL    HW2 4106   1.257   2.961   4.940
 1273SOL     OW 4107   1.302   2.717   4.033
 1273SOL    HW1 4108   1.216   2.686   4.075
 1273SOL    HW2 4109   1.298   2.703   3.934
 1274SOL     OW 4110   1.759   3.609   4.878
 1274SOL    HW1 4111   1.820   3.639   4.805
 1274SOL    HW2 4112   1.721   3.520   4.856
 1275SOL     OW 4113   1.252   3.593   4.852
 1275SOL    HW1 4114   1.336   3.598   4.798
 1275SOL    HW2 4115   1.229   3.497   4.870
 1276SOL     OW 4116   0.083   3.120   4.746
 1276SOL    HW1 4117   0.078   3.119   4.846
 1276SOL    HW2 4118   0.000   3.079   4.708
 1277SOL     OW 4119   0.688   3.524   5.440
 1277SOL    HW1 4120   0.632   3.605   5.449
 1277SOL    HW2 4121   0.740   3.528   5.354
 1278SOL     OW 4122   1.388   3.435   4.201
 1278SOL    HW1 4123   1.455   3.447   4.127
 1278SOL    HW2 4124   1.348   3.524   4.224
 1279SOL     OW 4125   0.130   3.656   5.575
 1279SOL    HW1 4126   0.089   3.582   5.628
 1279SOL    HW2 4127   0.194   3.707   5.633
 1280SOL     OW 4128   1.280   2.789   4.396
 1280SOL    HW1 4129   1.340   2.708   4.398
 1280SOL    HW2 4130   1.320   2.858   4.336
 1281SOL     OW 4131   0.830   3.135   5.146
 1281SOL    HW1 4132   0.825   3.168   5.241
 1281SOL    HW2 4133   0.744   3.154   5.100
 1282SOL     OW 4134   0.672   3.478   3.878
 1282SOL    HW1 4135   0.681   3.488   3.779
 1282SOL    HW2 4136   0.632   3.389   3.899
 1283SOL     OW 4137   1.650   3.582   5.118
 1283SOL    HW1 4138   1.703   3.592   5.034
 1283SOL    HW2 4139   1.623   3.672   5.152
 1284SOL     OW 4140   1.841   2.037   4.687
 1284SOL    HW1 4141   1.880   1.952   4.651
 1284SOL    HW2 4142   1.743   2.039   4.668
 1285SOL     OW 4143   0.263   2.188   4.444
 1285SOL    HW1 4144   0.184   2.239   4.410
 1285SOL    HW2 4145   0.254   2.173   4.542
 1286SOL     OW 4146   1.194   3.474   3.755
 1286SOL    HW1 4147   1.200   3.381   3.792
 1286SOL    HW2 4148   1.135   3.474   3.675
 1287SOL     OW 4149   0.822   2.864   5.096
 1287SOL    HW1 4150   0.862   2.863   5.004
 1287SOL    HW2 4151   0.832   2.956   5.136
 1288SOL     OW 4152   0.916   2.772   4.015
 1288SOL    HW1 4153   0.979   2.810   3.947
 1288SOL    HW2 4154   0.956   2.689   4.054
 1289SOL     OW 4155   1.504   3.469   3.768
 1289SOL    HW1 4156   1.412   3.506   3.775
 1289SOL    HW2 4157   1.542   3.489   3.678
 1290SOL     OW 4158   0.372   3.150   5.214
 1290SOL    HW1 4159   0.359   3.243   5.180
 1290SOL    HW2 4160   0.288   3.098   5.201
 1291SOL     OW 4161   1.614   3.154   5.013
 1291SOL    HW1 4162   1.674   3.157   5.093
 1291SOL    HW2 4163   1.539   3.218   5.026
 1292SOL     OW 4164   1.039   2.960   4.420
 1292SOL    HW1 4165   0.969   2.913   4.474
 1292SOL    HW2 4166   1.098   2.892   4.377
 1293SOL     OW 4167   1.014   2.098   4.695
 1293SOL    HW1 4168   1.006   2.062   4.602
 1293SOL    HW2 4169   1.012   2.022   4.760
 1294SOL     OW 4170   0.590   3.349   4.215
 1294SOL    HW1 4171   0.632   3.291   4.145
 1294SOL    HW2 4172   0.546   3.428   4.171
 1295SOL     OW 4173   1.709   2.247   5.105
 1295SOL    HW1 4174   1.782   2.316   5.109
 1295SOL    HW2 4175   1.737   2.172   5.046
 1296SOL     OW 4176   0.255   3.210   4.014
 1296SOL    HW1 4177   0.159   3.211   3.987
 1296SOL    HW2 4178   0.267   3.263   4.098
 1297SOL     OW 4179   0.105   2.875   5.450
 1297SOL    HW1 4180   0.028   2.842   5.504
 1297SOL    HW2 4181   0.190   2.845   5.492
 1298SOL     OW 4182   0.672   2.065   5.213
 1298SOL    HW1 4183   0.762   2.049   5.173
 1298SOL    HW2 4184   0.680   2.070   5.312
 1299SOL     OW 4185   0.075   2.207   3.757
 1299SOL    HW1 4186  -0.017   2.179   3.728
 1299SOL    HW2 4187   0.106   2.284   3.701
 1300SOL     OW 4188   1.440   2.718   5.122
 1300SOL    HW1 4189   1.383   2.770   5.059
 1300SOL    HW2 4190   1.536   2.730   5.098
 1301SOL     OW 4191   0.072   2.028   4.042
 1301SOL    HW1 4192   0.055   2.111   3.988
 1301SOL    HW2 4193   0.162   1.991   4.020
 1302SOL     OW 4194   1.183   3.197   3.843
 1302SOL    HW1 4195   1.084   3.186   3.845
 1302SOL    HW2 4196   1.217   3.212   3.936
 1303SOL     OW 4197   0.613   2.704   5.155
 1303SOL    HW1 4198   0.669   2.785   5.138
 1303SOL    HW2 4199   0.672   2.624   5.158
 1304SOL     OW 4200   1.493   3.629   4.683
 1304SOL    HW1 4201   1.526   3.693   4.614
 1304SOL    HW2 4202   1.559   3.623   4.758
 1305SOL     OW 4203   0.716   2.427   5.432
 1305SOL    HW1 4204   0.735   2.492   5.506
 1305SOL    HW2 4205   0.776   2.347   5.441
 1306SOL     OW 4206   1.450   3.082   5.357
 1306SOL    HW1 4207   1.441   3.072   5.456
 1306SOL    HW2 4208   1.546   3.075   5.331
 1307SOL     OW 4209   0.390   3.603   5.284
 1307SOL    HW1 4210   0.299   3.644   5.282
 1307SOL    HW2 4211   0.383   3.509   5.316
 1308SOL     OW 4212   1.674   2.745   4.978
 1308SOL    HW1 4213   1.647   2.656   4.941
 1308SOL    HW2 4214   1.675   2.813   4.905
 1309SOL     OW 4215   1.225   2.187   4.173
 1309SOL    HW1 4216   1.290   2.113   4.162
 1309SOL    HW2 4217   1.245   2.237   4.257
 1310SOL     OW 4218   0.594   2.607   4.376
 1310SOL    HW1 4219   0.644   2.692   4.357
 1310SOL    HW2 4220   0.506   2.609   4.328
 1311SOL     OW 4221   1.777   2.204   5.366
 1311SOL    HW1 4222   1.760   2.235   5.272
 1311SOL    HW2 4223   1.693   2.167   5.404
 1312SOL     OW 4224   1.730   2.796   5.241
 1312SOL    HW1 4225   1.768   2.887   5.256
 1312SOL    HW2 4226   1.722   2.779   5.142
 1313SOL     OW 4227   0.859   3.236   3.740
 1313SOL    HW1 4228   0.813   3.251   3.828
 1313SOL    HW2 4229   0.903   3.321   3.710
 1314SOL     OW 4230   0.661   3.652   4.677
 1314SOL    HW1 4231   0.615   3.740   4.664
 1314SOL    HW2 4232   0.760   3.664   4.670
 1315SOL     OW 4233   0.859   2.818   4.585
 1315SOL    HW1 4234   0.913   2.749   4.633
 1315SOL    HW2 4235   0.827   2.887   4.651
 1316SOL     OW 4236   1.083   2.846   3.811
 1316SOL    HW1 4237   1.060   2.899   3.729
 1316SOL    HW2 4238   1.164   2.790   3.792
 1317SOL     OW 4239   1.861   3.431   4.575
 1317SOL    HW1 4240   1.790   3.419   4.505
 1317SOL    HW2 4241   1.862   3.352   4.635
 1318SOL     OW 4242   0.221   3.176   5.568
 1318SOL    HW1 4243   0.156   3.103   5.547
 1318SOL    HW2 4244   0.225   3.190   5.666
 1319SOL     OW 4245   0.079   3.102   4.377
 1319SOL    HW1 4246   0.078   3.055   4.465
 1319SOL    HW2 4247   0.161   3.074   4.326
 1320SOL     OW 4248   0.672   3.253   5.348
 1320SOL    HW1 4249   0.594   3.203   5.386
 1320SOL    HW2 4250   0.669   3.348   5.379
 1321SOL     OW 4251   1.824   2.054   4.951
 1321SOL    HW1 4252   1.820   1.964   4.995
 1321SOL    HW2 4253   1.827   2.043   4.852
 1322SOL     OW 4254   0.428   2.286   4.244
 1322SOL    HW1 4255   0.458   2.214   4.182
 1322SOL    HW2 4256   0.389   2.246   4.327
 1323SOL     OW 4257   1.705   3.349   4.828
 1323SOL    HW1 4258   1.612   3.324   4.801
 1323SOL    HW2 4259   1.731   3.299   4.910
 1324SOL     OW 4260   0.317   2.409   5.004
 1324SOL    HW1 4261   0.355   2.350   5.076
 1324SOL    HW2 4262   0.357   2.383   4.916
 1325SOL     OW 4263   0.812   3.448   4.411
 1325SOL    HW1 4264   0.844   3.458   4.317
 1325SOL    HW2 4265   0.733   3.386   4.413
 1326SOL     OW 4266   1.424   2.076   4.836
 1326SOL    HW1 4267   1.476   2.011   4.891
 1326SOL    HW2 4268   1.375   2.139   4.897
 1327SOL     OW 4269   1.001   1.896   4.878
 1327SOL    HW1 4270   0.938   1.824   4.847
 1327SOL    HW2 4271   1.094   1.860   4.878
 1328SOL     OW 4272   0.770   3.192   4.025
 1328SOL    HW1 4273   0.724   3.105   4.042
 1328SOL    HW2 4274   0.861   3.189   4.066
 1329SOL     OW 4275   0.618   3.429   5.008
 1329SOL    HW1 4276   0.613   3.511   5.065
 1329SOL    HW2 4277   0.707   3.426   4.963
 1330SOL     OW 4278   1.352   1.914   3.892
 1330SOL    HW1 4279   1.387   1.873   3.808
 1330SOL    HW2 4280   1.262   1.876   3.912
 1331SOL     OW 4281   1.300   2.315   4.415
 1331SOL    HW1 4282   1.241   2.395   4.419
 1331SOL    HW2 4283   1.315   2.280   4.508
 1332SOL     OW 4284   1.593   2.083   4.606
 1332SOL    HW1 4285   1.509   2.082   4.660
 1332SOL    HW2 4286   1.595   2.166   4.550
 1333SOL     OW 4287   0.039   2.939   4.024
 1333SOL    HW1 4288   0.138   2.928   4.015
 1333SOL    HW2 4289  -0.001   2.853   4.056
 1334SOL     OW 4290   0.875   3.508   4.061
 1334SOL    HW1 4291   0.798   3.473   4.007
 1334SOL    HW2 4292   0.843   3.579   4.123
 1335SOL     OW 4293   0.230   2.490   5.699
 1335SOL    HW1 4294   0.137   2.488   5.736
 1335SOL    HW2 4295   0.231   2.451   5.607
 1336SOL     OW 4296   1.755   2.469   5.817
 1336SOL    HW1 4297   1.743   2.456   5.718
 1336SOL    HW2 4298   1.725   2.388   5.866
 1337SOL     OW 4299   0.231   3.575   6.069
 1337SOL    HW1 4300   0.265   3.652   6.123
 1337SOL    HW2 4301   0.275   3.575   5.979
 1338SOL     OW 4302   0.606   2.826   5.709
 1338SOL    HW1 4303   0.613   2.910   5.655
 1338SOL    HW2 4304   0.652   2.839   5.797
 1339SOL     OW 4305   1.842   3.629   5.945
 1339SOL    HW1 4306   1.896   3.600   6.025
 1339SOL    HW2 4307   1.872   3.719   5.916
 1340SOL     OW 4308   0.027   3.458   5.703
 1340SOL    HW1 4309   0.008   3.362   5.724
 1340SOL    HW2 4310  -0.006   3.516   5.778
 1341SOL     OW 4311   1.689   2.784   6.198
 1341SOL    HW1 4312   1.784   2.755   6.206
 1341SOL    HW2 4313   1.681   2.849   6.123
 1342SOL     OW 4314   1.641   2.970   6.018
 1342SOL    HW1 4315   1.727   2.972   5.966
 1342SOL    HW2 4316   1.655   3.017   6.106
 1343SOL     OW 4317   1.525   2.861   5.776
 1343SOL    HW1 4318   1.462   2.785   5.789
 1343SOL    HW2 4319   1.573   2.879   5.862
 1344SOL     OW 4320   0.598   2.591   5.856
 1344SOL    HW1 4321   0.622   2.660   5.788
 1344SOL    HW2 4322   0.520   2.624   5.910
 1345SOL     OW 4323   0.865   2.210   5.781
 1345SOL    HW1 4324   0.924   2.273   5.732
 1345SOL    HW2 4325   0.884   2.116   5.752
 1346SOL     OW 4326   0.321   2.805   5.828
 1346SOL    HW1 4327   0.403   2.844   5.786
 1346SOL    HW2 4328   0.294   2.723   5.779
 1347SOL     OW 4329   1.111   3.638   5.823
 1347SOL    HW1 4330   1.051   3.576   5.873
 1347SOL    HW2 4331   1.142   3.594   5.738
 1348SOL     OW 4332   1.632   3.239   5.667
 1348SOL    HW1 4333   1.600   3.333   5.657
 1348SOL    HW2 4334   1.556   3.176   5.655
 1349SOL     OW 4335   0.464   3.605   5.909
 1349SOL    HW1 4336   0.497   3.644   5.995
 1349SOL    HW2 4337   0.540   3.598   5.844
 1350SOL     OW 4338   0.614   1.984   5.703
 1350SOL    HW1 4339   0.712   1.962   5.710
 1350SOL    HW2 4340   0.583   1.967   5.610
 1351SOL     OW 4341   1.434   3.050   5.627
 1351SOL    HW1 4342   1.466   2.974   5.684
 1351SOL    HW2 4343   1.342   3.077   5.657
 1352SOL     OW 4344   0.297   1.897   5.757
 1352SOL    HW1 4345   0.346   1.981   5.736
 1352SOL    HW2 4346   0.359   1.832   5.802
 1353SOL     OW 4347   1.032   2.411   5.602
 1353SOL    HW1 4348   0.991   2.493   5.563
 1353SOL    HW2 4349   1.096   2.437   5.675
 1354SOL     OW 4350   1.857   2.695   5.963
 1354SOL    HW1 4351   1.899   2.631   6.027
 1354SOL    HW2 4352   1.819   2.644   5.885
 1355SOL     OW 4353   0.488   3.247   5.760
 1355SOL    HW1 4354   0.401   3.232   5.807
 1355SOL    HW2 4355   0.471   3.273   5.665
 1356SOL     OW 4356   1.664   3.142   6.243
 1356SOL    HW1 4357   1.763   3.150   6.257
 1356SOL    HW2 4358   1.619   3.226   6.274
 1357SOL     OW 4359   1.390   2.437   5.664
 1357SOL    HW1 4360   1.336   2.416   5.745
 1357SOL    HW2 4361   1.481   2.396   5.673
 1358SOL     OW 4362   0.527   2.118   5.914
 1358SOL    HW1 4363   0.554   2.059   5.839
 1358SOL    HW2 4364   0.527   2.213   5.883
 1359SOL     OW 4365   0.367   2.962   6.087
 1359SOL    HW1 4366   0.360   3.045   6.031
 1359SOL    HW2 4367   0.371   2.882   6.027
 1360SOL     OW 4368   1.209   2.387   5.861
 1360SOL    HW1 4369   1.222   2.303   5.915
 1360SOL    HW2 4370   1.180   2.461   5.921
 1361SOL     OW 4371   0.307   1.925   6.204
 1361SOL    HW1 4372   0.296   2.019   6.237
 1361SOL    HW2 4373   0.302   1.862   6.281
 1362SOL     OW 4374   1.540   2.136   5.711
 1362SOL    HW1 4375   1.479   2.061   5.734
 1362SOL    HW2 4376   1.562   2.188   5.794
 1363SOL     OW 4377   1.303   2.700   5.628
 1363SOL    HW1 4378   1.337   2.607   5.643
 1363SOL    HW2 4379   1.321   2.727   5.533
 1364SOL     OW 4380   0.008   3.188   5.786
 1364SOL    HW1 4381  -0.085   3.209   5.755
 1364SOL    HW2 4382   0.018   3.089   5.799
 1365SOL     OW 4383   0.815   2.434   5.911
 1365SOL    HW1 4384   0.822   2.345   5.865
 1365SOL    HW2 4385   0.721   2.468   5.903
 1366SOL     OW 4386   0.473   2.362   5.777
 1366SOL    HW1 4387   0.534   2.442   5.781
 1366SOL    HW2 4388   0.378   2.393   5.784
 1367SOL     OW 4389   1.726   1.997   6.109
 1367SOL    HW1 4390   1.799   1.980   6.042
 1367SOL    HW2 4391   1.695   1.910   6.147
 1368SOL     OW 4392   0.672   3.478   5.740
 1368SOL    HW1 4393   0.681   3.488   5.641
 1368SOL    HW2 4394   0.632   3.389   5.761
 1369SOL     OW 4395   1.194   3.474   5.617
 1369SOL    HW1 4396   1.200   3.381   5.654
 1369SOL    HW2 4397   1.135   3.474   5.537
 1370SOL     OW 4398   0.916   2.772   5.877
 1370SOL    HW1 4399   0.979   2.810   5.809
 1370SOL    HW2 4400   0.956   2.689   5.916
 1371SOL     OW 4401   1.504   3.469   5.630
 1371SOL    HW1 4402   1.412   3.506   5.637
 1371SOL    HW2 4403   1.542   3.489   5.540
 1372SOL     OW 4404   1.039   2.960   6.282
 1372SOL    HW1 4405   0.969   2.913   6.336
 1372SOL    HW2 4406   1.098   2.892   6.239
 1373SOL     OW 4407   0.255   3.210   5.876
 1373SOL    HW1 4408   0.159   3.211   5.849
 1373SOL    HW2 4409   0.267   3.263   5.960
 1374SOL     OW 4410   0.075   2.207   5.619
 1374SOL    HW1 4411  -0.017   2.179   5.590
 1374SOL    HW2 4412   0.106   2.284   5.563
 1375SOL     OW 4413   0.072   2.028   5.904
 1375SOL    HW1 4414   0.055   2.111   5.850
 1375SOL    HW2 4415   0.162   1.991   5.882
 1376SOL     OW 4416   1.183   3.197   5.705
 1376SOL    HW1 4417   1.084   3.186   5.707
 1376SOL    HW2 4418   1.217   3.212   5.798
 1377SOL     OW 4419   1.225   2.187   6.035
 1377SOL    HW1 4420   1.290   2.113   6.024
 1377SOL    HW2 4421   1.245   2.237   6.119
 1378SOL     OW 4422   0.859   3.236   5.602
 1378SOL    HW1 4423   0.813   3.251   5.690
 1378SOL    HW2 4424   0.903   3.321   5.572
 1379SOL     OW 4425   1.083   2.846   5.673
 1379SOL    HW1 4426   1.060   2.899   5.591
 1379SOL    HW2 4427   1.164   2.790   5.654
 1380SOL     OW 4428   1.352   1.914   5.754
 1380SOL    HW1 4429   1.387   1.873   5.670
 1380SOL    HW2 4430   1.262   1.876   5.774
 1381SOL     OW 4431   0.039   2.939   5.886
 1381SOL    HW1 4432   0.138   2.928   5.877
 1381SOL    HW2 4433  -0.001   2.853   5.918
 1382SOL     OW 4434   0.875   3.508   5.923
 1382SOL    HW1 4435   0.798   3.473   5.869
 1382SOL    HW2 4436   0.843   3.579   5.985
 1383SOL     OW 4437   0.230   4.352   0.113
 1383SOL    HW1 4438   0.137   4.350   0.150
 1383SOL    HW2 4439   0.231   4.313   0.021
 1384SOL     OW 4440   0.225   3.999   0.996
 1384SOL    HW1 4441   0.260   3.982   1.088
 1384SOL    HW2 4442   0.137   3.954   0.984
 1385SOL     OW 4443   0.019   4.092   0.647
 1385SOL    HW1 4444  -0.063   4.135   0.686
 1385SOL    HW2 4445  -0.009   4.019   0.584
 1386SOL     OW 4446   0.569   4.999   1.165
 1386SOL    HW1 4447   0.476   4.992   1.128
 1386SOL    HW2 4448   0.580   5.088   1.209
 1387SOL     OW 4449   1.555   5.235   0.703
 1387SOL    HW1 4450   1.498   5.219   0.784
 1387SOL    HW2 4451   1.496   5.245   0.623
 1388SOL     OW 4452   1.135   4.427   0.717
 1388SOL    HW1 4453   1.192   4.505   0.692
 1388SOL    HW2 4454   1.075   4.453   0.793
 1389SOL     OW 4455   1.755   4.331   0.231
 1389SOL    HW1 4456   1.743   4.318   0.132
 1389SOL    HW2 4457   1.725   4.250   0.280
 1390SOL     OW 4458   0.768   4.868   1.023
 1390SOL    HW1 4459   0.690   4.885   1.083
 1390SOL    HW2 4460   0.802   4.955   0.987
 1391SOL     OW 4461   0.850   4.522   1.823
 1391SOL    HW1 4462   0.846   4.598   1.888
 1391SOL    HW2 4463   0.872   4.558   1.732
 1392SOL     OW 4464   0.685   4.736   0.665
 1392SOL    HW1 4465   0.754   4.720   0.735
 1392SOL    HW2 4466   0.612   4.793   0.703
 1393SOL     OW 4467   0.686   4.885   1.803
 1393SOL    HW1 4468   0.746   4.964   1.817
 1393SOL    HW2 4469   0.600   4.916   1.762
 1394SOL     OW 4470   0.335   5.159   1.061
 1394SOL    HW1 4471   0.257   5.128   1.008
 1394SOL    HW2 4472   0.393   5.217   1.004
 1395SOL     OW 4473   1.460   5.229   1.339
 1395SOL    HW1 4474   1.484   5.323   1.365
 1395SOL    HW2 4475   1.444   5.175   1.421
 1396SOL     OW 4476   0.438   4.116   1.499
 1396SOL    HW1 4477   0.520   4.060   1.508
 1396SOL    HW2 4478   0.357   4.058   1.503
 1397SOL     OW 4479   1.603   4.171   0.737
 1397SOL    HW1 4480   1.529   4.217   0.687
 1397SOL    HW2 4481   1.654   4.239   0.790
 1398SOL     OW 4482   0.231   5.437   0.483
 1398SOL    HW1 4483   0.265   5.514   0.537
 1398SOL    HW2 4484   0.275   5.437   0.393
 1399SOL     OW 4485   1.127   5.065   1.690
 1399SOL    HW1 4486   1.174   5.065   1.778
 1399SOL    HW2 4487   1.079   4.978   1.679
 1400SOL     OW 4488   0.230   5.158   0.538
 1400SOL    HW1 4489   0.204   5.254   0.538
 1400SOL    HW2 4490   0.159   5.104   0.583
 1401SOL     OW 4491   0.240   4.815   0.886
 1401SOL    HW1 4492   0.254   4.731   0.938
 1401SOL    HW2 4493   0.185   4.879   0.941
 1402SOL     OW 4494   0.620   5.510   1.439
 1402SOL    HW1 4495   0.528   5.493   1.474
 1402SOL    HW2 4496   0.648   5.602   1.465
 1403SOL     OW 4497   0.606   4.688   0.123
 1403SOL    HW1 4498   0.613   4.772   0.069
 1403SOL    HW2 4499   0.652   4.701   0.211
 1404SOL     OW 4500   1.594   3.838   1.480
 1404SOL    HW1 4501   1.576   3.905   1.408
 1404SOL    HW2 4502   1.591   3.884   1.569
 1405SOL     OW 4503   0.122   4.367   0.563
 1405SOL    HW1 4504   0.077   4.279   0.580
 1405SOL    HW2 4505   0.121   4.421   0.647
 1406SOL     OW 4506   1.842   5.491   0.359
 1406SOL    HW1 4507   1.896   5.462   0.439
 1406SOL    HW2 4508   1.872   5.581   0.330
 1407SOL     OW 4509   0.027   5.320   0.117
 1407SOL    HW1 4510   0.008   5.224   0.138
 1407SOL    HW2 4511  -0.006   5.378   0.192
 1408SOL     OW 4512   1.689   4.646   0.612
 1408SOL    HW1 4513   1.784   4.617   0.620
 1408SOL    HW2 4514   1.681   4.711   0.537
 1409SOL     OW 4515   1.641   4.832   0.432
 1409SOL    HW1 4516   1.727   4.834   0.380
 1409SOL    HW2 4517   1.655   4.879   0.520
 1410SOL     OW 4518   0.113   4.461   1.597
 1410SOL    HW1 4519   0.201   4.448   1.642
 1410SOL    HW2 4520   0.100   4.558   1.575
 1411SOL     OW 4521   0.613   5.089   0.726
 1411SOL    HW1 4522   0.564   5.002   0.735
 1411SOL    HW2 4523   0.590   5.132   0.639
 1412SOL     OW 4524   1.293   4.952   1.423
 1412SOL    HW1 4525   1.330   4.879   1.365
 1412SOL    HW2 4526   1.345   4.957   1.508
 1413SOL     OW 4527   0.809   3.728   0.502
 1413SOL    HW1 4528   0.849   3.819   0.493
 1413SOL    HW2 4529   0.709   3.736   0.508
 1414SOL     OW 4530   0.197   4.700   1.264
 1414SOL    HW1 4531   0.286   4.655   1.250
 1414SOL    HW2 4532   0.124   4.635   1.245
 1415SOL     OW 4533   1.525   4.723   0.190
 1415SOL    HW1 4534   1.462   4.647   0.203
 1415SOL    HW2 4535   1.573   4.741   0.276
 1416SOL     OW 4536   1.187   5.516   1.616
 1416SOL    HW1 4537   1.211   5.576   1.540
 1416SOL    HW2 4538   1.194   5.421   1.586
 1417SOL     OW 4539   0.317   3.975   1.801
 1417SOL    HW1 4540   0.388   4.046   1.807
 1417SOL    HW2 4541   0.229   4.014   1.829
 1418SOL     OW 4542   1.466   5.141   0.953
 1418SOL    HW1 4543   1.407   5.147   1.033
 1418SOL    HW2 4544   1.451   5.053   0.907
 1419SOL     OW 4545   1.667   5.438   0.572
 1419SOL    HW1 4546   1.626   5.415   0.484
 1419SOL    HW2 4547   1.649   5.364   0.637
 1420SOL     OW 4548   0.598   4.453   0.270
 1420SOL    HW1 4549   0.622   4.522   0.202
 1420SOL    HW2 4550   0.520   4.486   0.324
 1421SOL     OW 4551   1.281   4.069   0.944
 1421SOL    HW1 4552   1.195   4.019   0.931
 1421SOL    HW2 4553   1.343   4.015   1.000
 1422SOL     OW 4554   1.576   5.386   0.307
 1422SOL    HW1 4555   1.665   5.432   0.310
 1422SOL    HW2 4556   1.555   5.362   0.212
 1423SOL     OW 4557   0.807   4.329   1.465
 1423SOL    HW1 4558   0.760   4.326   1.554
 1423SOL    HW2 4559   0.756   4.274   1.399
 1424SOL     OW 4560   1.394   4.193   1.674
 1424SOL    HW1 4561   1.374   4.236   1.762
 1424SOL    HW2 4562   1.472   4.131   1.683
 1425SOL     OW 4563   0.973   4.614   1.572
 1425SOL    HW1 4564   1.019   4.530   1.543
 1425SOL    HW2 4565   0.917   4.648   1.497
 1426SOL     OW 4566   0.991   4.134   1.242
 1426SOL    HW1 4567   0.914   4.168   1.296
 1426SOL    HW2 4568   0.957   4.083   1.163
 1427SOL     OW 4569   1.041   4.425   0.429
 1427SOL    HW1 4570   1.067   4.421   0.525
 1427SOL    HW2 4571   0.956   4.374   0.415
 1428SOL     OW 4572   0.076   4.535   0.789
 1428SOL    HW1 4573   0.175   4.523   0.798
 1428SOL    HW2 4574   0.052   4.630   0.810
 1429SOL     OW 4575   0.130   5.545   1.571
 1429SOL    HW1 4576   0.120   5.530   1.670
 1429SOL    HW2 4577   0.044   5.581   1.535
 1430SOL     OW 4578   0.865   4.072   0.195
 1430SOL    HW1 4579   0.924   4.135   0.146
 1430SOL    HW2 4580   0.884   3.978   0.166
 1431SOL     OW 4581   1.719   4.309   1.831
 1431SOL    HW1 4582   1.693   4.398   1.795
 1431SOL    HW2 4583   1.717   4.241   1.758
 1432SOL     OW 4584   1.362   4.868   0.545
 1432SOL    HW1 4585   1.445   4.839   0.497
 1432SOL    HW2 4586   1.313   4.935   0.489
 1433SOL     OW 4587   0.550   3.920   0.885
 1433SOL    HW1 4588   0.545   3.915   0.985
 1433SOL    HW2 4589   0.552   4.016   0.856
 1434SOL     OW 4590   1.008   5.180   0.477
 1434SOL    HW1 4591   0.962   5.252   0.425
 1434SOL    HW2 4592   1.004   5.200   0.575
 1435SOL     OW 4593   0.351   5.525   0.853
 1435SOL    HW1 4594   0.401   5.439   0.859
 1435SOL    HW2 4595   0.416   5.602   0.850
 1436SOL     OW 4596   1.795   4.790   0.873
 1436SOL    HW1 4597   1.733   4.775   0.797
 1436SOL    HW2 4598   1.743   4.801   0.958
 1437SOL     OW 4599   1.227   5.274   1.506
 1437SOL    HW1 4600   1.233   5.197   1.570
 1437SOL    HW2 4601   1.175   5.248   1.426
 1438SOL     OW 4602   0.321   4.667   0.242
 1438SOL    HW1 4603   0.403   4.706   0.200
 1438SOL    HW2 4604   0.294   4.585   0.193
 1439SOL     OW 4605   1.458   4.459   0.728
 1439SOL    HW1 4606   1.453   4.394   0.803
 1439SOL    HW2 4607   1.538   4.518   0.741
 1440SOL     OW 4608   0.461   4.990   1.727
 1440SOL    HW1 4609   0.411   4.991   1.641
 1440SOL    HW2 4610   0.398   4.972   1.803
 1441SOL     OW 4611   1.111   5.500   0.237
 1441SOL    HW1 4612   1.051   5.438   0.287
 1441SOL    HW2 4613   1.142   5.456   0.152
 1442SOL     OW 4614   0.202   4.009   1.498
 1442SOL    HW1 4615   0.122   4.069   1.485
 1442SOL    HW2 4616   0.192   3.960   1.584
 1443SOL     OW 4617   1.632   5.101   0.081
 1443SOL    HW1 4618   1.600   5.195   0.071
 1443SOL    HW2 4619   1.556   5.038   0.069
 1444SOL     OW 4620   0.464   5.467   0.323
 1444SOL    HW1 4621   0.497   5.506   0.409
 1444SOL    HW2 4622   0.540   5.460   0.258
 1445SOL     OW 4623   1.400   3.831   0.426
 1445SOL    HW1 4624   1.376   3.794   0.336
 1445SOL    HW2 4625   1.499   3.847   0.430
 1446SOL     OW 4626   0.249   5.509   1.241
 1446SOL    HW1 4627   0.306   5.444   1.291
 1446SOL    HW2 4628   0.233   5.476   1.148
 1447SOL     OW 4629   0.940   5.422   0.904
 1447SOL    HW1 4630   1.020   5.365   0.925
 1447SOL    HW2 4631   0.891   5.382   0.827
 1448SOL     OW 4632   0.382   4.424   0.480
 1448SOL    HW1 4633   0.427   4.334   0.477
 1448SOL    HW2 4634   0.288   4.413   0.513
 1449SOL     OW 4635   1.547   3.946   1.729
 1449SOL    HW1 4636   1.542   3.983   1.821
 1449SOL    HW2 4637   1.475   3.877   1.717
 1450SOL     OW 4638   0.614   3.846   0.117
 1450SOL    HW1 4639   0.712   3.824   0.124
 1450SOL    HW2 4640   0.583   3.829   0.024
 1451SOL     OW 4641   0.781   3.988   1.749
 1451SOL    HW1 4642   0.848   3.927   1.792
 1451SOL    HW2 4643   0.708   4.007   1.814
 1452SOL     OW 4644   0.888   5.238   1.195
 1452SOL    HW1 4645   0.865   5.213   1.101
 1452SOL    HW2 4646   0.949   5.169   1.234
 1453SOL     OW 4647   1.351   4.314   1.433
 1453SOL    HW1 4648   1.379   4.271   1.518
 1453SOL    HW2 4649   1.376   4.410   1.434
 1454SOL     OW 4650   0.803   5.126   0.924
 1454SOL    HW1 4651   0.893   5.140   0.882
 1454SOL    HW2 4652   0.732   5.128   0.853
 1455SOL     OW 4653   0.922   4.227   0.899
 1455SOL    HW1 4654   0.897   4.218   0.803
 1455SOL    HW2 4655   0.970   4.145   0.930
 1456SOL     OW 4656   0.539   3.788   0.512
 1456SOL    HW1 4657   0.458   3.789   0.570
 1456SOL    HW2 4658   0.542   3.871   0.457
 1457SOL     OW 4659   1.434   4.912   0.041
 1457SOL    HW1 4660   1.466   4.836   0.098
 1457SOL    HW2 4661   1.342   4.939   0.071
 1458SOL     OW 4662   0.935   3.960   0.480
 1458SOL    HW1 4663   0.887   4.001   0.402
 1458SOL    HW2 4664   1.034   3.958   0.461
 1459SOL     OW 4665   1.076   4.407   1.464
 1459SOL    HW1 4666   0.996   4.346   1.467
 1459SOL    HW2 4667   1.157   4.354   1.440
 1460SOL     OW 4668   1.227   5.294   0.793
 1460SOL    HW1 4669   1.248   5.368   0.728
 1460SOL    HW2 4670   1.295   5.294   0.866
 1461SOL     OW 4671   0.459   4.876   0.741
 1461SOL    HW1 4672   0.388   4.849   0.806
 1461SOL    HW2 4673   0.433   4.848   0.648
 1462SOL     OW 4674   1.271   5.521   0.591
 1462SOL    HW1 4675   1.315   5.585   0.527
 1462SOL    HW2 4676   1.221   5.573   0.661
 1463SOL     OW 4677   1.032   4.273   0.016
 1463SOL    HW1 4678   0.991   4.355  -0.023
 1463SOL    HW2 4679   1.096   4.299   0.089
 1464SOL     OW 4680   0.078   4.280   1.386
 1464SOL    HW1 4681   0.170   4.279   1.345
 1464SOL    HW2 4682   0.072   4.354   1.453
 1465SOL     OW 4683   0.561   3.946   1.147
 1465SOL    HW1 4684   0.599   3.862   1.184
 1465SOL    HW2 4685   0.473   3.965   1.191
 1466SOL     OW 4686   0.866   4.178   0.642
 1466SOL    HW1 4687   0.834   4.250   0.580
 1466SOL    HW2 4688   0.890   4.097   0.589
 1467SOL     OW 4689   1.017   3.763   0.753
 1467SOL    HW1 4690   0.945   3.768   0.684
 1467SOL    HW2 4691   0.993   3.694   0.822
 1468SOL     OW 4692   1.429   4.897   0.867
 1468SOL    HW1 4693   1.374   4.813   0.860
 1468SOL    HW2 4694   1.455   4.926   0.775
 1469SOL     OW 4695   1.466   4.314   0.992
 1469SOL    HW1 4696   1.436   4.219   0.999
 1469SOL    HW2 4697   1.539   4.330   1.058
 1470SOL     OW 4698   1.857   4.557   0.377
 1470SOL    HW1 4699   1.899   4.493   0.441
 1470SOL    HW2 4700   1.819   4.506   0.299
 1471SOL     OW 4701   0.488   5.109   0.174
 1471SOL    HW1 4702   0.401   5.094   0.221
 1471SOL    HW2 4703   0.471   5.135   0.079
 1472SOL     OW 4704   1.664   5.004   0.657
 1472SOL    HW1 4705   1.763   5.012   0.671
 1472SOL    HW2 4706   1.619   5.088   0.688
 1473SOL     OW 4707   1.390   4.299   0.078
 1473SOL    HW1 4708   1.336   4.278   0.159
 1473SOL    HW2 4709   1.481   4.258   0.087
 1474SOL     OW 4710   0.527   3.980   0.328
 1474SOL    HW1 4711   0.554   3.921   0.253
 1474SOL    HW2 4712   0.527   4.075   0.297
 1475SOL     OW 4713   1.754   4.947   1.588
 1475SOL    HW1 4714   1.845   4.908   1.575
 1475SOL    HW2 4715   1.762   5.043   1.612
 1476SOL     OW 4716   1.064   5.071   1.340
 1476SOL    HW1 4717   0.984   5.048   1.395
 1476SOL    HW2 4718   1.147   5.045   1.389
 1477SOL     OW 4719   1.592   5.353   1.625
 1477SOL    HW1 4720   1.619   5.387   1.535
 1477SOL    HW2 4721   1.671   5.315   1.671
 1478SOL     OW 4722   1.111   4.919   1.100
 1478SOL    HW1 4723   1.071   4.963   1.181
 1478SOL    HW2 4724   1.070   4.956   1.017
 1479SOL     OW 4725   1.638   4.823   1.079
 1479SOL    HW1 4726   1.643   4.904   1.138
 1479SOL    HW2 4727   1.552   4.825   1.028
 1480SOL     OW 4728   0.915   3.813   1.402
 1480SOL    HW1 4729   0.940   3.793   1.307
 1480SOL    HW2 4730   0.987   3.869   1.444
 1481SOL     OW 4731   0.980   4.840   1.719
 1481SOL    HW1 4732   0.881   4.846   1.729
 1481SOL    HW2 4733   1.003   4.760   1.663
 1482SOL     OW 4734   0.705   4.774   0.368
 1482SOL    HW1 4735   0.691   4.781   0.467
 1482SOL    HW2 4736   0.789   4.723   0.350
 1483SOL     OW 4737   0.410   4.537   1.251
 1483SOL    HW1 4738   0.496   4.549   1.301
 1483SOL    HW2 4739   0.368   4.450   1.278
 1484SOL     OW 4740   1.274   4.110   1.262
 1484SOL    HW1 4741   1.295   4.184   1.326
 1484SOL    HW2 4742   1.185   4.127   1.219
 1485SOL     OW 4743   0.064   5.288   1.331
 1485SOL    HW1 4744   0.018   5.370   1.297
 1485SOL    HW2 4745   0.162   5.307   1.340
 1486SOL     OW 4746   0.367   4.824   0.501
 1486SOL    HW1 4747   0.360   4.907   0.445
 1486SOL    HW2 4748   0.371   4.744   0.441
 1487SOL     OW 4749   0.566   4.261   0.865
 1487SOL    HW1 4750   0.578   4.327   0.791
 1487SOL    HW2 4751   0.612   4.295   0.948
 1488SOL     OW 4752   1.252   5.072   0.388
 1488SOL    HW1 4753   1.302   5.149   0.428
 1488SOL    HW2 4754   1.157   5.074   0.420
 1489SOL     OW 4755   1.272   5.169   1.142
 1489SOL    HW1 4756   1.319   5.182   1.229
 1489SOL    HW2 4757   1.206   5.095   1.151
 1490SOL     OW 4758   1.582   4.363   0.472
 1490SOL    HW1 4759   1.551   4.424   0.545
 1490SOL    HW2 4760   1.632   4.415   0.403
 1491SOL     OW 4761   0.354   5.234   1.329
 1491SOL    HW1 4762   0.333   5.190   1.242
 1491SOL    HW2 4763   0.451   5.260   1.332
 1492SOL     OW 4764   0.402   4.475   1.598
 1492SOL    HW1 4765   0.470   4.530   1.551
 1492SOL    HW2 4766   0.442   4.387   1.625
 1493SOL     OW 4767   1.587   4.503   1.670
 1493SOL    HW1 4768   1.495   4.541   1.665
 1493SOL    HW2 4769   1.647   4.550   1.605
 1494SOL     OW 4770   1.013   3.829   1.770
 1494SOL    HW1 4771   1.019   3.914   1.718
 1494SOL    HW2 4772   1.045   3.753   1.713
 1495SOL     OW 4773   0.504   3.774   1.740
 1495SOL    HW1 4774   0.462   3.717   1.670
 1495SOL    HW2 4775   0.438   3.843   1.772
 1496SOL     OW 4776   0.573   4.594   1.029
 1496SOL    HW1 4777   0.617   4.683   1.020
 1496SOL    HW2 4778   0.510   4.594   1.106
 1497SOL     OW 4779   1.360   4.586   1.045
 1497SOL    HW1 4780   1.285   4.586   0.979
 1497SOL    HW2 4781   1.397   4.494   1.054
 1498SOL     OW 4782   1.209   4.249   0.275
 1498SOL    HW1 4783   1.222   4.165   0.329
 1498SOL    HW2 4784   1.180   4.323   0.335
 1499SOL     OW 4785   0.307   3.937   1.231
 1499SOL    HW1 4786   0.284   3.974   1.321
 1499SOL    HW2 4787   0.277   3.842   1.225
 1500SOL     OW 4788   0.037   5.034   1.282
 1500SOL    HW1 4789   0.090   4.985   1.350
 1500SOL    HW2 4790   0.059   5.132   1.287
 1501SOL     OW 4791   0.732   4.358   1.064
 1501SOL    HW1 4792   0.791   4.332   0.988
 1501SOL    HW2 4793   0.704   4.454   1.053
 1502SOL     OW 4794   1.728   4.659   1.854
 1502SOL    HW1 4795   1.682   4.652   1.765
 1502SOL    HW2 4796   1.666   4.703   1.920
 1503SOL     OW 4797   0.307   3.787   0.618
 1503SOL    HW1 4798   0.296   3.881   0.651
 1503SOL    HW2 4799   0.302   3.724   0.695
 1504SOL     OW 4800   1.622   4.091   0.374
 1504SOL    HW1 4801   1.624   4.015   0.438
 1504SOL    HW2 4802   1.574   4.168   0.414
 1505SOL     OW 4803   1.023   4.490   0.966
 1505SOL    HW1 4804   1.038   4.511   1.062
 1505SOL    HW2 4805   0.993   4.395   0.957
 1506SOL     OW 4806   0.980   5.297   1.700
 1506SOL    HW1 4807   0.960   5.341   1.612
 1506SOL    HW2 4808   1.019   5.206   1.684
 1507SOL     OW 4809   1.859   5.242   1.605
 1507SOL    HW1 4810   1.873   5.269   1.510
 1507SOL    HW2 4811   1.942   5.264   1.658
 1508SOL     OW 4812   0.350   4.622   1.804
 1508SOL    HW1 4813   0.426   4.666   1.852
 1508SOL    HW2 4814   0.385   4.575   1.722
 1509SOL     OW 4815   1.540   3.998   0.125
 1509SOL    HW1 4816   1.479   3.923   0.148
 1509SOL    HW2 4817   1.562   4.050   0.208
 1510SOL     OW 4818   1.303   4.562   0.042
 1510SOL    HW1 4819   1.337   4.469   0.057
 1510SOL    HW2 4820   1.321   4.589  -0.053
 1511SOL     OW 4821   1.068   5.057   0.849
 1511SOL    HW1 4822   1.075   4.973   0.794
 1511SOL    HW2 4823   1.130   5.126   0.813
 1512SOL     OW 4824   0.319   4.534   0.949
 1512SOL    HW1 4825   0.412   4.570   0.954
 1512SOL    HW2 4826   0.313   4.449   1.001
 1513SOL     OW 4827   0.339   4.233   1.006
 1513SOL    HW1 4828   0.287   4.150   0.989
 1513SOL    HW2 4829   0.416   4.238   0.942
 1514SOL     OW 4830   1.138   4.104   1.678
 1514SOL    HW1 4831   1.093   4.167   1.742
 1514SOL    HW2 4832   1.231   4.135   1.661
 1515SOL     OW 4833   1.160   3.931   1.477
 1515SOL    HW1 4834   1.160   3.995   1.554
 1515SOL    HW2 4835   1.188   3.979   1.394
 1516SOL     OW 4836   0.008   5.050   0.200
 1516SOL    HW1 4837  -0.085   5.071   0.169
 1516SOL    HW2 4838   0.018   4.951   0.213
 1517SOL     OW 4839   0.088   5.525   0.927
 1517SOL    HW1 4840   0.046   5.439   0.900
 1517SOL    HW2 4841   0.182   5.528   0.893
 1518SOL     OW 4842   0.504   5.292   0.910
 1518SOL    HW1 4843   0.570   5.366   0.919
 1518SOL    HW2 4844   0.548   5.213   0.868
 1519SOL     OW 4845   1.002   4.520   1.238
 1519SOL    HW1 4846   1.043   4.488   1.324
 1519SOL    HW2 4847   0.906   4.493   1.235
 1520SOL     OW 4848   0.040   4.268   1.114
 1520SOL    HW1 4849   0.125   4.235   1.073
 1520SOL    HW2 4850   0.053   4.283   1.212
 1521SOL     OW 4851   0.189   4.244   1.722
 1521SOL    HW1 4852   0.248   4.204   1.652
 1521SOL    HW2 4853   0.131   4.315   1.681
 1522SOL     OW 4854   1.369   4.674   1.660
 1522SOL    HW1 4855   1.408   4.763   1.680
 1522SOL    HW2 4856   1.379   4.654   1.563
 1523SOL     OW 4857   0.815   4.296   0.325
 1523SOL    HW1 4858   0.822   4.207   0.279
 1523SOL    HW2 4859   0.721   4.330   0.317
 1524SOL     OW 4860   1.657   4.328   1.206
 1524SOL    HW1 4861   1.619   4.259   1.268
 1524SOL    HW2 4862   1.739   4.292   1.162
 1525SOL     OW 4863   0.252   5.288   1.744
 1525SOL    HW1 4864   0.222   5.345   1.820
 1525SOL    HW2 4865   0.245   5.191   1.770
 1526SOL     OW 4866   0.671   4.188   1.269
 1526SOL    HW1 4867   0.637   4.099   1.239
 1526SOL    HW2 4868   0.697   4.242   1.189
 1527SOL     OW 4869   0.930   5.402   1.465
 1527SOL    HW1 4870   0.906   5.384   1.370
 1527SOL    HW2 4871   0.960   5.496   1.475
 1528SOL     OW 4872   0.473   4.224   0.191
 1528SOL    HW1 4873   0.534   4.304   0.195
 1528SOL    HW2 4874   0.378   4.255   0.198
 1529SOL     OW 4875   0.159   4.861   1.466
 1529SOL    HW1 4876   0.181   4.800   1.542
 1529SOL    HW2 4877   0.169   4.812   1.380
 1530SOL     OW 4878   1.347   4.783   1.234
 1530SOL    HW1 4879   1.371   4.720   1.160
 1530SOL    HW2 4880   1.257   4.823   1.216
 1531SOL     OW 4881   1.302   4.579   0.309
 1531SOL    HW1 4882   1.216   4.548   0.351
 1531SOL    HW2 4883   1.298   4.565   0.210
 1532SOL     OW 4884   1.759   5.471   1.154
 1532SOL    HW1 4885   1.820   5.501   1.081
 1532SOL    HW2 4886   1.721   5.382   1.132
 1533SOL     OW 4887   1.252   5.455   1.128
 1533SOL    HW1 4888   1.336   5.460   1.074
 1533SOL    HW2 4889   1.229   5.359   1.146
 1534SOL     OW 4890   0.083   4.982   1.022
 1534SOL    HW1 4891   0.078   4.981   1.122
 1534SOL    HW2 4892   0.000   4.941   0.984
 1535SOL     OW 4893   0.688   5.386   1.716
 1535SOL    HW1 4894   0.632   5.467   1.725
 1535SOL    HW2 4895   0.740   5.390   1.630
 1536SOL     OW 4896   0.903   3.810   0.133
 1536SOL    HW1 4897   0.954   3.811   0.047
 1536SOL    HW2 4898   0.959   3.768   0.204
 1537SOL     OW 4899   1.726   3.859   0.523
 1537SOL    HW1 4900   1.799   3.842   0.456
 1537SOL    HW2 4901   1.695   3.772   0.561
 1538SOL     OW 4902   1.388   5.297   0.477
 1538SOL    HW1 4903   1.455   5.309   0.403
 1538SOL    HW2 4904   1.348   5.386   0.500
 1539SOL     OW 4905   0.130   5.518   1.851
 1539SOL    HW1 4906   0.089   5.444   1.904
 1539SOL    HW2 4907   0.194   5.569   1.909
 1540SOL     OW 4908   1.280   4.651   0.672
 1540SOL    HW1 4909   1.340   4.570   0.674
 1540SOL    HW2 4910   1.320   4.720   0.612
 1541SOL     OW 4911   0.830   4.997   1.422
 1541SOL    HW1 4912   0.825   5.030   1.517
 1541SOL    HW2 4913   0.744   5.016   1.376
 1542SOL     OW 4914   0.672   5.340   0.154
 1542SOL    HW1 4915   0.681   5.350   0.055
 1542SOL    HW2 4916   0.632   5.251   0.175
 1543SOL     OW 4917   1.650   5.444   1.394
 1543SOL    HW1 4918   1.703   5.454   1.310
 1543SOL    HW2 4919   1.623   5.534   1.428
 1544SOL     OW 4920   1.841   3.899   0.963
 1544SOL    HW1 4921   1.880   3.814   0.927
 1544SOL    HW2 4922   1.743   3.901   0.944
 1545SOL     OW 4923   0.263   4.050   0.720
 1545SOL    HW1 4924   0.184   4.101   0.686
 1545SOL    HW2 4925   0.254   4.035   0.818
 1546SOL     OW 4926   1.194   5.336   0.031
 1546SOL    HW1 4927   1.200   5.243   0.068
 1546SOL    HW2 4928   1.135   5.336  -0.049
 1547SOL     OW 4929   0.822   4.726   1.372
 1547SOL    HW1 4930   0.862   4.725   1.280
 1547SOL    HW2 4931   0.832   4.818   1.412
 1548SOL     OW 4932   0.916   4.634   0.291
 1548SOL    HW1 4933   0.979   4.672   0.223
 1548SOL    HW2 4934   0.956   4.551   0.330
 1549SOL     OW 4935   1.504   5.331   0.044
 1549SOL    HW1 4936   1.412   5.368   0.051
 1549SOL    HW2 4937   1.542   5.351  -0.046
 1550SOL     OW 4938   0.372   5.012   1.490
 1550SOL    HW1 4939   0.359   5.105   1.456
 1550SOL    HW2 4940   0.288   4.960   1.477
 1551SOL     OW 4941   1.614   5.016   1.289
 1551SOL    HW1 4942   1.674   5.019   1.369
 1551SOL    HW2 4943   1.539   5.080   1.302
 1552SOL     OW 4944   1.039   4.822   0.696
 1552SOL    HW1 4945   0.969   4.775   0.750
 1552SOL    HW2 4946   1.098   4.754   0.653
 1553SOL     OW 4947   1.014   3.960   0.971
 1553SOL    HW1 4948   1.006   3.924   0.878
 1553SOL    HW2 4949   1.012   3.884   1.036
 1554SOL     OW 4950   0.590   5.211   0.491
 1554SOL    HW1 4951   0.632   5.153   0.421
 1554SOL    HW2 4952   0.546   5.290   0.447
 1555SOL     OW 4953   1.709   4.109   1.381
 1555SOL    HW1 4954   1.782   4.178   1.385
 1555SOL    HW2 4955   1.737   4.034   1.322
 1556SOL     OW 4956   0.255   5.072   0.290
 1556SOL    HW1 4957   0.159   5.073   0.263
 1556SOL    HW2 4958   0.267   5.125   0.374
 1557SOL     OW 4959   0.105   4.737   1.726
 1557SOL    HW1 4960   0.028   4.704   1.780
 1557SOL    HW2 4961   0.190   4.707   1.768
 1558SOL     OW 4962   0.672   3.927   1.489
 1558SOL    HW1 4963   0.762   3.911   1.449
 1558SOL    HW2 4964   0.680   3.932   1.588
 1559SOL     OW 4965   0.075   4.069   0.033
 1559SOL    HW1 4966  -0.017   4.041   0.004
 1559SOL    HW2 4967   0.106   4.146  -0.023
 1560SOL     OW 4968   1.440   4.580   1.398
 1560SOL    HW1 4969   1.383   4.632   1.335
 1560SOL    HW2 4970   1.536   4.592   1.374
 1561SOL     OW 4971   0.072   3.890   0.318
 1561SOL    HW1 4972   0.055   3.973   0.264
 1561SOL    HW2 4973   0.162   3.853   0.296
 1562SOL     OW 4974   1.183   5.059   0.119
 1562SOL    HW1 4975   1.084   5.048   0.121
 1562SOL    HW2 4976   1.217   5.074   0.212
 1563SOL     OW 4977   0.613   4.566   1.431
 1563SOL    HW1 4978   0.669   4.647   1.414
 1563SOL    HW2 4979   0.672   4.486   1.434
 1564SOL     OW 4980   1.493   5.491   0.959
 1564SOL    HW1 4981   1.526   5.555   0.890
 1564SOL    HW2 4982   1.559   5.485   1.034
 1565SOL     OW 4983   0.716   4.289   1.708
 1565SOL    HW1 4984   0.735   4.354   1.782
 1565SOL    HW2 4985   0.776   4.209   1.717
 1566SOL     OW 4986   1.450   4.944   1.633
 1566SOL    HW1 4987   1.441   4.934   1.732
 1566SOL    HW2 4988   1.546   4.937   1.607
 1567SOL     OW 4989   0.390   5.465   1.560
 1567SOL    HW1 4990   0.299   5.506   1.558
 1567SOL    HW2 4991   0.383   5.371   1.592
 1568SOL     OW 4992   1.674   4.607   1.254
 1568SOL    HW1 4993   1.647   4.518   1.217
 1568SOL    HW2 4994   1.675   4.675   1.181
 1569SOL     OW 4995   1.225   4.049   0.449
 1569SOL    HW1 4996   1.290   3.975   0.438
 1569SOL    HW2 4997   1.245   4.099   0.533
 1570SOL     OW 4998   0.594   4.469   0.652
 1570SOL    HW1 4999   0.644   4.554   0.633
 1570SOL    HW2 5000   0.506   4.471   0.604
 1571SOL     OW 5001   1.777   4.066   1.642
 1571SOL    HW1 5002   1.760   4.097   1.548
 1571SOL    HW2 5003   1.693   4.029   1.680
 1572SOL     OW 5004   1.730   4.658   1.517
 1572SOL    HW1 5005   1.768   4.749   1.532
 1572SOL    HW2 5006   1.722   4.641   1.418
 1573SOL     OW 5007   0.859   5.098   0.016
 1573SOL    HW1 5008   0.813   5.113   0.104
 1573SOL    HW2 5009   0.903   5.183  -0.014
 1574SOL     OW 5010   0.661   5.514   0.953
 1574SOL    HW1 5011   0.615   5.602   0.940
 1574SOL    HW2 5012   0.760   5.526   0.946
 1575SOL     OW 5013   0.859   4.680   0.861
 1575SOL    HW1 5014   0.913   4.611   0.909
 1575SOL    HW2 5015   0.827   4.749   0.927
 1576SOL     OW 5016   1.083   4.708   0.087
 1576SOL    HW1 5017   1.060   4.761   0.005
 1576SOL    HW2 5018   1.164   4.652   0.068
 1577SOL     OW 5019   1.861   5.293   0.851
 1577SOL    HW1 5020   1.790   5.281   0.781
 1577SOL    HW2 5021   1.862   5.214   0.911
 1578SOL     OW 5022   0.221   5.038   1.844
 1578SOL    HW1 5023   0.156   4.965   1.823
 1578SOL    HW2 5024   0.225   5.052   1.942
 1579SOL     OW 5025   0.079   4.964   0.653
 1579SOL    HW1 5026   0.078   4.917   0.741
 1579SOL    HW2 5027   0.161   4.936   0.602
 1580SOL     OW 5028   0.672   5.115   1.624
 1580SOL    HW1 5029   0.594   5.065   1.662
 1580SOL    HW2 5030   0.669   5.210   1.655
 1581SOL     OW 5031   1.824   3.916   1.227
 1581SOL    HW1 5032   1.820   3.826   1.271
 1581SOL    HW2 5033   1.827   3.905   1.128
 1582SOL     OW 5034   0.428   4.148   0.520
 1582SOL    HW1 5035   0.458   4.076   0.458
 1582SOL    HW2 5036   0.389   4.108   0.603
 1583SOL     OW 5037   1.705   5.211   1.104
 1583SOL    HW1 5038   1.612   5.186   1.077
 1583SOL    HW2 5039   1.731   5.161   1.186
 1584SOL     OW 5040   0.317   4.271   1.280
 1584SOL    HW1 5041   0.355   4.212   1.352
 1584SOL    HW2 5042   0.357   4.245   1.192
 1585SOL     OW 5043   0.812   5.310   0.687
 1585SOL    HW1 5044   0.844   5.320   0.593
 1585SOL    HW2 5045   0.733   5.248   0.689
 1586SOL     OW 5046   1.424   3.938   1.112
 1586SOL    HW1 5047   1.476   3.873   1.167
 1586SOL    HW2 5048   1.375   4.001   1.173
 1587SOL     OW 5049   1.001   3.758   1.154
 1587SOL    HW1 5050   0.938   3.686   1.123
 1587SOL    HW2 5051   1.094   3.722   1.154
 1588SOL     OW 5052   0.770   5.054   0.301
 1588SOL    HW1 5053   0.724   4.967   0.318
 1588SOL    HW2 5054   0.861   5.051   0.342
 1589SOL     OW 5055   0.618   5.291   1.284
 1589SOL    HW1 5056   0.613   5.373   1.341
 1589SOL    HW2 5057   0.707   5.288   1.239
 1590SOL     OW 5058   1.352   3.776   0.168
 1590SOL    HW1 5059   1.387   3.735   0.084
 1590SOL    HW2 5060   1.262   3.738   0.188
 1591SOL     OW 5061   1.300   4.177   0.691
 1591SOL    HW1 5062   1.241   4.257   0.695
 1591SOL    HW2 5063   1.315   4.142   0.784
 1592SOL     OW 5064   1.593   3.945   0.882
 1592SOL    HW1 5065   1.509   3.944   0.936
 1592SOL    HW2 5066   1.595   4.028   0.826
 1593SOL     OW 5067   0.039   4.801   0.300
 1593SOL    HW1 5068   0.138   4.790   0.291
 1593SOL    HW2 5069  -0.001   4.715   0.332
 1594SOL     OW 5070   0.875   5.370   0.337
 1594SOL    HW1 5071   0.798   5.335   0.283
 1594SOL    HW2 5072   0.843   5.441   0.399
 1595SOL     OW 5073   0.230   4.352   1.975
 1595SOL    HW1 5074   0.137   4.350   2.012
 1595SOL    HW2 5075   0.231   4.313   1.883
 1596SOL     OW 5076   0.225   3.999   2.858
 1596SOL    HW1 5077   0.260   3.982   2.950
 1596SOL    HW2 5078   0.137   3.954   2.846
 1597SOL     OW 5079   0.019   4.092   2.509
 1597SOL    HW1 5080  -0.063   4.135   2.548
 1597SOL    HW2 5081  -0.009   4.019   2.446
 1598SOL     OW 5082   0.569   4.999   3.027
 1598SOL    HW1 5083   0.476   4.992   2.990
 1598SOL    HW2 5084   0.580   5.088   3.071
 1599SOL     OW 5085   1.555   5.235   2.565
 1599SOL    HW1 5086   1.498   5.219   2.646
 1599SOL    HW2 5087   1.496   5.245   2.485
 1600SOL     OW 5088   1.135   4.427   2.579
 1600SOL    HW1 5089   1.192   4.505   2.554
 1600SOL    HW2 5090   1.075   4.453   2.655
 1601SOL     OW 5091   1.755   4.331   2.093
 1601SOL    HW1 5092   1.743   4.318   1.994
 1601SOL    HW2 5093   1.725   4.250   2.142
 1602SOL     OW 5094   0.768   4.868   2.885
 1602SOL    HW1 5095   0.690   4.885   2.945
 1602SOL    HW2 5096   0.802   4.955   2.849
 1603SOL     OW 5097   0.850   4.522   3.685
 1603SOL    HW1 5098   0.846   4.598   3.750
 1603SOL    HW2 5099   0.872   4.558   3.594
 1604SOL     OW 5100   0.685   4.736   2.527
 1604SOL    HW1 5101   0.754   4.720   2.597
 1604SOL    HW2 5102   0.612   4.793   2.565
 1605SOL     OW 5103   0.686   4.885   3.665
 1605SOL    HW1 5104   0.746   4.964   3.679
 1605SOL    HW2 5105   0.600   4.916   3.624
 1606SOL     OW 5106   0.335   5.159   2.923
 1606SOL    HW1 5107   0.257   5.128   2.870
 1606SOL    HW2 5108   0.393   5.217   2.866
 1607SOL     OW 5109   1.460   5.229   3.201
 1607SOL    HW1 5110   1.484   5.323   3.227
 1607SOL    HW2 5111   1.444   5.175   3.283
 1608SOL     OW 5112   0.438   4.116   3.361
 1608SOL    HW1 5113   0.520   4.060   3.370
 1608SOL    HW2 5114   0.357   4.058   3.365
 1609SOL     OW 5115   1.603   4.171   2.599
 1609SOL    HW1 5116   1.529   4.217   2.549
 1609SOL    HW2 5117   1.654   4.239   2.652
 1610SOL     OW 5118   0.231   5.437   2.345
 1610SOL    HW1 5119   0.265   5.514   2.399
 1610SOL    HW2 5120   0.275   5.437   2.255
 1611SOL     OW 5121   1.127   5.065   3.552
 1611SOL    HW1 5122   1.174   5.065   3.640
 1611SOL    HW2 5123   1.079   4.978   3.541
 1612SOL     OW 5124   0.230   5.158   2.400
 1612SOL    HW1 5125   0.204   5.254   2.400
 1612SOL    HW2 5126   0.159   5.104   2.445
 1613SOL     OW 5127   0.240   4.815   2.748
 1613SOL    HW1 5128   0.254   4.731   2.800
 1613SOL    HW2 5129   0.185   4.879   2.803
 1614SOL     OW 5130   0.620   5.510   3.301
 1614SOL    HW1 5131   0.528   5.493   3.336
 1614SOL    HW2 5132   0.648   5.602   3.327
 1615SOL     OW 5133   0.606   4.688   1.985
 1615SOL    HW1 5134   0.613   4.772   1.931
 1615SOL    HW2 5135   0.652   4.701   2.073
 1616SOL     OW 5136   1.594   3.838   3.342
 1616SOL    HW1 5137   1.576   3.905   3.270
 1616SOL    HW2 5138   1.591   3.884   3.431
 1617SOL     OW 5139   0.122   4.367   2.425
 1617SOL    HW1 5140   0.077   4.279   2.442
 1617SOL    HW2 5141   0.121   4.421   2.509
 1618SOL     OW 5142   1.842   5.491   2.221
 1618SOL    HW1 5143   1.896   5.462   2.301
 1618SOL    HW2 5144   1.872   5.581   2.192
 1619SOL     OW 5145   0.027   5.320   1.979
 1619SOL    HW1 5146   0.008   5.224   2.000
 1619SOL    HW2 5147  -0.006   5.378   2.054
 1620SOL     OW 5148   1.689   4.646   2.474
 1620SOL    HW1 5149   1.784   4.617   2.482
 1620SOL    HW2 5150   1.681   4.711   2.399
 1621SOL     OW 5151   1.641   4.832   2.294
 1621SOL    HW1 5152   1.727   4.834   2.242
 1621SOL    HW2 5153   1.655   4.879   2.382
 1622SOL     OW 5154   0.113   4.461   3.459
 1622SOL    HW1 5155   0.201   4.448   3.504
 1622SOL    HW2 5156   0.100   4.558   3.437
 1623SOL     OW 5157   0.613   5.089   2.588
 1623SOL    HW1 5158   0.564   5.002   2.597
 1623SOL    HW2 5159   0.590   5.132   2.501
 1624SOL     OW 5160   1.293   4.952   3.285
 1624SOL    HW1 5161   1.330   4.879   3.227
 1624SOL    HW2 5162   1.345   4.957   3.370
 1625SOL     OW 5163   0.809   3.728   2.364
 1625SOL    HW1 5164   0.849   3.819   2.355
 1625SOL    HW2 5165   0.709   3.736   2.370
 1626SOL     OW 5166   0.197   4.700   3.126
 1626SOL    HW1 5167   0.286   4.655   3.112
 1626SOL    HW2 5168   0.124   4.635   3.107
 1627SOL     OW 5169   1.525   4.723   2.052
 1627SOL    HW1 5170   1.462   4.647   2.065
 1627SOL    HW2 5171   1.573   4.741   2.138
 1628SOL     OW 5172   1.187   5.516   3.478
 1628SOL    HW1 5173   1.211   5.576   3.402
 1628SOL    HW2 5174   1.194   5.421   3.448
 1629SOL     OW 5175   0.317   3.975   3.663
 1629SOL    HW1 5176   0.388   4.046   3.669
 1629SOL    HW2 5177   0.229   4.014   3.691
 1630SOL     OW 5178   1.466   5.141   2.815
 1630SOL    HW1 5179   1.407   5.147   2.895
 1630SOL    HW2 5180   1.451   5.053   2.769
 1631SOL     OW 5181   1.667   5.438   2.434
 1631SOL    HW1 5182   1.626   5.415   2.346
 1631SOL    HW2 5183   1.649   5.364   2.499
 1632SOL     OW 5184   0.598   4.453   2.132
 1632SOL    HW1 5185   0.622   4.522   2.064
 1632SOL    HW2 5186   0.520   4.486   2.186
 1633SOL     OW 5187   1.281   4.069   2.806
 1633SOL    HW1 5188   1.195   4.019   2.793
 1633SOL    HW2 5189   1.343   4.015   2.862
 1634SOL     OW 5190   1.576   5.386   2.169
 1634SOL    HW1 5191   1.665   5.432   2.172
 1634SOL    HW2 5192   1.555   5.362   2.074
 1635SOL     OW 5193   0.807   4.329   3.327
 1635SOL    HW1 5194   0.760   4.326   3.416
 1635SOL    HW2 5195   0.756   4.274   3.261
 1636SOL     OW 5196   1.394   4.193   3.536
 1636SOL    HW1 5197   1.374   4.236   3.624
 1636SOL    HW2 5198   1.472   4.131   3.545
 1637SOL     OW 5199   0.973   4.614   3.434
 1637SOL    HW1 5200   1.019   4.530   3.405
 1637SOL    HW2 5201   0.917   4.648   3.359
 1638SOL     OW 5202   0.991   4.134   3.104
 1638SOL    HW1 5203   0.914   4.168   3.158
 1638SOL    HW2 5204   0.957   4.083   3.025
 1639SOL     OW 5205   1.041   4.425   2.291
 1639SOL    HW1 5206   1.067   4.421   2.387
 1639SOL    HW2 5207   0.956   4.374   2.277
 1640SOL     OW 5208   0.076   4.535   2.651
 1640SOL    HW1 5209   0.175   4.523   2.660
 1640SOL    HW2 5210   0.052   4.630   2.672
 1641SOL     OW 5211   0.130   5.545   3.433
 1641SOL    HW1 5212   0.120   5.530   3.532
 1641SOL    HW2 5213   0.044   5.581   3.397
 1642SOL     OW 5214   0.865   4.072   2.057
 1642SOL    HW1 5215   0.924   4.135   2.008
 1642SOL    HW2 5216   0.884   3.978   2.028
 1643SOL     OW 5217   1.719   4.309   3.693
 1643SOL    HW1 5218   1.693   4.398   3.657
 1643SOL    HW2 5219   1.717   4.241   3.620
 1644SOL     OW 5220   1.362   4.868   2.407
 1644SOL    HW1 5221   1.445   4.839   2.359
 1644SOL    HW2 5222   1.313   4.935   2.351
 1645SOL     OW 5223   0.550   3.920   2.747
 1645SOL    HW1 5224   0.545   3.915   2.847
 1645SOL    HW2 5225   0.552   4.016   2.718
 1646SOL     OW 5226   1.008   5.180   2.339
 1646SOL    HW1 5227   0.962   5.252   2.287
 1646SOL    HW2 5228   1.004   5.200   2.437
 1647SOL     OW 5229   0.351   5.525   2.715
 1647SOL    HW1 5230   0.401   5.439   2.721
 1647SOL    HW2 5231   0.416   5.602   2.712
 1648SOL     OW 5232   1.795   4.790   2.735
 1648SOL    HW1 5233   1.733   4.775   2.659
 1648SOL    HW2 5234   1.743   4.801   2.820
 1649SOL     OW 5235   1.227   5.274   3.368
 1649SOL    HW1 5236   1.233   5.197   3.432
 1649SOL    HW2 5237   1.175   5.248   3.288
 1650SOL     OW 5238   0.321   4.667   2.104
 1650SOL    HW1 5239   0.403   4.706   2.062
 1650SOL    HW2 5240   0.294   4.585   2.055
 1651SOL     OW 5241   1.458   4.459   2.590
 1651SOL    HW1 5242   1.453   4.394   2.665
 1651SOL    HW2 5243   1.538   4.518   2.603
 1652SOL     OW 5244   0.461   4.990   3.589
 1652SOL    HW1 5245   0.411   4.991   3.503
 1652SOL    HW2 5246   0.398   4.972   3.665
 1653SOL     OW 5247   1.111   5.500   2.099
 1653SOL    HW1 5248   1.051   5.438   2.149
 1653SOL    HW2 5249   1.142   5.456   2.014
 1654SOL     OW 5250   0.202   4.009   3.360
 1654SOL    HW1 5251   0.122   4.069   3.347
 1654SOL    HW2 5252   0.192   3.960   3.446
 1655SOL     OW 5253   1.632   5.101   1.943
 1655SOL    HW1 5254   1.600   5.195   1.933
 1655SOL    HW2 5255   1.556   5.038   1.931
 1656SOL     OW 5256   0.464   5.467   2.185
 1656SOL    HW1 5257   0.497   5.506   2.271
 1656SOL    HW2 5258   0.540   5.460   2.120
 1657SOL     OW 5259   1.400   3.831   2.288
 1657SOL    HW1 5260   1.376   3.794   2.198
 1657SOL    HW2 5261   1.499   3.847   2.292
 1658SOL     OW 5262   0.249   5.509   3.103
 1658SOL    HW1 5263   0.306   5.444   3.153
 1658SOL    HW2 5264   0.233   5.476   3.010
 1659SOL     OW 5265   0.940   5.422   2.766
 1659SOL    HW1 5266   1.020   5.365   2.787
 1659SOL    HW2 5267   0.891   5.382   2.689
 1660SOL     OW 5268   0.382   4.424   2.342
 1660SOL    HW1 5269   0.427   4.334   2.339
 1660SOL    HW2 5270   0.288   4.413   2.375
 1661SOL     OW 5271   1.547   3.946   3.591
 1661SOL    HW1 5272   1.542   3.983   3.683
 1661SOL    HW2 5273   1.475   3.877   3.579
 1662SOL     OW 5274   0.614   3.846   1.979
 1662SOL    HW1 5275   0.712   3.824   1.986
 1662SOL    HW2 5276   0.583   3.829   1.886
 1663SOL     OW 5277   0.781   3.988   3.611
 1663SOL    HW1 5278   0.848   3.927   3.654
 1663SOL    HW2 5279   0.708   4.007   3.676
 1664SOL     OW 5280   0.888   5.238   3.057
 1664SOL    HW1 5281   0.865   5.213   2.963
 1664SOL    HW2 5282   0.949   5.169   3.096
 1665SOL     OW 5283   1.351   4.314   3.295
 1665SOL    HW1 5284   1.379   4.271   3.380
 1665SOL    HW2 5285   1.376   4.410   3.296
 1666SOL     OW 5286   0.803   5.126   2.786
 1666SOL    HW1 5287   0.893   5.140   2.744
 1666SOL    HW2 5288   0.732   5.128   2.715
 1667SOL     OW 5289   0.922   4.227   2.761
 1667SOL    HW1 5290   0.897   4.218   2.665
 1667SOL    HW2 5291   0.970   4.145   2.792
 1668SOL     OW 5292   0.539   3.788   2.374
 1668SOL    HW1 5293   0.458   3.789   2.432
 1668SOL    HW2 5294   0.542   3.871   2.319
 1669SOL     OW 5295   1.434   4.912   1.903
 1669SOL    HW1 5296   1.466   4.836   1.960
 1669SOL    HW2 5297   1.342   4.939   1.933
 1670SOL     OW 5298   0.297   3.759   2.033
 1670SOL    HW1 5299   0.346   3.843   2.012
 1670SOL    HW2 5300   0.359   3.694   2.078
 1671SOL     OW 5301   0.935   3.960   2.342
 1671SOL    HW1 5302   0.887   4.001   2.264
 1671SOL    HW2 5303   1.034   3.958   2.323
 1672SOL     OW 5304   1.076   4.407   3.326
 1672SOL    HW1 5305   0.996   4.346   3.329
 1672SOL    HW2 5306   1.157   4.354   3.302
 1673SOL     OW 5307   1.227   5.294   2.655
 1673SOL    HW1 5308   1.248   5.368   2.590
 1673SOL    HW2 5309   1.295   5.294   2.728
 1674SOL     OW 5310   0.459   4.876   2.603
 1674SOL    HW1 5311   0.388   4.849   2.668
 1674SOL    HW2 5312   0.433   4.848   2.510
 1675SOL     OW 5313   1.271   5.521   2.453
 1675SOL    HW1 5314   1.315   5.585   2.389
 1675SOL    HW2 5315   1.221   5.573   2.523
 1676SOL     OW 5316   1.032   4.273   1.878
 1676SOL    HW1 5317   0.991   4.355   1.839
 1676SOL    HW2 5318   1.096   4.299   1.951
 1677SOL     OW 5319   0.078   4.280   3.248
 1677SOL    HW1 5320   0.170   4.279   3.207
 1677SOL    HW2 5321   0.072   4.354   3.315
 1678SOL     OW 5322   0.561   3.946   3.009
 1678SOL    HW1 5323   0.599   3.862   3.046
 1678SOL    HW2 5324   0.473   3.965   3.053
 1679SOL     OW 5325   0.866   4.178   2.504
 1679SOL    HW1 5326   0.834   4.250   2.442
 1679SOL    HW2 5327   0.890   4.097   2.451
 1680SOL     OW 5328   1.017   3.763   2.615
 1680SOL    HW1 5329   0.945   3.768   2.546
 1680SOL    HW2 5330   0.993   3.694   2.684
 1681SOL     OW 5331   1.429   4.897   2.729
 1681SOL    HW1 5332   1.374   4.813   2.722
 1681SOL    HW2 5333   1.455   4.926   2.637
 1682SOL     OW 5334   1.466   4.314   2.854
 1682SOL    HW1 5335   1.436   4.219   2.861
 1682SOL    HW2 5336   1.539   4.330   2.920
 1683SOL     OW 5337   1.857   4.557   2.239
 1683SOL    HW1 5338   1.899   4.493   2.303
 1683SOL    HW2 5339   1.819   4.506   2.161
 1684SOL     OW 5340   0.488   5.109   2.036
 1684SOL    HW1 5341   0.401   5.094   2.083
 1684SOL    HW2 5342   0.471   5.135   1.941
 1685SOL     OW 5343   1.664   5.004   2.519
 1685SOL    HW1 5344   1.763   5.012   2.533
 1685SOL    HW2 5345   1.619   5.088   2.550
 1686SOL     OW 5346   1.390   4.299   1.940
 1686SOL    HW1 5347   1.336   4.278   2.021
 1686SOL    HW2 5348   1.481   4.258   1.949
 1687SOL     OW 5349   0.527   3.980   2.190
 1687SOL    HW1 5350   0.554   3.921   2.115
 1687SOL    HW2 5351   0.527   4.075   2.159
 1688SOL     OW 5352   1.754   4.947   3.450
 1688SOL    HW1 5353   1.845   4.908   3.437
 1688SOL    HW2 5354   1.762   5.043   3.474
 1689SOL     OW 5355   1.064   5.071   3.202
 1689SOL    HW1 5356   0.984   5.048   3.257
 1689SOL    HW2 5357   1.147   5.045   3.251
 1690SOL     OW 5358   1.592   5.353   3.487
 1690SOL    HW1 5359   1.619   5.387   3.397
 1690SOL    HW2 5360   1.671   5.315   3.533
 1691SOL     OW 5361   1.111   4.919   2.962
 1691SOL    HW1 5362   1.071   4.963   3.043
 1691SOL    HW2 5363   1.070   4.956   2.879
 1692SOL     OW 5364   1.638   4.823   2.941
 1692SOL    HW1 5365   1.643   4.904   3.000
 1692SOL    HW2 5366   1.552   4.825   2.890
 1693SOL     OW 5367   0.915   3.813   3.264
 1693SOL    HW1 5368   0.940   3.793   3.169
 1693SOL    HW2 5369   0.987   3.869   3.306
 1694SOL     OW 5370   0.980   4.840   3.581
 1694SOL    HW1 5371   0.881   4.846   3.591
 1694SOL    HW2 5372   1.003   4.760   3.525
 1695SOL     OW 5373   0.705   4.774   2.230
 1695SOL    HW1 5374   0.691   4.781   2.329
 1695SOL    HW2 5375   0.789   4.723   2.212
 1696SOL     OW 5376   0.410   4.537   3.113
 1696SOL    HW1 5377   0.496   4.549   3.163
 1696SOL    HW2 5378   0.368   4.450   3.140
 1697SOL     OW 5379   1.274   4.110   3.124
 1697SOL    HW1 5380   1.295   4.184   3.188
 1697SOL    HW2 5381   1.185   4.127   3.081
 1698SOL     OW 5382   0.064   5.288   3.193
 1698SOL    HW1 5383   0.018   5.370   3.159
 1698SOL    HW2 5384   0.162   5.307   3.202
 1699SOL     OW 5385   0.367   4.824   2.363
 1699SOL    HW1 5386   0.360   4.907   2.307
 1699SOL    HW2 5387   0.371   4.744   2.303
 1700SOL     OW 5388   0.566   4.261   2.727
 1700SOL    HW1 5389   0.578   4.327   2.653
 1700SOL    HW2 5390   0.612   4.295   2.810
 1701SOL     OW 5391   1.252   5.072   2.250
 1701SOL    HW1 5392   1.302   5.149   2.290
 1701SOL    HW2 5393   1.157   5.074   2.282
 1702SOL     OW 5394   1.272   5.169   3.004
 1702SOL    HW1 5395   1.319   5.182   3.091
 1702SOL    HW2 5396   1.206   5.095   3.013
 1703SOL     OW 5397   1.582   4.363   2.334
 1703SOL    HW1 5398   1.551   4.424   2.407
 1703SOL    HW2 5399   1.632   4.415   2.265
 1704SOL     OW 5400   0.354   5.234   3.191
 1704SOL    HW1 5401   0.333   5.190   3.104
 1704SOL    HW2 5402   0.451   5.260   3.194
 1705SOL     OW 5403   0.402   4.475   3.460
 1705SOL    HW1 5404   0.470   4.530   3.413
 1705SOL    HW2 5405   0.442   4.387   3.487
 1706SOL     OW 5406   1.587   4.503   3.532
 1706SOL    HW1 5407   1.495   4.541   3.527
 1706SOL    HW2 5408   1.647   4.550   3.467
 1707SOL     OW 5409   1.013   3.829   3.632
 1707SOL    HW1 5410   1.019   3.914   3.580
 1707SOL    HW2 5411   1.045   3.753   3.575
 1708SOL     OW 5412   0.504   3.774   3.602
 1708SOL    HW1 5413   0.462   3.717   3.532
 1708SOL    HW2 5414   0.438   3.843   3.634
 1709SOL     OW 5415   0.573   4.594   2.891
 1709SOL    HW1 5416   0.617   4.683   2.882
 1709SOL    HW2 5417   0.510   4.594   2.968
 1710SOL     OW 5418   1.360   4.586   2.907
 1710SOL    HW1 5419   1.285   4.586   2.841
 1710SOL    HW2 5420   1.397   4.494   2.916
 1711SOL     OW 5421   1.209   4.249   2.137
 1711SOL    HW1 5422   1.222   4.165   2.191
 1711SOL    HW2 5423   1.180   4.323   2.197
 1712SOL     OW 5424   0.307   3.937   3.093
 1712SOL    HW1 5425   0.284   3.974   3.183
 1712SOL    HW2 5426   0.277   3.842   3.087
 1713SOL     OW 5427   0.037   5.034   3.144
 1713SOL    HW1 5428   0.090   4.985   3.212
 1713SOL    HW2 5429   0.059   5.132   3.149
 1714SOL     OW 5430   0.732   4.358   2.926
 1714SOL    HW1 5431   0.791   4.332   2.850
 1714SOL    HW2 5432   0.704   4.454   2.915
 1715SOL     OW 5433   1.728   4.659   3.716
 1715SOL    HW1 5434   1.682   4.652   3.627
 1715SOL    HW2 5435   1.666   4.703   3.782
 1716SOL     OW 5436   0.307   3.787   2.480
 1716SOL    HW1 5437   0.296   3.881   2.513
 1716SOL    HW2 5438   0.302   3.724   2.557
 1717SOL     OW 5439   1.622   4.091   2.236
 1717SOL    HW1 5440   1.624   4.015   2.300
 1717SOL    HW2 5441   1.574   4.168   2.276
 1718SOL     OW 5442   1.023   4.490   2.828
 1718SOL    HW1 5443   1.038   4.511   2.924
 1718SOL    HW2 5444   0.993   4.395   2.819
 1719SOL     OW 5445   0.980   5.297   3.562
 1719SOL    HW1 5446   0.960   5.341   3.474
 1719SOL    HW2 5447   1.019   5.206   3.546
 1720SOL     OW 5448   1.859   5.242   3.467
 1720SOL    HW1 5449   1.873   5.269   3.372
 1720SOL    HW2 5450   1.942   5.264   3.520
 1721SOL     OW 5451   0.350   4.622   3.666
 1721SOL    HW1 5452   0.426   4.666   3.714
 1721SOL    HW2 5453   0.385   4.575   3.584
 1722SOL     OW 5454   1.540   3.998   1.987
 1722SOL    HW1 5455   1.479   3.923   2.010
 1722SOL    HW2 5456   1.562   4.050   2.070
 1723SOL     OW 5457   1.303   4.562   1.904
 1723SOL    HW1 5458   1.337   4.469   1.919
 1723SOL    HW2 5459   1.321   4.589   1.809
 1724SOL     OW 5460   1.068   5.057   2.711
 1724SOL    HW1 5461   1.075   4.973   2.656
 1724SOL    HW2 5462   1.130   5.126   2.675
 1725SOL     OW 5463   0.319   4.534   2.811
 1725SOL    HW1 5464   0.412   4.570   2.816
 1725SOL    HW2 5465   0.313   4.449   2.863
 1726SOL     OW 5466   0.339   4.233   2.868
 1726SOL    HW1 5467   0.287   4.150   2.851
 1726SOL    HW2 5468   0.416   4.238   2.804
 1727SOL     OW 5469   1.138   4.104   3.540
 1727SOL    HW1 5470   1.093   4.167   3.604
 1727SOL    HW2 5471   1.231   4.135   3.523
 1728SOL     OW 5472   1.160   3.931   3.339
 1728SOL    HW1 5473   1.160   3.995   3.416
 1728SOL    HW2 5474   1.188   3.979   3.256
 1729SOL     OW 5475   0.008   5.050   2.062
 1729SOL    HW1 5476  -0.085   5.071   2.031
 1729SOL    HW2 5477   0.018   4.951   2.075
 1730SOL     OW 5478   0.088   5.525   2.789
 1730SOL    HW1 5479   0.046   5.439   2.762
 1730SOL    HW2 5480   0.182   5.528   2.755
 1731SOL     OW 5481   0.504   5.292   2.772
 1731SOL    HW1 5482   0.570   5.366   2.781
 1731SOL    HW2 5483   0.548   5.213   2.730
 1732SOL     OW 5484   1.002   4.520   3.100
 1732SOL    HW1 5485   1.043   4.488   3.186
 1732SOL    HW2 5486   0.906   4.493   3.097
 1733SOL     OW 5487   0.040   4.268   2.976
 1733SOL    HW1 5488   0.125   4.235   2.935
 1733SOL    HW2 5489   0.053   4.283   3.074
 1734SOL     OW 5490   0.189   4.244   3.584
 1734SOL    HW1 5491   0.248   4.204   3.514
 1734SOL    HW2 5492   0.131   4.315   3.543
 1735SOL     OW 5493   1.369   4.674   3.522
 1735SOL    HW1 5494   1.408   4.763   3.542
 1735SOL    HW2 5495   1.379   4.654   3.425
 1736SOL     OW 5496   0.815   4.296   2.187
 1736SOL    HW1 5497   0.822   4.207   2.141
 1736SOL    HW2 5498   0.721   4.330   2.179
 1737SOL     OW 5499   1.657   4.328   3.068
 1737SOL    HW1 5500   1.619   4.259   3.130
 1737SOL    HW2 5501   1.739   4.292   3.024
 1738SOL     OW 5502   0.252   5.288   3.606
 1738SOL    HW1 5503   0.222   5.345   3.682
 1738SOL    HW2 5504   0.245   5.191   3.632
 1739SOL     OW 5505   0.671   4.188   3.131
 1739SOL    HW1 5506   0.637   4.099   3.101
 1739SOL    HW2 5507   0.697   4.242   3.051
 1740SOL     OW 5508   0.930   5.402   3.327
 1740SOL    HW1 5509   0.906   5.384   3.232
 1740SOL    HW2 5510   0.960   5.496   3.337
 1741SOL     OW 5511   0.473   4.224   2.053
 1741SOL    HW1 5512   0.534   4.304   2.057
 1741SOL    HW2 5513   0.378   4.255   2.060
 1742SOL     OW 5514   0.159   4.861   3.328
 1742SOL    HW1 5515   0.181   4.800   3.404
 1742SOL    HW2 5516   0.169   4.812   3.242
 1743SOL     OW 5517   1.347   4.783   3.096
 1743SOL    HW1 5518   1.371   4.720   3.022
 1743SOL    HW2 5519   1.257   4.823   3.078
 1744SOL     OW 5520   1.302   4.579   2.171
 1744SOL    HW1 5521   1.216   4.548   2.213
 1744SOL    HW2 5522   1.298   4.565   2.072
 1745SOL     OW 5523   1.759   5.471   3.016
 1745SOL    HW1 5524   1.820   5.501   2.943
 1745SOL    HW2 5525   1.721   5.382   2.994
 1746SOL     OW 5526   1.252   5.455   2.990
 1746SOL    HW1 5527   1.336   5.460   2.936
 1746SOL    HW2 5528   1.229   5.359   3.008
 1747SOL     OW 5529   0.083   4.982   2.884
 1747SOL    HW1 5530   0.078   4.981   2.984
 1747SOL    HW2 5531   0.000   4.941   2.846
 1748SOL     OW 5532   0.688   5.386   3.578
 1748SOL    HW1 5533   0.632   5.467   3.587
 1748SOL    HW2 5534   0.740   5.390   3.492
 1749SOL     OW 5535   1.726   3.859   2.385
 1749SOL    HW1 5536   1.799   3.842   2.318
 1749SOL    HW2 5537   1.695   3.772   2.423
 1750SOL     OW 5538   1.388   5.297   2.339
 1750SOL    HW1 5539   1.455   5.309   2.265
 1750SOL    HW2 5540   1.348   5.386   2.362
 1751SOL     OW 5541   0.130   5.518   3.713
 1751SOL    HW1 5542   0.089   5.444   3.766
 1751SOL    HW2 5543   0.194   5.569   3.771
 1752SOL     OW 5544   1.280   4.651   2.534
 1752SOL    HW1 5545   1.340   4.570   2.536
 1752SOL    HW2 5546   1.320   4.720   2.474
 1753SOL     OW 5547   0.830   4.997   3.284
 1753SOL    HW1 5548   0.825   5.030   3.379
 1753SOL    HW2 5549   0.744   5.016   3.238
 1754SOL     OW 5550   0.672   5.340   2.016
 1754SOL    HW1 5551   0.681   5.350   1.917
 1754SOL    HW2 5552   0.632   5.251   2.037
 1755SOL     OW 5553   1.650   5.444   3.256
 1755SOL    HW1 5554   1.703   5.454   3.172
 1755SOL    HW2 5555   1.623   5.534   3.290
 1756SOL     OW 5556   1.841   3.899   2.825
 1756SOL    HW1 5557   1.880   3.814   2.789
 1756SOL    HW2 5558   1.743   3.901   2.806
 1757SOL     OW 5559   0.263   4.050   2.582
 1757SOL    HW1 5560   0.184   4.101   2.548
 1757SOL    HW2 5561   0.254   4.035   2.680
 1758SOL     OW 5562   1.194   5.336   1.893
 1758SOL    HW1 5563   1.200   5.243   1.930
 1758SOL    HW2 5564   1.135   5.336   1.813
 1759SOL     OW 5565   0.822   4.726   3.234
 1759SOL    HW1 5566   0.862   4.725   3.142
 1759SOL    HW2 5567   0.832   4.818   3.274
 1760SOL     OW 5568   0.916   4.634   2.153
 1760SOL    HW1 5569   0.979   4.672   2.085
 1760SOL    HW2 5570   0.956   4.551   2.192
 1761SOL     OW 5571   1.504   5.331   1.906
 1761SOL    HW1 5572   1.412   5.368   1.913
 1761SOL    HW2 5573   1.542   5.351   1.816
 1762SOL     OW 5574   0.372   5.012   3.352
 1762SOL    HW1 5575   0.359   5.105   3.318
 1762SOL    HW2 5576   0.288   4.960   3.339
 1763SOL     OW 5577   1.614   5.016   3.151
 1763SOL    HW1 5578   1.674   5.019   3.231
 1763SOL    HW2 5579   1.539   5.080   3.164
 1764SOL     OW 5580   1.039   4.822   2.558
 1764SOL    HW1 5581   0.969   4.775   2.612
 1764SOL    HW2 5582   1.098   4.754   2.515
 1765SOL     OW 5583   1.014   3.960   2.833
 1765SOL    HW1 5584   1.006   3.924   2.740
 1765SOL    HW2 5585   1.012   3.884   2.898
 1766SOL     OW 5586   0.590   5.211   2.353
 1766SOL    HW1 5587   0.632   5.153   2.283
 1766SOL    HW2 5588   0.546   5.290   2.309
 1767SOL     OW 5589   1.709   4.109   3.243
 1767SOL    HW1 5590   1.782   4.178   3.247
 1767SOL    HW2 5591   1.737   4.034   3.184
 1768SOL     OW 5592   0.255   5.072   2.152
 1768SOL    HW1 5593   0.159   5.073   2.125
 1768SOL    HW2 5594   0.267   5.125   2.236
 1769SOL     OW 5595   0.105   4.737   3.588
 1769SOL    HW1 5596   0.028   4.704   3.642
 1769SOL    HW2 5597   0.190   4.707   3.630
 1770SOL     OW 5598   0.672   3.927   3.351
 1770SOL    HW1 5599   0.762   3.911   3.311
 1770SOL    HW2 5600   0.680   3.932   3.450
 1771SOL     OW 5601   0.075   4.069   1.895
 1771SOL    HW1 5602  -0.017   4.041   1.866
 1771SOL    HW2 5603   0.106   4.146   1.839
 1772SOL     OW 5604   1.440   4.580   3.260
 1772SOL    HW1 5605   1.383   4.632   3.197
 1772SOL    HW2 5606   1.536   4.592   3.236
 1773SOL     OW 5607   0.072   3.890   2.180
 1773SOL    HW1 5608   0.055   3.973   2.126
 1773SOL    HW2 5609   0.162   3.853   2.158
 1774SOL     OW 5610   1.183   5.059   1.981
 1774SOL    HW1 5611   1.084   5.048   1.983
 1774SOL    HW2 5612   1.217   5.074   2.074
 1775SOL     OW 5613   0.613   4.566   3.293
 1775SOL    HW1 5614   0.669   4.647   3.276
 1775SOL    HW2 5615   0.672   4.486   3.296
 1776SOL     OW 5616   1.493   5.491   2.821
 1776SOL    HW1 5617   1.526   5.555   2.752
 1776SOL    HW2 5618   1.559   5.485   2.896
 1777SOL     OW 5619   0.716   4.289   3.570
 1777SOL    HW1 5620   0.735   4.354   3.644
 1777SOL    HW2 5621   0.776   4.209   3.579
 1778SOL     OW 5622   1.450   4.944   3.495
 1778SOL    HW1 5623   1.441   4.934   3.594
 1778SOL    HW2 5624   1.546   4.937   3.469
 1779SOL     OW 5625   0.390   5.465   3.422
 1779SOL    HW1 5626   0.299   5.506   3.420
 1779SOL    HW2 5627   0.383   5.371   3.454
 1780SOL     OW 5628   1.674   4.607   3.116
 1780SOL    HW1 5629   1.647   4.518   3.079
 1780SOL    HW2 5630   1.675   4.675   3.043
 1781SOL     OW 5631   1.225   4.049   2.311
 1781SOL    HW1 5632   1.290   3.975   2.300
 1781SOL    HW2 5633   1.245   4.099   2.395
 1782SOL     OW 5634   0.594   4.469   2.514
 1782SOL    HW1 5635   0.644   4.554   2.495
 1782SOL    HW2 5636   0.506   4.471   2.466
 1783SOL     OW 5637   1.777   4.066   3.504
 1783SOL    HW1 5638   1.760   4.097   3.410
 1783SOL    HW2 5639   1.693   4.029   3.542
 1784SOL     OW 5640   1.730   4.658   3.379
 1784SOL    HW1 5641   1.768   4.749   3.394
 1784SOL    HW2 5642   1.722   4.641   3.280
 1785SOL     OW 5643   0.859   5.098   1.878
 1785SOL    HW1 5644   0.813   5.113   1.966
 1785SOL    HW2 5645   0.903   5.183   1.848
 1786SOL     OW 5646   0.661   5.514   2.815
 1786SOL    HW1 5647   0.615   5.602   2.802
 1786SOL    HW2 5648   0.760   5.526   2.808
 1787SOL     OW 5649   0.859   4.680   2.723
 1787SOL    HW1 5650   0.913   4.611   2.771
 1787SOL    HW2 5651   0.827   4.749   2.789
 1788SOL     OW 5652   1.083   4.708   1.949
 1788SOL    HW1 5653   1.060   4.761   1.867
 1788SOL    HW2 5654   1.164   4.652   1.930
 1789SOL     OW 5655   1.861   5.293   2.713
 1789SOL    HW1 5656   1.790   5.281   2.643
 1789SOL    HW2 5657   1.862   5.214   2.773
 1790SOL     OW 5658   0.221   5.038   3.706
 1790SOL    HW1 5659   0.156   4.965   3.685
 1790SOL    HW2 5660   0.225   5.052   3.804
 1791SOL     OW 5661   0.079   4.964   2.515
 1791SOL    HW1 5662   0.078   4.917   2.603
 1791SOL    HW2 5663   0.161   4.936   2.464
 1792SOL     OW 5664   0.672   5.115   3.486
 1792SOL    HW1 5665   0.594   5.065   3.524
 1792SOL    HW2 5666   0.669   5.210   3.517
 1793SOL     OW 5667   1.824   3.916   3.089
 1793SOL    HW1 5668   1.820   3.826   3.133
 1793SOL    HW2 5669   1.827   3.905   2.990
 1794SOL     OW 5670   0.428   4.148   2.382
 1794SOL    HW1 5671   0.458   4.076   2.320
 1794SOL    HW2 5672   0.389   4.108   2.465
 1795SOL     OW 5673   1.705   5.211   2.966
 1795SOL    HW1 5674   1.612   5.186   2.939
 1795SOL    HW2 5675   1.731   5.161   3.048
 1796SOL     OW 5676   0.317   4.271   3.142
 1796SOL    HW1 5677   0.355   4.212   3.214
 1796SOL    HW2 5678   0.357   4.245   3.054
 1797SOL     OW 5679   0.812   5.310   2.549
 1797SOL    HW1 5680   0.844   5.320   2.455
 1797SOL    HW2 5681   0.733   5.248   2.551
 1798SOL     OW 5682   1.424   3.938   2.974
 1798SOL    HW1 5683   1.476   3.873   3.029
 1798SOL    HW2 5684   1.375   4.001   3.035
 1799SOL     OW 5685   1.001   3.758   3.016
 1799SOL    HW1 5686   0.938   3.686   2.985
 1799SOL    HW2 5687   1.094   3.722   3.016
 1800SOL     OW 5688   0.770   5.054   2.163
 1800SOL    HW1 5689   0.724   4.967   2.180
 1800SOL    HW2 5690   0.861   5.051   2.204
 1801SOL     OW 5691   0.618   5.291   3.146
 1801SOL    HW1 5692   0.613   5.373   3.203
 1801SOL    HW2 5693   0.707   5.288   3.101
 1802SOL     OW 5694   1.352   3.776   2.030
 1802SOL    HW1 5695   1.387   3.735   1.946
 1802SOL    HW2 5696   1.262   3.738   2.050
 1803SOL     OW 5697   1.300   4.177   2.553
 1803SOL    HW1 5698   1.241   4.257   2.557
 1803SOL    HW2 5699   1.315   4.142   2.646
 1804SOL     OW 5700   1.593   3.945   2.744
 1804SOL    HW1 5701   1.509   3.944   2.798
 1804SOL    HW2 5702   1.595   4.028   2.688
 1805SOL     OW 5703   0.039   4.801   2.162
 1805SOL    HW1 5704   0.138   4.790   2.153
 1805SOL    HW2 5705  -0.001   4.715   2.194
 1806SOL     OW 5706   0.875   5.370   2.199
 1806SOL    HW1 5707   0.798   5.335   2.145
 1806SOL    HW2 5708   0.843   5.441   2.261
 1807SOL     OW 5709   0.230   4.352   3.837
 1807SOL    HW1 5710   0.137   4.350   3.874
 1807SOL    HW2 5711   0.231   4.313   3.745
 1808SOL     OW 5712   0.225   3.999   4.720
 1808SOL    HW1 5713   0.260   3.982   4.812
 1808SOL    HW2 5714   0.137   3.954   4.708
 1809SOL     OW 5715   0.019   4.092   4.371
 1809SOL    HW1 5716  -0.063   4.135   4.410
 1809SOL    HW2 5717  -0.009   4.019   4.308
 1810SOL     OW 5718   0.569   4.999   4.889
 1810SOL    HW1 5719   0.476   4.992   4.852
 1810SOL    HW2 5720   0.580   5.088   4.933
 1811SOL     OW 5721   1.555   5.235   4.427
 1811SOL    HW1 5722   1.498   5.219   4.508
 1811SOL    HW2 5723   1.496   5.245   4.347
 1812SOL     OW 5724   1.135   4.427   4.441
 1812SOL    HW1 5725   1.192   4.505   4.416
 1812SOL    HW2 5726   1.075   4.453   4.517
 1813SOL     OW 5727   1.755   4.331   3.955
 1813SOL    HW1 5728   1.743   4.318   3.856
 1813SOL    HW2 5729   1.725   4.250   4.004
 1814SOL     OW 5730   0.768   4.868   4.747
 1814SOL    HW1 5731   0.690   4.885   4.807
 1814SOL    HW2 5732   0.802   4.955   4.711
 1815SOL     OW 5733   0.850   4.522   5.547
 1815SOL    HW1 5734   0.846   4.598   5.612
 1815SOL    HW2 5735   0.872   4.558   5.456
 1816SOL     OW 5736   0.685   4.736   4.389
 1816SOL    HW1 5737   0.754   4.720   4.459
 1816SOL    HW2 5738   0.612   4.793   4.427
 1817SOL     OW 5739   0.686   4.885   5.527
 1817SOL    HW1 5740   0.746   4.964   5.541
 1817SOL    HW2 5741   0.600   4.916   5.486
 1818SOL     OW 5742   0.335   5.159   4.785
 1818SOL    HW1 5743   0.257   5.128   4.732
 1818SOL    HW2 5744   0.393   5.217   4.728
 1819SOL     OW 5745   1.460   5.229   5.063
 1819SOL    HW1 5746   1.484   5.323   5.089
 1819SOL    HW2 5747   1.444   5.175   5.145
 1820SOL     OW 5748   0.438   4.116   5.223
 1820SOL    HW1 5749   0.520   4.060   5.232
 1820SOL    HW2 5750   0.357   4.058   5.227
 1821SOL     OW 5751   1.603   4.171   4.461
 1821SOL    HW1 5752   1.529   4.217   4.411
 1821SOL    HW2 5753   1.654   4.239   4.514
 1822SOL     OW 5754   0.231   5.437   4.207
 1822SOL    HW1 5755   0.265   5.514   4.261
 1822SOL    HW2 5756   0.275   5.437   4.117
 1823SOL     OW 5757   1.127   5.065   5.414
 1823SOL    HW1 5758   1.174   5.065   5.502
 1823SOL    HW2 5759   1.079   4.978   5.403
 1824SOL     OW 5760   0.230   5.158   4.262
 1824SOL    HW1 5761   0.204   5.254   4.262
 1824SOL    HW2 5762   0.159   5.104   4.307
 1825SOL     OW 5763   0.240   4.815   4.610
 1825SOL    HW1 5764   0.254   4.731   4.662
 1825SOL    HW2 5765   0.185   4.879   4.665
 1826SOL     OW 5766   0.620   5.510   5.163
 1826SOL    HW1 5767   0.528   5.493   5.198
 1826SOL    HW2 5768   0.648   5.602   5.189
 1827SOL     OW 5769   0.606   4.688   3.847
 1827SOL    HW1 5770   0.613   4.772   3.793
 1827SOL    HW2 5771   0.652   4.701   3.935
 1828SOL     OW 5772   1.594   3.838   5.204
 1828SOL    HW1 5773   1.576   3.905   5.132
 1828SOL    HW2 5774   1.591   3.884   5.293
 1829SOL     OW 5775   0.122   4.367   4.287
 1829SOL    HW1 5776   0.077   4.279   4.304
 1829SOL    HW2 5777   0.121   4.421   4.371
 1830SOL     OW 5778   1.842   5.491   4.083
 1830SOL    HW1 5779   1.896   5.462   4.163
 1830SOL    HW2 5780   1.872   5.581   4.054
 1831SOL     OW 5781   0.027   5.320   3.841
 1831SOL    HW1 5782   0.008   5.224   3.862
 1831SOL    HW2 5783  -0.006   5.378   3.916
 1832SOL     OW 5784   1.689   4.646   4.336
 1832SOL    HW1 5785   1.784   4.617   4.344
 1832SOL    HW2 5786   1.681   4.711   4.261
 1833SOL     OW 5787   1.641   4.832   4.156
 1833SOL    HW1 5788   1.727   4.834   4.104
 1833SOL    HW2 5789   1.655   4.879   4.244
 1834SOL     OW 5790   0.113   4.461   5.321
 1834SOL    HW1 5791   0.201   4.448   5.366
 1834SOL    HW2 5792   0.100   4.558   5.299
 1835SOL     OW 5793   0.613   5.089   4.450
 1835SOL    HW1 5794   0.564   5.002   4.459
 1835SOL    HW2 5795   0.590   5.132   4.363
 1836SOL     OW 5796   1.293   4.952   5.147
 1836SOL    HW1 5797   1.330   4.879   5.089
 1836SOL    HW2 5798   1.345   4.957   5.232
 1837SOL     OW 5799   0.809   3.728   4.226
 1837SOL    HW1 5800   0.849   3.819   4.217
 1837SOL    HW2 5801   0.709   3.736   4.232
 1838SOL     OW 5802   0.197   4.700   4.988
 1838SOL    HW1 5803   0.286   4.655   4.974
 1838SOL    HW2 5804   0.124   4.635   4.969
 1839SOL     OW 5805   1.525   4.723   3.914
 1839SOL    HW1 5806   1.462   4.647   3.927
 1839SOL    HW2 5807   1.573   4.741   4.000
 1840SOL     OW 5808   1.187   5.516   5.340
 1840SOL    HW1 5809   1.211   5.576   5.264
 1840SOL    HW2 5810   1.194   5.421   5.310
 1841SOL     OW 5811   0.317   3.975   5.525
 1841SOL    HW1 5812   0.388   4.046   5.531
 1841SOL    HW2 5813   0.229   4.014   5.553
 1842SOL     OW 5814   1.466   5.141   4.677
 1842SOL    HW1 5815   1.407   5.147   4.757
 1842SOL    HW2 5816   1.451   5.053   4.631
 1843SOL     OW 5817   1.667   5.438   4.296
 1843SOL    HW1 5818   1.626   5.415   4.208
 1843SOL    HW2 5819   1.649   5.364   4.361
 1844SOL     OW 5820   0.598   4.453   3.994
 1844SOL    HW1 5821   0.622   4.522   3.926
 1844SOL    HW2 5822   0.520   4.486   4.048
 1845SOL     OW 5823   1.281   4.069   4.668
 1845SOL    HW1 5824   1.195   4.019   4.655
 1845SOL    HW2 5825   1.343   4.015   4.724
 1846SOL     OW 5826   1.576   5.386   4.031
 1846SOL    HW1 5827   1.665   5.432   4.034
 1846SOL    HW2 5828   1.555   5.362   3.936
 1847SOL     OW 5829   0.807   4.329   5.189
 1847SOL    HW1 5830   0.760   4.326   5.278
 1847SOL    HW2 5831   0.756   4.274   5.123
 1848SOL     OW 5832   1.394   4.193   5.398
 1848SOL    HW1 5833   1.374   4.236   5.486
 1848SOL    HW2 5834   1.472   4.131   5.407
 1849SOL     OW 5835   0.973   4.614   5.296
 1849SOL    HW1 5836   1.019   4.530   5.267
 1849SOL    HW2 5837   0.917   4.648   5.221
 1850SOL     OW 5838   0.991   4.134   4.966
 1850SOL    HW1 5839   0.914   4.168   5.020
 1850SOL    HW2 5840   0.957   4.083   4.887
 1851SOL     OW 5841   1.041   4.425   4.153
 1851SOL    HW1 5842   1.067   4.421   4.249
 1851SOL    HW2 5843   0.956   4.374   4.139
 1852SOL     OW 5844   0.076   4.535   4.513
 1852SOL    HW1 5845   0.175   4.523   4.522
 1852SOL    HW2 5846   0.052   4.630   4.534
 1853SOL     OW 5847   0.130   5.545   5.295
 1853SOL    HW1 5848   0.120   5.530   5.394
 1853SOL    HW2 5849   0.044   5.581   5.259
 1854SOL     OW 5850   0.865   4.072   3.919
 1854SOL    HW1 5851   0.924   4.135   3.870
 1854SOL    HW2 5852   0.884   3.978   3.890
 1855SOL     OW 5853   1.719   4.309   5.555
 1855SOL    HW1 5854   1.693   4.398   5.519
 1855SOL    HW2 5855   1.717   4.241   5.482
 1856SOL     OW 5856   1.362   4.868   4.269
 1856SOL    HW1 5857   1.445   4.839   4.221
 1856SOL    HW2 5858   1.313   4.935   4.213
 1857SOL     OW 5859   0.550   3.920   4.609
 1857SOL    HW1 5860   0.545   3.915   4.709
 1857SOL    HW2 5861   0.552   4.016   4.580
 1858SOL     OW 5862   1.008   5.180   4.201
 1858SOL    HW1 5863   0.962   5.252   4.149
 1858SOL    HW2 5864   1.004   5.200   4.299
 1859SOL     OW 5865   0.351   5.525   4.577
 1859SOL    HW1 5866   0.401   5.439   4.583
 1859SOL    HW2 5867   0.416   5.602   4.574
 1860SOL     OW 5868   1.795   4.790   4.597
 1860SOL    HW1 5869   1.733   4.775   4.521
 1860SOL    HW2 5870   1.743   4.801   4.682
 1861SOL     OW 5871   1.227   5.274   5.230
 1861SOL    HW1 5872   1.233   5.197   5.294
 1861SOL    HW2 5873   1.175   5.248   5.150
 1862SOL     OW 5874   0.321   4.667   3.966
 1862SOL    HW1 5875   0.403   4.706   3.924
 1862SOL    HW2 5876   0.294   4.585   3.917
 1863SOL     OW 5877   1.458   4.459   4.452
 1863SOL    HW1 5878   1.453   4.394   4.527
 1863SOL    HW2 5879   1.538   4.518   4.465
 1864SOL     OW 5880   0.461   4.990   5.451
 1864SOL    HW1 5881   0.411   4.991   5.365
 1864SOL    HW2 5882   0.398   4.972   5.527
 1865SOL     OW 5883   1.111   5.500   3.961
 1865SOL    HW1 5884   1.051   5.438   4.011
 1865SOL    HW2 5885   1.142   5.456   3.876
 1866SOL     OW 5886   0.202   4.009   5.222
 1866SOL    HW1 5887   0.122   4.069   5.209
 1866SOL    HW2 5888   0.192   3.960   5.308
 1867SOL     OW 5889   1.632   5.101   3.805
 1867SOL    HW1 5890   1.600   5.195   3.795
 1867SOL    HW2 5891   1.556   5.038   3.793
 1868SOL     OW 5892   0.464   5.467   4.047
 1868SOL    HW1 5893   0.497   5.506   4.133
 1868SOL    HW2 5894   0.540   5.460   3.982
 1869SOL     OW 5895   1.400   3.831   4.150
 1869SOL    HW1 5896   1.376   3.794   4.060
 1869SOL    HW2 5897   1.499   3.847   4.154
 1870SOL     OW 5898   0.249   5.509   4.965
 1870SOL    HW1 5899   0.306   5.444   5.015
 1870SOL    HW2 5900   0.233   5.476   4.872
 1871SOL     OW 5901   0.940   5.422   4.628
 1871SOL    HW1 5902   1.020   5.365   4.649
 1871SOL    HW2 5903   0.891   5.382   4.551
 1872SOL     OW 5904   0.382   4.424   4.204
 1872SOL    HW1 5905   0.427   4.334   4.201
 1872SOL    HW2 5906   0.288   4.413   4.237
 1873SOL     OW 5907   1.547   3.946   5.453
 1873SOL    HW1 5908   1.542   3.983   5.545
 1873SOL    HW2 5909   1.475   3.877   5.441
 1874SOL     OW 5910   0.614   3.846   3.841
 1874SOL    HW1 5911   0.712   3.824   3.848
 1874SOL    HW2 5912   0.583   3.829   3.748
 1875SOL     OW 5913   0.781   3.988   5.473
 1875SOL    HW1 5914   0.848   3.927   5.516
 1875SOL    HW2 5915   0.708   4.007   5.538
 1876SOL     OW 5916   0.888   5.238   4.919
 1876SOL    HW1 5917   0.865   5.213   4.825
 1876SOL    HW2 5918   0.949   5.169   4.958
 1877SOL     OW 5919   1.351   4.314   5.157
 1877SOL    HW1 5920   1.379   4.271   5.242
 1877SOL    HW2 5921   1.376   4.410   5.158
 1878SOL     OW 5922   0.803   5.126   4.648
 1878SOL    HW1 5923   0.893   5.140   4.606
 1878SOL    HW2 5924   0.732   5.128   4.577
 1879SOL     OW 5925   0.922   4.227   4.623
 1879SOL    HW1 5926   0.897   4.218   4.527
 1879SOL    HW2 5927   0.970   4.145   4.654
 1880SOL     OW 5928   0.539   3.788   4.236
 1880SOL    HW1 5929   0.458   3.789   4.294
 1880SOL    HW2 5930   0.542   3.871   4.181
 1881SOL     OW 5931   1.434   4.912   3.765
 1881SOL    HW1 5932   1.466   4.836   3.822
 1881SOL    HW2 5933   1.342   4.939   3.795
 1882SOL     OW 5934   0.297   3.759   3.895
 1882SOL    HW1 5935   0.346   3.843   3.874
 1882SOL    HW2 5936   0.359   3.694   3.940
 1883SOL     OW 5937   0.935   3.960   4.204
 1883SOL    HW1 5938   0.887   4.001   4.126
 1883SOL    HW2 5939   1.034   3.958   4.185
 1884SOL     OW 5940   1.076   4.407   5.188
 1884SOL    HW1 5941   0.996   4.346   5.191
 1884SOL    HW2 5942   1.157   4.354   5.164
 1885SOL     OW 5943   1.227   5.294   4.517
 1885SOL    HW1 5944   1.248   5.368   4.452
 1885SOL    HW2 5945   1.295   5.294   4.590
 1886SOL     OW 5946   0.459   4.876   4.465
 1886SOL    HW1 5947   0.388   4.849   4.530
 1886SOL    HW2 5948   0.433   4.848   4.372
 1887SOL     OW 5949   1.271   5.521   4.315
 1887SOL    HW1 5950   1.315   5.585   4.251
 1887SOL    HW2 5951   1.221   5.573   4.385
 1888SOL     OW 5952   1.032   4.273   3.740
 1888SOL    HW1 5953   0.991   4.355   3.701
 1888SOL    HW2 5954   1.096   4.299   3.813
 1889SOL     OW 5955   0.078   4.280   5.110
 1889SOL    HW1 5956   0.170   4.279   5.069
 1889SOL    HW2 5957   0.072   4.354   5.177
 1890SOL     OW 5958   0.561   3.946   4.871
 1890SOL    HW1 5959   0.599   3.862   4.908
 1890SOL    HW2 5960   0.473   3.965   4.915
 1891SOL     OW 5961   0.866   4.178   4.366
 1891SOL    HW1 5962   0.834   4.250   4.304
 1891SOL    HW2 5963   0.890   4.097   4.313
 1892SOL     OW 5964   1.017   3.763   4.477
 1892SOL    HW1 5965   0.945   3.768   4.408
 1892SOL    HW2 5966   0.993   3.694   4.546
 1893SOL     OW 5967   1.429   4.897   4.591
 1893SOL    HW1 5968   1.374   4.813   4.584
 1893SOL    HW2 5969   1.455   4.926   4.499
 1894SOL     OW 5970   1.466   4.314   4.716
 1894SOL    HW1 5971   1.436   4.219   4.723
 1894SOL    HW2 5972   1.539   4.330   4.782
 1895SOL     OW 5973   1.857   4.557   4.101
 1895SOL    HW1 5974   1.899   4.493   4.165
 1895SOL    HW2 5975   1.819   4.506   4.023
 1896SOL     OW 5976   0.488   5.109   3.898
 1896SOL    HW1 5977   0.401   5.094   3.945
 1896SOL    HW2 5978   0.471   5.135   3.803
 1897SOL     OW 5979   1.664   5.004   4.381
 1897SOL    HW1 5980   1.763   5.012   4.395
 1897SOL    HW2 5981   1.619   5.088   4.412
 1898SOL     OW 5982   1.390   4.299   3.802
 1898SOL    HW1 5983   1.336   4.278   3.883
 1898SOL    HW2 5984   1.481   4.258   3.811
 1899SOL     OW 5985   0.527   3.980   4.052
 1899SOL    HW1 5986   0.554   3.921   3.977
 1899SOL    HW2 5987   0.527   4.075   4.021
 1900SOL     OW 5988   1.754   4.947   5.312
 1900SOL    HW1 5989   1.845   4.908   5.299
 1900SOL    HW2 5990   1.762   5.043   5.336
 1901SOL     OW 5991   1.064   5.071   5.064
 1901SOL    HW1 5992   0.984   5.048   5.119
 1901SOL    HW2 5993   1.147   5.045   5.113
 1902SOL     OW 5994   1.592   5.353   5.349
 1902SOL    HW1 5995   1.619   5.387   5.259
 1902SOL    HW2 5996   1.671   5.315   5.395
 1903SOL     OW 5997   1.111   4.919   4.824
 1903SOL    HW1 5998   1.071   4.963   4.905
 1903SOL    HW2 5999   1.070   4.956   4.741
 1904SOL     OW 6000   1.638   4.823   4.803
 1904SOL    HW1 6001   1.643   4.904   4.862
 1904SOL    HW2 6002   1.552   4.825   4.752
 1905SOL     OW 6003   0.915   3.813   5.126
 1905SOL    HW1 6004   0.940   3.793   5.031
 1905SOL    HW2 6005   0.987   3.869   5.168
 1906SOL     OW 6006   0.980   4.840   5.443
 1906SOL    HW1 6007   0.881   4.846   5.453
 1906SOL    HW2 6008   1.003   4.760   5.387
 1907SOL     OW 6009   0.705   4.774   4.092
 1907SOL    HW1 6010   0.691   4.781   4.191
 1907SOL    HW2 6011   0.789   4.723   4.074
 1908SOL     OW 6012   0.410   4.537   4.975
 1908SOL    HW1 6013   0.496   4.549   5.025
 1908SOL    HW2 6014   0.368   4.450   5.002
 1909SOL     OW 6015   1.274   4.110   4.986
 1909SOL    HW1 6016   1.295   4.184   5.050
 1909SOL    HW2 6017   1.185   4.127   4.943
 1910SOL     OW 6018   0.064   5.288   5.055
 1910SOL    HW1 6019   0.018   5.370   5.021
 1910SOL    HW2 6020   0.162   5.307   5.064
 1911SOL     OW 6021   0.367   4.824   4.225
 1911SOL    HW1 6022   0.360   4.907   4.169
 1911SOL    HW2 6023   0.371   4.744   4.165
 1912SOL     OW 6024   0.566   4.261   4.589
 1912SOL    HW1 6025   0.578   4.327   4.515
 1912SOL    HW2 6026   0.612   4.295   4.672
 1913SOL     OW 6027   1.252   5.072   4.112
 1913SOL    HW1 6028   1.302   5.149   4.152
 1913SOL    HW2 6029   1.157   5.074   4.144
 1914SOL     OW 6030   1.272   5.169   4.866
 1914SOL    HW1 6031   1.319   5.182   4.953
 1914SOL    HW2 6032   1.206   5.095   4.875
 1915SOL     OW 6033   1.582   4.363   4.196
 1915SOL    HW1 6034   1.551   4.424   4.269
 1915SOL    HW2 6035   1.632   4.415   4.127
 1916SOL     OW 6036   0.354   5.234   5.053
 1916SOL    HW1 6037   0.333   5.190   4.966
 1916SOL    HW2 6038   0.451   5.260   5.056
 1917SOL     OW 6039   0.402   4.475   5.322
 1917SOL    HW1 6040   0.470   4.530   5.275
 1917SOL    HW2 6041   0.442   4.387   5.349
 1918SOL     OW 6042   1.587   4.503   5.394
 1918SOL    HW1 6043   1.495   4.541   5.389
 1918SOL    HW2 6044   1.647   4.550   5.329
 1919SOL     OW 6045   1.013   3.829   5.494
 1919SOL    HW1 6046   1.019   3.914   5.442
 1919SOL    HW2 6047   1.045   3.753   5.437
 1920SOL     OW 6048   0.504   3.774   5.464
 1920SOL    HW1 6049   0.462   3.717   5.394
 1920SOL    HW2 6050   0.438   3.843   5.496
 1921SOL     OW 6051   0.573   4.594   4.753
 1921SOL    HW1 6052   0.617   4.683   4.744
 1921SOL    HW2 6053   0.510   4.594   4.830
 1922SOL     OW 6054   1.360   4.586   4.769
 1922SOL    HW1 6055   1.285   4.586   4.703
 1922SOL    HW2 6056   1.397   4.494   4.778
 1923SOL     OW 6057   1.209   4.249   3.999
 1923SOL    HW1 6058   1.222   4.165   4.053
 1923SOL    HW2 6059   1.180   4.323   4.059
 1924SOL     OW 6060   0.307   3.937   4.955
 1924SOL    HW1 6061   0.284   3.974   5.045
 1924SOL    HW2 6062   0.277   3.842   4.949
 1925SOL     OW 6063   0.037   5.034   5.006
 1925SOL    HW1 6064   0.090   4.985   5.074
 1925SOL    HW2 6065   0.059   5.132   5.011
 1926SOL     OW 6066   0.732   4.358   4.788
 1926SOL    HW1 6067   0.791   4.332   4.712
 1926SOL    HW2 6068   0.704   4.454   4.777
 1927SOL     OW 6069   1.728   4.659   5.578
 1927SOL    HW1 6070   1.682   4.652   5.489
 1927SOL    HW2 6071   1.666   4.703   5.644
 1928SOL     OW 6072   0.307   3.787   4.342
 1928SOL    HW1 6073   0.296   3.881   4.375
 1928SOL    HW2 6074   0.302   3.724   4.419
 1929SOL     OW 6075   1.622   4.091   4.098
 1929SOL    HW1 6076   1.624   4.015   4.162
 1929SOL    HW2 6077   1.574   4.168   4.138
 1930SOL     OW 6078   1.023   4.490   4.690
 1930SOL    HW1 6079   1.038   4.511   4.786
 1930SOL    HW2 6080   0.993   4.395   4.681
 1931SOL     OW 6081   0.980   5.297   5.424
 1931SOL    HW1 6082   0.960   5.341   5.336
 1931SOL    HW2 6083   1.019   5.206   5.408
 1932SOL     OW 6084   1.859   5.242   5.329
 1932SOL    HW1 6085   1.873   5.269   5.234
 1932SOL    HW2 6086   1.942   5.264   5.382
 1933SOL     OW 6087   0.350   4.622   5.528
 1933SOL    HW1 6088   0.426   4.666   5.576
 1933SOL    HW2 6089   0.385   4.575   5.446
 1934SOL     OW 6090   1.540   3.998   3.849
 1934SOL    HW1 6091   1.479   3.923   3.872
 1934SOL    HW2 6092   1.562   4.050   3.932
 1935SOL     OW 6093   1.303   4.562   3.766
 1935SOL    HW1 6094   1.337   4.469   3.781
 1935SOL    HW2 6095   1.321   4.589   3.671
 1936SOL     OW 6096   1.068   5.057   4.573
 1936SOL    HW1 6097   1.075   4.973   4.518
 1936SOL    HW2 6098   1.130   5.126   4.537
 1937SOL     OW 6099   0.319   4.534   4.673
 1937SOL    HW1 6100   0.412   4.570   4.678
 1937SOL    HW2 6101   0.313   4.449   4.725
 1938SOL     OW 6102   0.339   4.233   4.730
 1938SOL    HW1 6103   0.287   4.150   4.713
 1938SOL    HW2 6104   0.416   4.238   4.666
 1939SOL     OW 6105   1.138   4.104   5.402
 1939SOL    HW1 6106   1.093   4.167   5.466
 1939SOL    HW2 6107   1.231   4.135   5.385
 1940SOL     OW 6108   1.160   3.931   5.201
 1940SOL    HW1 6109   1.160   3.995   5.278
 1940SOL    HW2 6110   1.188   3.979   5.118
 1941SOL     OW 6111   0.008   5.050   3.924
 1941SOL    HW1 6112  -0.085   5.071   3.893
 1941SOL    HW2 6113   0.018   4.951   3.937
 1942SOL     OW 6114   0.088   5.525   4.651
 1942SOL    HW1 6115   0.046   5.439   4.624
 1942SOL    HW2 6116   0.182   5.528   4.617
 1943SOL     OW 6117   0.504   5.292   4.634
 1943SOL    HW1 6118   0.570   5.366   4.643
 1943SOL    HW2 6119   0.548   5.213   4.592
 1944SOL     OW 6120   1.002   4.520   4.962
 1944SOL    HW1 6121   1.043   4.488   5.048
 1944SOL    HW2 6122   0.906   4.493   4.959
 1945SOL     OW 6123   0.040   4.268   4.838
 1945SOL    HW1 6124   0.125   4.235   4.797
 1945SOL    HW2 6125   0.053   4.283   4.936
 1946SOL     OW 6126   0.189   4.244   5.446
 1946SOL    HW1 6127   0.248   4.204   5.376
 1946SOL    HW2 6128   0.131   4.315   5.405
 1947SOL     OW 6129   1.369   4.674   5.384
 1947SOL    HW1 6130   1.408   4.763   5.404
 1947SOL    HW2 6131   1.379   4.654   5.287
 1948SOL     OW 6132   0.815   4.296   4.049
 1948SOL    HW1 6133   0.822   4.207   4.003
 1948SOL    HW2 6134   0.721   4.330   4.041
 1949SOL     OW 6135   1.657   4.328   4.930
 1949SOL    HW1 6136   1.619   4.259   4.992
 1949SOL    HW2 6137   1.739   4.292   4.886
 1950SOL     OW 6138   0.252   5.288   5.468
 1950SOL    HW1 6139   0.222   5.345   5.544
 1950SOL    HW2 6140   0.245   5.191   5.494
 1951SOL     OW 6141   0.671   4.188   4.993
 1951SOL    HW1 6142   0.637   4.099   4.963
 1951SOL    HW2 6143   0.697   4.242   4.913
 1952SOL     OW 6144   0.930   5.402   5.189
 1952SOL    HW1 6145   0.906   5.384   5.094
 1952SOL    HW2 6146   0.960   5.496   5.199
 1953SOL     OW 6147   0.473   4.224   3.915
 1953SOL    HW1 6148   0.534   4.304   3.919
 1953SOL    HW2 6149   0.378   4.255   3.922
 1954SOL     OW 6150   0.159   4.861   5.190
 1954SOL    HW1 6151   0.181   4.800   5.266
 1954SOL    HW2 6152   0.169   4.812   5.104
 1955SOL     OW 6153   1.347   4.783   4.958
 1955SOL    HW1 6154   1.371   4.720   4.884
 1955SOL    HW2 6155   1.257   4.823   4.940
 1956SOL     OW 6156   1.302   4.579   4.033
 1956SOL    HW1 6157   1.216   4.548   4.075
 1956SOL    HW2 6158   1.298   4.565   3.934
 1957SOL     OW 6159   1.759   5.471   4.878
 1957SOL    HW1 6160   1.820   5.501   4.805
 1957SOL    HW2 6161   1.721   5.382   4.856
 1958SOL     OW 6162   1.252   5.455   4.852
 1958SOL    HW1 6163   1.336   5.460   4.798
 1958SOL    HW2 6164   1.229   5.359   4.870
 1959SOL     OW 6165   0.083   4.982   4.746
 1959SOL    HW1 6166   0.078   4.981   4.846
 1959SOL    HW2 6167   0.000   4.941   4.708
 1960SOL     OW 6168   0.688   5.386   5.440
 1960SOL    HW1 6169   0.632   5.467   5.449
 1960SOL    HW2 6170   0.740   5.390   5.354
 1961SOL     OW 6171   1.726   3.859   4.247
 1961SOL    HW1 6172   1.799   3.842   4.180
 1961SOL    HW2 6173   1.695   3.772   4.285
 1962SOL     OW 6174   1.388   5.297   4.201
 1962SOL    HW1 6175   1.455   5.309   4.127
 1962SOL    HW2 6176   1.348   5.386   4.224
 1963SOL     OW 6177   0.130   5.518   5.575
 1963SOL    HW1 6178   0.089   5.444   5.628
 1963SOL    HW2 6179   0.194   5.569   5.633
 1964SOL     OW 6180   1.280   4.651   4.396
 1964SOL    HW1 6181   1.340   4.570   4.398
 1964SOL    HW2 6182   1.320   4.720   4.336
 1965SOL     OW 6183   0.830   4.997   5.146
 1965SOL    HW1 6184   0.825   5.030   5.241
 1965SOL    HW2 6185   0.744   5.016   5.100
 1966SOL     OW 6186   0.672   5.340   3.878
 1966SOL    HW1 6187   0.681   5.350   3.779
 1966SOL    HW2 6188   0.632   5.251   3.899
 1967SOL     OW 6189   1.650   5.444   5.118
 1967SOL    HW1 6190   1.703   5.454   5.034
 1967SOL    HW2 6191   1.623   5.534   5.152
 1968SOL     OW 6192   1.841   3.899   4.687
 1968SOL    HW1 6193   1.880   3.814   4.651
 1968SOL    HW2 6194   1.743   3.901   4.668
 1969SOL     OW 6195   0.263   4.050   4.444
 1969SOL    HW1 6196   0.184   4.101   4.410
 1969SOL    HW2 6197   0.254   4.035   4.542
 1970SOL     OW 6198   1.194   5.336   3.755
 1970SOL    HW1 6199   1.200   5.243   3.792
 1970SOL    HW2 6200   1.135   5.336   3.675
 1971SOL     OW 6201   0.822   4.726   5.096
 1971SOL    HW1 6202   0.862   4.725   5.004
 1971SOL    HW2 6203   0.832   4.818   5.136
 1972SOL     OW 6204   0.916   4.634   4.015
 1972SOL    HW1 6205   0.979   4.672   3.947
 1972SOL    HW2 6206   0.956   4.551   4.054
 1973SOL     OW 6207   1.504   5.331   3.768
 1973SOL    HW1 6208   1.412   5.368   3.775
 1973SOL    HW2 6209   1.542   5.351   3.678
 1974SOL     OW 6210   0.372   5.012   5.214
 1974SOL    HW1 6211   0.359   5.105   5.180
 1974SOL    HW2 6212   0.288   4.960   5.201
 1975SOL     OW 6213   1.614   5.016   5.013
 1975SOL    HW1 6214   1.674   5.019   5.093
 1975SOL    HW2 6215   1.539   5.080   5.026
 1976SOL     OW 6216   1.039   4.822   4.420
 1976SOL    HW1 6217   0.969   4.775   4.474
 1976SOL    HW2 6218   1.098   4.754   4.377
 1977SOL     OW 6219   1.014   3.960   4.695
 1977SOL    HW1 6220   1.006   3.924   4.602
 1977SOL    HW2 6221   1.012   3.884   4.760
 1978SOL     OW 6222   0.590   5.211   4.215
 1978SOL    HW1 6223   0.632   5.153   4.145
 1978SOL    HW2 6224   0.546   5.290   4.171
 1979SOL     OW 6225   1.709   4.109   5.105
 1979SOL    HW1 6226   1.782   4.178   5.109
 1979SOL    HW2 6227   1.737   4.034   5.046
 1980SOL     OW 6228   0.255   5.072   4.014
 1980SOL    HW1 6229   0.159   5.073   3.987
 1980SOL    HW2 6230   0.267   5.125   4.098
 1981SOL     OW 6231   0.105   4.737   5.450
 1981SOL    HW1 6232   0.028   4.704   5.504
 1981SOL    HW2 6233   0.190   4.707   5.492
 1982SOL     OW 6234   0.672   3.927   5.213
 1982SOL    HW1 6235   0.762   3.911   5.173
 1982SOL    HW2 6236   0.680   3.932   5.312
 1983SOL     OW 6237   0.075   4.069   3.757
 1983SOL    HW1 6238  -0.017   4.041   3.728
 1983SOL    HW2 6239   0.106   4.146   3.701
 1984SOL     OW 6240   1.440   4.580   5.122
 1984SOL    HW1 6241   1.383   4.632   5.059
 1984SOL    HW2 6242   1.536   4.592   5.098
 1985SOL     OW 6243   0.072   3.890   4.042
 1985SOL    HW1 6244   0.055   3.973   3.988
 1985SOL    HW2 6245   0.162   3.853   4.020
 1986SOL     OW 6246   1.183   5.059   3.843
 1986SOL    HW1 6247   1.084   5.048   3.845
 1986SOL    HW2 6248   1.217   5.074   3.936
 1987SOL     OW 6249   0.613   4.566   5.155
 1987SOL    HW1 6250   0.669   4.647   5.138
 1987SOL    HW2 6251   0.672   4.486   5.158
 1988SOL     OW 6252   1.493   5.491   4.683
 1988SOL    HW1 6253   1.526   5.555   4.614
 1988SOL    HW2 6254   1.559   5.485   4.758
 1989SOL     OW 6255   0.716   4.289   5.432
 1989SOL    HW1 6256   0.735   4.354   5.506
 1989SOL    HW2 6257   0.776   4.209   5.441
 1990SOL     OW 6258   1.450   4.944   5.357
 1990SOL    HW1 6259   1.441   4.934   5.456
 1990SOL    HW2 6260   1.546   4.937   5.331
 1991SOL     OW 6261   0.390   5.465   5.284
 1991SOL    HW1 6262   0.299   5.506   5.282
 1991SOL    HW2 6263   0.383   5.371   5.316
 1992SOL     OW 6264   1.674   4.607   4.978
 1992SOL    HW1 6265   1.647   4.518   4.941
 1992SOL    HW2 6266   1.675   4.675   4.905
 1993SOL     OW 6267   1.225   4.049   4.173
 1993SOL    HW1 6268   1.290   3.975   4.162
 1993SOL    HW2 6269   1.245   4.099   4.257
 1994SOL     OW 6270   0.594   4.469   4.376
 1994SOL    HW1 6271   0.644   4.554   4.357
 1994SOL    HW2 6272   0.506   4.471   4.328
 1995SOL     OW 6273   1.777   4.066   5.366
 1995SOL    HW1 6274   1.760   4.097   5.272
 1995SOL    HW2 6275   1.693   4.029   5.404
 1996SOL     OW 6276   1.730   4.658   5.241
 1996SOL    HW1 6277   1.768   4.749   5.256
 1996SOL    HW2 6278   1.722   4.641   5.142
 1997SOL     OW 6279   0.859   5.098   3.740
 1997SOL    HW1 6280   0.813   5.113   3.828
 1997SOL    HW2 6281   0.903   5.183   3.710
 1998SOL     OW 6282   0.661   5.514   4.677
 1998SOL    HW1 6283   0.615   5.602   4.664
 1998SOL    HW2 6284   0.760   5.526   4.670
 1999SOL     OW 6285   0.859   4.680   4.585
 1999SOL    HW1 6286   0.913   4.611   4.633
 1999SOL    HW2 6287   0.827   4.749   4.651
 2000SOL     OW 6288   1.083   4.708   3.811
 2000SOL    HW1 6289   1.060   4.761   3.729
 2000SOL    HW2 6290   1.164   4.652   3.792
 2001SOL     OW 6291   1.861   5.293   4.575
 2001SOL    HW1 6292   1.790   5.281   4.505
 2001SOL    HW2 6293   1.862   5.214   4.635
 2002SOL     OW 6294   0.221   5.038   5.568
 2002SOL    HW1 6295   0.156   4.965   5.547
 2002SOL    HW2 6296   0.225   5.052   5.666
 2003SOL     OW 6297   0.079   4.964   4.377
 2003SOL    HW1 6298   0.078   4.917   4.465
 2003SOL    HW2 6299   0.161   4.936   4.326
 2004SOL     OW 6300   0.672   5.115   5.348
 2004SOL    HW1 6301   0.594   5.065   5.386
 2004SOL    HW2 6302   0.669   5.210   5.379
 2005SOL     OW 6303   1.824   3.916   4.951
 2005SOL    HW1 6304   1.820   3.826   4.995
 2005SOL    HW2 6305   1.827   3.905   4.852
 2006SOL     OW 6306   0.428   4.148   4.244
 2006SOL    HW1 6307   0.458   4.076   4.182
 2006SOL    HW2 6308   0.389   4.108   4.327
 2007SOL     OW 6309   1.705   5.211   4.828
 2007SOL    HW1 6310   1.612   5.186   4.801
 2007SOL    HW2 6311   1.731   5.161   4.910
 2008SOL     OW 6312   0.317   4.271   5.004
 2008SOL    HW1 6313   0.355   4.212   5.076
 2008SOL    HW2 6314   0.357   4.245   4.916
 2009SOL     OW 6315   0.812   5.310   4.411
 2009SOL    HW1 6316   0.844   5.320   4.317
 2009SOL    HW2 6317   0.733   5.248   4.413
 2010SOL     OW 6318   1.424   3.938   4.836
 2010SOL    HW1 6319   1.476   3.873   4.891
 2010SOL    HW2 6320   1.375   4.001   4.897
 2011SOL     OW 6321   1.001   3.758   4.878
 2011SOL    HW1 6322   0.938   3.686   4.847
 2011SOL    HW2 6323   1.094   3.722   4.878
 2012SOL     OW 6324   0.770   5.054   4.025
 2012SOL    HW1 6325   0.724   4.967   4.042
 2012SOL    HW2 6326   0.861   5.051   4.066
 2013SOL     OW 6327   0.618   5.291   5.008
 2013SOL    HW1 6328   0.613   5.373   5.065
 2013SOL    HW2 6329   0.707   5.288   4.963
 2014SOL     OW 6330   1.352   3.776   3.892
 2014SOL    HW1 6331   1.387   3.735   3.808
 2014SOL    HW2 6332   1.262   3.738   3.912
 2015SOL     OW 6333   1.300   4.177   4.415
 2015SOL    HW1 6334   1.241   4.257   4.419
 2015SOL    HW2 6335   1.315   4.142   4.508
 2016SOL     OW 6336   1.593   3.945   4.606
 2016SOL    HW1 6337   1.509   3.944   4.660
 2016SOL    HW2 6338   1.595   4.028   4.550
 2017SOL     OW 6339   0.039   4.801   4.024
 2017SOL    HW1 6340   0.138   4.790   4.015
 2017SOL    HW2 6341  -0.001   4.715   4.056
 2018SOL     OW 6342   0.875   5.370   4.061
 2018SOL    HW1 6343   0.798   5.335   4.007
 2018SOL    HW2 6344   0.843   5.441   4.123
 2019SOL     OW 6345   0.230   4.352   5.699
 2019SOL    HW1 6346   0.137   4.350   5.736
 2019SOL    HW2 6347   0.231   4.313   5.607
 2020SOL     OW 6348   1.755   4.331   5.817
 2020SOL    HW1 6349   1.743   4.318   5.718
 2020SOL    HW2 6350   1.725   4.250   5.866
 2021SOL     OW 6351   0.231   5.437   6.069
 2021SOL    HW1 6352   0.265   5.514   6.123
 2021SOL    HW2 6353   0.275   5.437   5.979
 2022SOL     OW 6354   0.606   4.688   5.709
 2022SOL    HW1 6355   0.613   4.772   5.655
 2022SOL    HW2 6356   0.652   4.701   5.797
 2023SOL     OW 6357   1.842   5.491   5.945
 2023SOL    HW1 6358   1.896   5.462   6.025
 2023SOL    HW2 6359   1.872   5.581   5.916
 2024SOL     OW 6360   0.027   5.320   5.703
 2024SOL    HW1 6361   0.008   5.224   5.724
 2024SOL    HW2 6362  -0.006   5.378   5.778
 2025SOL     OW 6363   1.689   4.646   6.198
 2025SOL    HW1 6364   1.784   4.617   6.206
 2025SOL    HW2 6365   1.681   4.711   6.123
 2026SOL     OW 6366   1.641   4.832   6.018
 2026SOL    HW1 6367   1.727   4.834   5.966
 2026SOL    HW2 6368   1.655   4.879   6.106
 2027SOL     OW 6369   1.525   4.723   5.776
 2027SOL    HW1 6370   1.462   4.647   5.789
 2027SOL    HW2 6371   1.573   4.741   5.862
 2028SOL     OW 6372   0.598   4.453   5.856
 2028SOL    HW1 6373   0.622   4.522   5.788
 2028SOL    HW2 6374   0.520   4.486   5.910
 2029SOL     OW 6375   0.865   4.072   5.781
 2029SOL    HW1 6376   0.924   4.135   5.732
 2029SOL    HW2 6377   0.884   3.978   5.752
 2030SOL     OW 6378   0.321   4.667   5.828
 2030SOL    HW1 6379   0.403   4.706   5.786
 2030SOL    HW2 6380   0.294   4.585   5.779
 2031SOL     OW 6381   1.111   5.500   5.823
 2031SOL    HW1 6382   1.051   5.438   5.873
 2031SOL    HW2 6383   1.142   5.456   5.738
 2032SOL     OW 6384   1.632   5.101   5.667
 2032SOL    HW1 6385   1.600   5.195   5.657
 2032SOL    HW2 6386   1.556   5.038   5.655
 2033SOL     OW 6387   0.464   5.467   5.909
 2033SOL    HW1 6388   0.497   5.506   5.995
 2033SOL    HW2 6389   0.540   5.460   5.844
 2034SOL     OW 6390   0.614   3.846   5.703
 2034SOL    HW1 6391   0.712   3.824   5.710
 2034SOL    HW2 6392   0.583   3.829   5.610
 2035SOL     OW 6393   1.434   4.912   5.627
 2035SOL    HW1 6394   1.466   4.836   5.684
 2035SOL    HW2 6395   1.342   4.939   5.657
 2036SOL     OW 6396   0.297   3.759   5.757
 2036SOL    HW1 6397   0.346   3.843   5.736
 2036SOL    HW2 6398   0.359   3.694   5.802
 2037SOL     OW 6399   1.032   4.273   5.602
 2037SOL    HW1 6400   0.991   4.355   5.563
 2037SOL    HW2 6401   1.096   4.299   5.675
 2038SOL     OW 6402   1.857   4.557   5.963
 2038SOL    HW1 6403   1.899   4.493   6.027
 2038SOL    HW2 6404   1.819   4.506   5.885
 2039SOL     OW 6405   0.488   5.109   5.760
 2039SOL    HW1 6406   0.401   5.094   5.807
 2039SOL    HW2 6407   0.471   5.135   5.665
 2040SOL     OW 6408   1.664   5.004   6.243
 2040SOL    HW1 6409   1.763   5.012   6.257
 2040SOL    HW2 6410   1.619   5.088   6.274
 2041SOL     OW 6411   1.390   4.299   5.664
 2041SOL    HW1 6412   1.336   4.278   5.745
 2041SOL    HW2 6413   1.481   4.258   5.673
 2042SOL     OW 6414   0.527   3.980   5.914
 2042SOL    HW1 6415   0.554   3.921   5.839
 2042SOL    HW2 6416   0.527   4.075   5.883
 2043SOL     OW 6417   0.367   4.824   6.087
 2043SOL    HW1 6418   0.360   4.907   6.031
 2043SOL    HW2 6419   0.371   4.744   6.027
 2044SOL     OW 6420   1.209   4.249   5.861
 2044SOL    HW1 6421   1.222   4.165   5.915
 2044SOL    HW2 6422   1.180   4.323   5.921
 2045SOL     OW 6423   0.307   3.787   6.204
 2045SOL    HW1 6424   0.296   3.881   6.237
 2045SOL    HW2 6425   0.302   3.724   6.281
 2046SOL     OW 6426   1.540   3.998   5.711
 2046SOL    HW1 6427   1.479   3.923   5.734
 2046SOL    HW2 6428   1.562   4.050   5.794
 2047SOL     OW 6429   1.303   4.562   5.628
 2047SOL    HW1 6430   1.337   4.469   5.643
 2047SOL    HW2 6431   1.321   4.589   5.533
 2048SOL     OW 6432   0.008   5.050   5.786
 2048SOL    HW1 6433  -0.085   5.071   5.755
 2048SOL    HW2 6434   0.018   4.951   5.799
 2049SOL     OW 6435   0.815   4.296   5.911
 2049SOL    HW1 6436   0.822   4.207   5.865
 2049SOL    HW2 6437   0.721   4.330   5.903
 2050SOL     OW 6438   0.473   4.224   5.777
 2050SOL    HW1 6439   0.534   4.304   5.781
 2050SOL    HW2 6440   0.378   4.255   5.784
 2051SOL     OW 6441   1.726   3.859   6.109
 2051SOL    HW1 6442   1.799   3.842   6.042
 2051SOL    HW2 6443   1.695   3.772   6.147
 2052SOL     OW 6444   0.672   5.340   5.740
 2052SOL    HW1 6445   0.681   5.350   5.641
 2052SOL    HW2 6446   0.632   5.251   5.761
 2053SOL     OW 6447   1.194   5.336   5.617
 2053SOL    HW1 6448   1.200   5.243   5.654
 2053SOL    HW2 6449   1.135   5.336   5.537
 2054SOL     OW 6450   0.916   4.634   5.877
 2054SOL    HW1 6451   0.979   4.672   5.809
 2054SOL    HW2 6452   0.956   4.551   5.916
 2055SOL     OW 6453   1.504   5.331   5.630
 2055SOL    HW1 6454   1.412   5.368   5.637
 2055SOL    HW2 6455   1.542   5.351   5.540
 2056SOL     OW 6456   1.039   4.822   6.282
 2056SOL    HW1 6457   0.969   4.775   6.336
 2056SOL    HW2 6458   1.098   4.754   6.239
 2057SOL     OW 6459   0.255   5.072   5.876
 2057SOL    HW1 6460   0.159   5.073   5.849
 2057SOL    HW2 6461   0.267   5.125   5.960
 2058SOL     OW 6462   0.075   4.069   5.619
 2058SOL    HW1 6463  -0.017   4.041   5.590
 2058SOL    HW2 6464   0.106   4.146   5.563
 2059SOL     OW 6465   0.072   3.890   5.904
 2059SOL    HW1 6466   0.055   3.973   5.850
 2059SOL    HW2 6467   0.162   3.853   5.882
 2060SOL     OW 6468   1.183   5.059   5.705
 2060SOL    HW1 6469   1.084   5.048   5.707
 2060SOL    HW2 6470   1.217   5.074   5.798
 2061SOL     OW 6471   1.225   4.049   6.035
 2061SOL    HW1 6472   1.290   3.975   6.024
 2061SOL    HW2 6473   1.245   4.099   6.119
 2062SOL     OW 6474   0.859   5.098   5.602
 2062SOL    HW1 6475   0.813   5.113   5.690
 2062SOL    HW2 6476   0.903   5.183   5.572
 2063SOL     OW 6477   1.083   4.708   5.673
 2063SOL    HW1 6478   1.060   4.761   5.591
 2063SOL    HW2 6479   1.164   4.652   5.654
 2064SOL     OW 6480   1.352   3.776   5.754
 2064SOL    HW1 6481   1.387   3.735   5.670
 2064SOL    HW2 6482   1.262   3.738   5.774
 2065SOL     OW 6483   0.039   4.801   5.886
 2065SOL    HW1 6484   0.138   4.790   5.877
 2065SOL    HW2 6485  -0.001   4.715   5.918
 2066SOL     OW 6486   0.875   5.370   5.923
 2066SOL    HW1 6487   0.798   5.335   5.869
 2066SOL    HW2 6488   0.843   5.441   5.985
 2067SOL     OW 6489   0.230   6.214   0.113
 2067SOL    HW1 6490   0.137   6.212   0.150
 2067SOL    HW2 6491   0.231   6.175   0.021
 2068SOL     OW 6492   0.225   5.861   0.996
 2068SOL    HW1 6493   0.260   5.844   1.088
 2068SOL    HW2 6494   0.137   5.816   0.984
 2069SOL     OW 6495   0.019   5.954   0.647
 2069SOL    HW1 6496  -0.063   5.997   0.686
 2069SOL    HW2 6497  -0.009   5.881   0.584
 2070SOL     OW 6498   0.438   5.978   1.499
 2070SOL    HW1 6499   0.520   5.922   1.508
 2070SOL    HW2 6500   0.357   5.920   1.503
 2071SOL     OW 6501   1.603   6.033   0.737
 2071SOL    HW1 6502   1.529   6.079   0.687
 2071SOL    HW2 6503   1.654   6.101   0.790
 2072SOL     OW 6504   1.594   5.700   1.480
 2072SOL    HW1 6505   1.576   5.767   1.408
 2072SOL    HW2 6506   1.591   5.746   1.569
 2073SOL     OW 6507   0.809   5.590   0.502
 2073SOL    HW1 6508   0.849   5.681   0.493
 2073SOL    HW2 6509   0.709   5.598   0.508
 2074SOL     OW 6510   0.317   5.837   1.801
 2074SOL    HW1 6511   0.388   5.908   1.807
 2074SOL    HW2 6512   0.229   5.876   1.829
 2075SOL     OW 6513   1.281   5.931   0.944
 2075SOL    HW1 6514   1.195   5.881   0.931
 2075SOL    HW2 6515   1.343   5.877   1.000
 2076SOL     OW 6516   0.550   5.782   0.885
 2076SOL    HW1 6517   0.545   5.777   0.985
 2076SOL    HW2 6518   0.552   5.878   0.856
 2077SOL     OW 6519   0.202   5.871   1.498
 2077SOL    HW1 6520   0.122   5.931   1.485
 2077SOL    HW2 6521   0.192   5.822   1.584
 2078SOL     OW 6522   1.400   5.693   0.426
 2078SOL    HW1 6523   1.376   5.656   0.336
 2078SOL    HW2 6524   1.499   5.709   0.430
 2079SOL     OW 6525   1.547   5.808   1.729
 2079SOL    HW1 6526   1.542   5.845   1.821
 2079SOL    HW2 6527   1.475   5.739   1.717
 2080SOL     OW 6528   0.614   5.708   0.117
 2080SOL    HW1 6529   0.712   5.686   0.124
 2080SOL    HW2 6530   0.583   5.691   0.024
 2081SOL     OW 6531   0.781   5.850   1.749
 2081SOL    HW1 6532   0.848   5.789   1.792
 2081SOL    HW2 6533   0.708   5.869   1.814
 2082SOL     OW 6534   1.351   6.176   1.433
 2082SOL    HW1 6535   1.379   6.133   1.518
 2082SOL    HW2 6536   1.376   6.272   1.434
 2083SOL     OW 6537   0.539   5.650   0.512
 2083SOL    HW1 6538   0.458   5.651   0.570
 2083SOL    HW2 6539   0.542   5.733   0.457
 2084SOL     OW 6540   0.935   5.822   0.480
 2084SOL    HW1 6541   0.887   5.863   0.402
 2084SOL    HW2 6542   1.034   5.820   0.461
 2085SOL     OW 6543   0.561   5.808   1.147
 2085SOL    HW1 6544   0.599   5.724   1.184
 2085SOL    HW2 6545   0.473   5.827   1.191
 2086SOL     OW 6546   1.017   5.625   0.753
 2086SOL    HW1 6547   0.945   5.630   0.684
 2086SOL    HW2 6548   0.993   5.556   0.822
 2087SOL     OW 6549   0.527   5.842   0.328
 2087SOL    HW1 6550   0.554   5.783   0.253
 2087SOL    HW2 6551   0.527   5.937   0.297
 2088SOL     OW 6552   0.915   5.675   1.402
 2088SOL    HW1 6553   0.940   5.655   1.307
 2088SOL    HW2 6554   0.987   5.731   1.444
 2089SOL     OW 6555   1.013   5.691   1.770
 2089SOL    HW1 6556   1.019   5.776   1.718
 2089SOL    HW2 6557   1.045   5.615   1.713
 2090SOL     OW 6558   0.504   5.636   1.740
 2090SOL    HW1 6559   0.462   5.579   1.670
 2090SOL    HW2 6560   0.438   5.705   1.772
 2091SOL     OW 6561   0.307   5.799   1.231
 2091SOL    HW1 6562   0.284   5.836   1.321
 2091SOL    HW2 6563   0.277   5.704   1.225
 2092SOL     OW 6564   0.732   6.220   1.064
 2092SOL    HW1 6565   0.791   6.194   0.988
 2092SOL    HW2 6566   0.704   6.316   1.053
 2093SOL     OW 6567   0.307   5.649   0.618
 2093SOL    HW1 6568   0.296   5.743   0.651
 2093SOL    HW2 6569   0.302   5.586   0.695
 2094SOL     OW 6570   1.540   5.860   0.125
 2094SOL    HW1 6571   1.479   5.785   0.148
 2094SOL    HW2 6572   1.562   5.912   0.208
 2095SOL     OW 6573   0.339   6.095   1.006
 2095SOL    HW1 6574   0.287   6.012   0.989
 2095SOL    HW2 6575   0.416   6.100   0.942
 2096SOL     OW 6576   1.160   5.793   1.477
 2096SOL    HW1 6577   1.160   5.857   1.554
 2096SOL    HW2 6578   1.188   5.841   1.394
 2097SOL     OW 6579   0.040   6.130   1.114
 2097SOL    HW1 6580   0.125   6.097   1.073
 2097SOL    HW2 6581   0.053   6.145   1.212
 2098SOL     OW 6582   0.903   5.672   0.133
 2098SOL    HW1 6583   0.954   5.673   0.047
 2098SOL    HW2 6584   0.959   5.630   0.204
 2099SOL     OW 6585   1.726   5.721   0.523
 2099SOL    HW1 6586   1.799   5.704   0.456
 2099SOL    HW2 6587   1.695   5.634   0.561
 2100SOL     OW 6588   1.841   5.761   0.963
 2100SOL    HW1 6589   1.880   5.676   0.927
 2100SOL    HW2 6590   1.743   5.763   0.944
 2101SOL     OW 6591   1.014   5.822   0.971
 2101SOL    HW1 6592   1.006   5.786   0.878
 2101SOL    HW2 6593   1.012   5.746   1.036
 2102SOL     OW 6594   0.672   5.789   1.489
 2102SOL    HW1 6595   0.762   5.773   1.449
 2102SOL    HW2 6596   0.680   5.794   1.588
 2103SOL     OW 6597   0.075   5.931   0.033
 2103SOL    HW1 6598  -0.017   5.903   0.004
 2103SOL    HW2 6599   0.106   6.008  -0.023
 2104SOL     OW 6600   0.072   5.752   0.318
 2104SOL    HW1 6601   0.055   5.835   0.264
 2104SOL    HW2 6602   0.162   5.715   0.296
 2105SOL     OW 6603   1.225   5.911   0.449
 2105SOL    HW1 6604   1.290   5.837   0.438
 2105SOL    HW2 6605   1.245   5.961   0.533
 2106SOL     OW 6606   1.777   5.928   1.642
 2106SOL    HW1 6607   1.760   5.959   1.548
 2106SOL    HW2 6608   1.693   5.891   1.680
 2107SOL     OW 6609   1.824   5.778   1.227
 2107SOL    HW1 6610   1.820   5.688   1.271
 2107SOL    HW2 6611   1.827   5.767   1.128
 2108SOL     OW 6612   1.424   5.800   1.112
 2108SOL    HW1 6613   1.476   5.735   1.167
 2108SOL    HW2 6614   1.375   5.863   1.173
 2109SOL     OW 6615   1.001   5.620   1.154
 2109SOL    HW1 6616   0.938   5.548   1.123
 2109SOL    HW2 6617   1.094   5.584   1.154
 2110SOL     OW 6618   1.352   5.638   0.168
 2110SOL    HW1 6619   1.387   5.597   0.084
 2110SOL    HW2 6620   1.262   5.600   0.188
 2111SOL     OW 6621   1.300   6.039   0.691
 2111SOL    HW1 6622   1.241   6.119   0.695
 2111SOL    HW2 6623   1.315   6.004   0.784
 2112SOL     OW 6624   1.593   5.807   0.882
 2112SOL    HW1 6625   1.509   5.806   0.936
 2112SOL    HW2 6626   1.595   5.890   0.826
 2113SOL     OW 6627   0.225   5.861   2.858
 2113SOL    HW1 6628   0.260   5.844   2.950
 2113SOL    HW2 6629   0.137   5.816   2.846
 2114SOL     OW 6630   0.019   5.954   2.509
 2114SOL    HW1 6631  -0.063   5.997   2.548
 2114SOL    HW2 6632  -0.009   5.881   2.446
 2115SOL     OW 6633   1.755   6.193   2.093
 2115SOL    HW1 6634   1.743   6.180   1.994
 2115SOL    HW2 6635   1.725   6.112   2.142
 2116SOL     OW 6636   0.438   5.978   3.361
 2116SOL    HW1 6637   0.520   5.922   3.370
 2116SOL    HW2 6638   0.357   5.920   3.365
 2117SOL     OW 6639   1.603   6.033   2.599
 2117SOL    HW1 6640   1.529   6.079   2.549
 2117SOL    HW2 6641   1.654   6.101   2.652
 2118SOL     OW 6642   1.594   5.700   3.342
 2118SOL    HW1 6643   1.576   5.767   3.270
 2118SOL    HW2 6644   1.591   5.746   3.431
 2119SOL     OW 6645   0.809   5.590   2.364
 2119SOL    HW1 6646   0.849   5.681   2.355
 2119SOL    HW2 6647   0.709   5.598   2.370
 2120SOL     OW 6648   0.317   5.837   3.663
 2120SOL    HW1 6649   0.388   5.908   3.669
 2120SOL    HW2 6650   0.229   5.876   3.691
 2121SOL     OW 6651   1.281   5.931   2.806
 2121SOL    HW1 6652   1.195   5.881   2.793
 2121SOL    HW2 6653   1.343   5.877   2.862
 2122SOL     OW 6654   0.865   5.934   2.057
 2122SOL    HW1 6655   0.924   5.997   2.008
 2122SOL    HW2 6656   0.884   5.840   2.028
 2123SOL     OW 6657   0.550   5.782   2.747
 2123SOL    HW1 6658   0.545   5.777   2.847
 2123SOL    HW2 6659   0.552   5.878   2.718
 2124SOL     OW 6660   0.202   5.871   3.360
 2124SOL    HW1 6661   0.122   5.931   3.347
 2124SOL    HW2 6662   0.192   5.822   3.446
 2125SOL     OW 6663   1.400   5.693   2.288
 2125SOL    HW1 6664   1.376   5.656   2.198
 2125SOL    HW2 6665   1.499   5.709   2.292
 2126SOL     OW 6666   1.547   5.808   3.591
 2126SOL    HW1 6667   1.542   5.845   3.683
 2126SOL    HW2 6668   1.475   5.739   3.579
 2127SOL     OW 6669   0.614   5.708   1.979
 2127SOL    HW1 6670   0.712   5.686   1.986
 2127SOL    HW2 6671   0.583   5.691   1.886
 2128SOL     OW 6672   0.781   5.850   3.611
 2128SOL    HW1 6673   0.848   5.789   3.654
 2128SOL    HW2 6674   0.708   5.869   3.676
 2129SOL     OW 6675   1.351   6.176   3.295
 2129SOL    HW1 6676   1.379   6.133   3.380
 2129SOL    HW2 6677   1.376   6.272   3.296
 2130SOL     OW 6678   0.539   5.650   2.374
 2130SOL    HW1 6679   0.458   5.651   2.432
 2130SOL    HW2 6680   0.542   5.733   2.319
 2131SOL     OW 6681   0.297   5.621   2.033
 2131SOL    HW1 6682   0.346   5.705   2.012
 2131SOL    HW2 6683   0.359   5.556   2.078
 2132SOL     OW 6684   0.935   5.822   2.342
 2132SOL    HW1 6685   0.887   5.863   2.264
 2132SOL    HW2 6686   1.034   5.820   2.323
 2133SOL     OW 6687   0.561   5.808   3.009
 2133SOL    HW1 6688   0.599   5.724   3.046
 2133SOL    HW2 6689   0.473   5.827   3.053
 2134SOL     OW 6690   1.017   5.625   2.615
 2134SOL    HW1 6691   0.945   5.630   2.546
 2134SOL    HW2 6692   0.993   5.556   2.684
 2135SOL     OW 6693   0.527   5.842   2.190
 2135SOL    HW1 6694   0.554   5.783   2.115
 2135SOL    HW2 6695   0.527   5.937   2.159
 2136SOL     OW 6696   0.915   5.675   3.264
 2136SOL    HW1 6697   0.940   5.655   3.169
 2136SOL    HW2 6698   0.987   5.731   3.306
 2137SOL     OW 6699   1.013   5.691   3.632
 2137SOL    HW1 6700   1.019   5.776   3.580
 2137SOL    HW2 6701   1.045   5.615   3.575
 2138SOL     OW 6702   0.504   5.636   3.602
 2138SOL    HW1 6703   0.462   5.579   3.532
 2138SOL    HW2 6704   0.438   5.705   3.634
 2139SOL     OW 6705   0.307   5.799   3.093
 2139SOL    HW1 6706   0.284   5.836   3.183
 2139SOL    HW2 6707   0.277   5.704   3.087
 2140SOL     OW 6708   0.732   6.220   2.926
 2140SOL    HW1 6709   0.791   6.194   2.850
 2140SOL    HW2 6710   0.704   6.316   2.915
 2141SOL     OW 6711   0.307   5.649   2.480
 2141SOL    HW1 6712   0.296   5.743   2.513
 2141SOL    HW2 6713   0.302   5.586   2.557
 2142SOL     OW 6714   1.540   5.860   1.987
 2142SOL    HW1 6715   1.479   5.785   2.010
 2142SOL    HW2 6716   1.562   5.912   2.070
 2143SOL     OW 6717   0.339   6.095   2.868
 2143SOL    HW1 6718   0.287   6.012   2.851
 2143SOL    HW2 6719   0.416   6.100   2.804
 2144SOL     OW 6720   1.160   5.793   3.339
 2144SOL    HW1 6721   1.160   5.857   3.416
 2144SOL    HW2 6722   1.188   5.841   3.256
 2145SOL     OW 6723   0.040   6.130   2.976
 2145SOL    HW1 6724   0.125   6.097   2.935
 2145SOL    HW2 6725   0.053   6.145   3.074
 2146SOL     OW 6726   1.726   5.721   2.385
 2146SOL    HW1 6727   1.799   5.704   2.318
 2146SOL    HW2 6728   1.695   5.634   2.423
 2147SOL     OW 6729   1.841   5.761   2.825
 2147SOL    HW1 6730   1.880   5.676   2.789
 2147SOL    HW2 6731   1.743   5.763   2.806
 2148SOL     OW 6732   1.014   5.822   2.833
 2148SOL    HW1 6733   1.006   5.786   2.740
 2148SOL    HW2 6734   1.012   5.746   2.898
 2149SOL     OW 6735   0.672   5.789   3.351
 2149SOL    HW1 6736   0.762   5.773   3.311
 2149SOL    HW2 6737   0.680   5.794   3.450
 2150SOL     OW 6738   0.075   5.931   1.895
 2150SOL    HW1 6739  -0.017   5.903   1.866
 2150SOL    HW2 6740   0.106   6.008   1.839
 2151SOL     OW 6741   0.072   5.752   2.180
 2151SOL    HW1 6742   0.055   5.835   2.126
 2151SOL    HW2 6743   0.162   5.715   2.158
 2152SOL     OW 6744   1.225   5.911   2.311
 2152SOL    HW1 6745   1.290   5.837   2.300
 2152SOL    HW2 6746   1.245   5.961   2.395
 2153SOL     OW 6747   1.777   5.928   3.504
 2153SOL    HW1 6748   1.760   5.959   3.410
 2153SOL    HW2 6749   1.693   5.891   3.542
 2154SOL     OW 6750   1.824   5.778   3.089
 2154SOL    HW1 6751   1.820   5.688   3.133
 2154SOL    HW2 6752   1.827   5.767   2.990
 2155SOL     OW 6753   1.424   5.800   2.974
 2155SOL    HW1 6754   1.476   5.735   3.029
 2155SOL    HW2 6755   1.375   5.863   3.035
 2156SOL     OW 6756   1.001   5.620   3.016
 2156SOL    HW1 6757   0.938   5.548   2.985
 2156SOL    HW2 6758   1.094   5.584   3.016
 2157SOL     OW 6759   1.352   5.638   2.030
 2157SOL    HW1 6760   1.387   5.597   1.946
 2157SOL    HW2 6761   1.262   5.600   2.050
 2158SOL     OW 6762   1.300   6.039   2.553
 2158SOL    HW1 6763   1.241   6.119   2.557
 2158SOL    HW2 6764   1.315   6.004   2.646
 2159SOL     OW 6765   1.593   5.807   2.744
 2159SOL    HW1 6766   1.509   5.806   2.798
 2159SOL    HW2 6767   1.595   5.890   2.688
 2160SOL     OW 6768   0.225   5.861   4.720
 2160SOL    HW1 6769   0.260   5.844   4.812
 2160SOL    HW2 6770   0.137   5.816   4.708
 2161SOL     OW 6771   0.019   5.954   4.371
 2161SOL    HW1 6772  -0.063   5.997   4.410
 2161SOL    HW2 6773  -0.009   5.881   4.308
 2162SOL     OW 6774   1.755   6.193   3.955
 2162SOL    HW1 6775   1.743   6.180   3.856
 2162SOL    HW2 6776   1.725   6.112   4.004
 2163SOL     OW 6777   0.438   5.978   5.223
 2163SOL    HW1 6778   0.520   5.922   5.232
 2163SOL    HW2 6779   0.357   5.920   5.227
 2164SOL     OW 6780   1.603   6.033   4.461
 2164SOL    HW1 6781   1.529   6.079   4.411
 2164SOL    HW2 6782   1.654   6.101   4.514
 2165SOL     OW 6783   1.594   5.700   5.204
 2165SOL    HW1 6784   1.576   5.767   5.132
 2165SOL    HW2 6785   1.591   5.746   5.293
 2166SOL     OW 6786   0.809   5.590   4.226
 2166SOL    HW1 6787   0.849   5.681   4.217
 2166SOL    HW2 6788   0.709   5.598   4.232
 2167SOL     OW 6789   0.317   5.837   5.525
 2167SOL    HW1 6790   0.388   5.908   5.531
 2167SOL    HW2 6791   0.229   5.876   5.553
 2168SOL     OW 6792   1.281   5.931   4.668
 2168SOL    HW1 6793   1.195   5.881   4.655
 2168SOL    HW2 6794   1.343   5.877   4.724
 2169SOL     OW 6795   0.865   5.934   3.919
 2169SOL    HW1 6796   0.924   5.997   3.870
 2169SOL    HW2 6797   0.884   5.840   3.890
 2170SOL     OW 6798   0.550   5.782   4.609
 2170SOL    HW1 6799   0.545   5.777   4.709
 2170SOL    HW2 6800   0.552   5.878   4.580
 2171SOL     OW 6801   0.202   5.871   5.222
 2171SOL    HW1 6802   0.122   5.931   5.209
 2171SOL    HW2 6803   0.192   5.822   5.308
 2172SOL     OW 6804   1.400   5.693   4.150
 2172SOL    HW1 6805   1.376   5.656   4.060
 2172SOL    HW2 6806   1.499   5.709   4.154
 2173SOL     OW 6807   1.547   5.808   5.453
 2173SOL    HW1 6808   1.542   5.845   5.545
 2173SOL    HW2 6809   1.475   5.739   5.441
 2174SOL     OW 6810   0.614   5.708   3.841
 2174SOL    HW1 6811   0.712   5.686   3.848
 2174SOL    HW2 6812   0.583   5.691   3.748
 2175SOL     OW 6813   0.781   5.850   5.473
 2175SOL    HW1 6814   0.848   5.789   5.516
 2175SOL    HW2 6815   0.708   5.869   5.538
 2176SOL     OW 6816   1.351   6.176   5.157
 2176SOL    HW1 6817   1.379   6.133   5.242
 2176SOL    HW2 6818   1.376   6.272   5.158
 2177SOL     OW 6819   0.539   5.650   4.236
 2177SOL    HW1 6820   0.458   5.651   4.294
 2177SOL    HW2 6821   0.542   5.733   4.181
 2178SOL     OW 6822   0.297   5.621   3.895
 2178SOL    HW1 6823   0.346   5.705   3.874
 2178SOL    HW2 6824   0.359   5.556   3.940
 2179SOL     OW 6825   0.935   5.822   4.204
 2179SOL    HW1 6826   0.887   5.863   4.126
 2179SOL    HW2 6827   1.034   5.820   4.185
 2180SOL     OW 6828   0.561   5.808   4.871
 2180SOL    HW1 6829   0.599   5.724   4.908
 2180SOL    HW2 6830   0.473   5.827   4.915
 2181SOL     OW 6831   1.017   5.625   4.477
 2181SOL    HW1 6832   0.945   5.630   4.408
 2181SOL    HW2 6833   0.993   5.556   4.546
 2182SOL     OW 6834   0.527   5.842   4.052
 2182SOL    HW1 6835   0.554   5.783   3.977
 2182SOL    HW2 6836   0.527   5.937   4.021
 2183SOL     OW 6837   0.915   5.675   5.126
 2183SOL    HW1 6838   0.940   5.655   5.031
 2183SOL    HW2 6839   0.987   5.731   5.168
 2184SOL     OW 6840   1.013   5.691   5.494
 2184SOL    HW1 6841   1.019   5.776   5.442
 2184SOL    HW2 6842   1.045   5.615   5.437
 2185SOL     OW 6843   0.504   5.636   5.464
 2185SOL    HW1 6844   0.462   5.579   5.394
 2185SOL    HW2 6845   0.438   5.705   5.496
 2186SOL     OW 6846   0.307   5.799   4.955
 2186SOL    HW1 6847   0.284   5.836   5.045
 2186SOL    HW2 6848   0.277   5.704   4.949
 2187SOL     OW 6849   0.732   6.220   4.788
 2187SOL    HW1 6850   0.791   6.194   4.712
 2187SOL    HW2 6851   0.704   6.316   4.777
 2188SOL     OW 6852   0.307   5.649   4.342
 2188SOL    HW1 6853   0.296   5.743   4.375
 2188SOL    HW2 6854   0.302   5.586   4.419
 2189SOL     OW 6855   1.540   5.860   3.849
 2189SOL    HW1 6856   1.479   5.785   3.872
 2189SOL    HW2 6857   1.562   5.912   3.932
 2190SOL     OW 6858   0.339   6.095   4.730
 2190SOL    HW1 6859   0.287   6.012   4.713
 2190SOL    HW2 6860   0.416   6.100   4.666
 2191SOL     OW 6861   1.160   5.793   5.201
 2191SOL    HW1 6862   1.160   5.857   5.278
 2191SOL    HW2 6863   1.188   5.841   5.118
 2192SOL     OW 6864   0.040   6.130   4.838
 2192SOL    HW1 6865   0.125   6.097   4.797
 2192SOL    HW2 6866   0.053   6.145   4.936
 2193SOL     OW 6867   1.726   5.721   4.247
 2193SOL    HW1 6868   1.799   5.704   4.180
 2193SOL    HW2 6869   1.695   5.634   4.285
 2194SOL     OW 6870   1.841   5.761   4.687
 2194SOL    HW1 6871   1.880   5.676   4.651
 2194SOL    HW2 6872   1.743   5.763   4.668
 2195SOL     OW 6873   1.014   5.822   4.695
 2195SOL    HW1 6874   1.006   5.786   4.602
 2195SOL    HW2 6875   1.012   5.746   4.760
 2196SOL     OW 6876   0.672   5.789   5.213
 2196SOL    HW1 6877   0.762   5.773   5.173
 2196SOL    HW2 6878   0.680   5.794   5.312
 2197SOL     OW 6879   0.075   5.931   3.757
 2197SOL    HW1 6880  -0.017   5.903   3.728
 2197SOL    HW2 6881   0.106   6.008   3.701
 2198SOL     OW 6882   0.072   5.752   4.042
 2198SOL    HW1 6883   0.055   5.835   3.988
 2198SOL    HW2 6884   0.162   5.715   4.020
 2199SOL     OW 6885   1.225   5.911   4.173
 2199SOL    HW1 6886   1.290   5.837   4.162
 2199SOL    HW2 6887   1.245   5.961   4.257
 2200SOL     OW 6888   1.777   5.928   5.366
 2200SOL    HW1 6889   1.760   5.959   5.272
 2200SOL    HW2 6890   1.693   5.891   5.404
 2201SOL     OW 6891   1.824   5.778   4.951
 2201SOL    HW1 6892   1.820   5.688   4.995
 2201SOL    HW2 6893   1.827   5.767   4.852
 2202SOL     OW 6894   1.424   5.800   4.836
 2202SOL    HW1 6895   1.476   5.735   4.891
 2202SOL    HW2 6896   1.375   5.863   4.897
 2203SOL     OW 6897   1.001   5.620   4.878
 2203SOL    HW1 6898   0.938   5.548   4.847
 2203SOL    HW2 6899   1.094   5.584   4.878
 2204SOL     OW 6900   1.352   5.638   3.892
 2204SOL    HW1 6901   1.387   5.597   3.808
 2204SOL    HW2 6902   1.262   5.600   3.912
 2205SOL     OW 6903   1.300   6.039   4.415
 2205SOL    HW1 6904   1.241   6.119   4.419
 2205SOL    HW2 6905   1.315   6.004   4.508
 2206SOL     OW 6906   1.593   5.807   4.606
 2206SOL    HW1 6907   1.509   5.806   4.660
 2206SOL    HW2 6908   1.595   5.890   4.550
 2207SOL     OW 6909   1.755   6.193   5.817
 2207SOL    HW1 6910   1.743   6.180   5.718
 2207SOL    HW2 6911   1.725   6.112   5.866
 2208SOL     OW 6912   1.041   6.287   6.015
 2208SOL    HW1 6913   1.067   6.283   6.111
 2208SOL    HW2 6914   0.956   6.236   6.001
 2209SOL     OW 6915   0.865   5.934   5.781
 2209SOL    HW1 6916   0.924   5.997   5.732
 2209SOL    HW2 6917   0.884   5.840   5.752
 2210SOL     OW 6918   0.614   5.708   5.703
 2210SOL    HW1 6919   0.712   5.686   5.710
 2210SOL    HW2 6920   0.583   5.691   5.610
 2211SOL     OW 6921   0.297   5.621   5.757
 2211SOL    HW1 6922   0.346   5.705   5.736
 2211SOL    HW2 6923   0.359   5.556   5.802
 2212SOL     OW 6924   0.527   5.842   5.914
 2212SOL    HW1 6925   0.554   5.783   5.839
 2212SOL    HW2 6926   0.527   5.937   5.883
 2213SOL     OW 6927   0.307   5.649   6.204
 2213SOL    HW1 6928   0.296   5.743   6.237
 2213SOL    HW2 6929   0.302   5.586   6.281
 2214SOL     OW 6930   1.540   5.860   5.711
 2214SOL    HW1 6931   1.479   5.785   5.734
 2214SOL    HW2 6932   1.562   5.912   5.794
 2215SOL     OW 6933   0.815   6.158   5.911
 2215SOL    HW1 6934   0.822   6.069   5.865
 2215SOL    HW2 6935   0.721   6.192   5.903
 2216SOL     OW 6936   1.726   5.721   6.109
 2216SOL    HW1 6937   1.799   5.704   6.042
 2216SOL    HW2 6938   1.695   5.634   6.147
 2217SOL     OW 6939   0.075   5.931   5.619
 2217SOL    HW1 6940  -0.017   5.903   5.590
 2217SOL    HW2 6941   0.106   6.008   5.563
 2218SOL     OW 6942   0.072   5.752   5.904
 2218SOL    HW1 6943   0.055   5.835   5.850
 2218SOL    HW2 6944   0.162   5.715   5.882
 2219SOL     OW 6945   1.352   5.638   5.754
 2219SOL    HW1 6946   1.387   5.597   5.670
 2219SOL    HW2 6947   1.262   5.600   5.774
 2220SOL     OW 6948   2.092   0.628   0.113
 2220SOL    HW1 6949   1.999   0.626   0.150
 2220SOL    HW2 6950   2.093   0.589   0.021
 2221SOL     OW 6951   2.087   0.275   0.996
 2221SOL    HW1 6952   2.122   0.258   1.088
 2221SOL    HW2 6953   1.999   0.230   0.984
 2222SOL     OW 6954   1.881   0.368   0.647
 2222SOL    HW1 6955   1.799   0.411   0.686
 2222SOL    HW2 6956   1.853   0.295   0.584
 2223SOL     OW 6957   2.431   1.275   1.165
 2223SOL    HW1 6958   2.338   1.268   1.128
 2223SOL    HW2 6959   2.442   1.364   1.209
 2224SOL     OW 6960   3.417   1.511   0.703
 2224SOL    HW1 6961   3.360   1.495   0.784
 2224SOL    HW2 6962   3.358   1.521   0.623
 2225SOL     OW 6963   2.997   0.703   0.717
 2225SOL    HW1 6964   3.054   0.781   0.692
 2225SOL    HW2 6965   2.937   0.729   0.793
 2226SOL     OW 6966   3.617   0.607   0.231
 2226SOL    HW1 6967   3.605   0.594   0.132
 2226SOL    HW2 6968   3.587   0.526   0.280
 2227SOL     OW 6969   2.630   1.144   1.023
 2227SOL    HW1 6970   2.552   1.161   1.083
 2227SOL    HW2 6971   2.664   1.231   0.987
 2228SOL     OW 6972   2.712   0.798   1.823
 2228SOL    HW1 6973   2.708   0.874   1.888
 2228SOL    HW2 6974   2.734   0.834   1.732
 2229SOL     OW 6975   2.547   1.012   0.665
 2229SOL    HW1 6976   2.616   0.996   0.735
 2229SOL    HW2 6977   2.474   1.069   0.703
 2230SOL     OW 6978   2.548   1.161   1.803
 2230SOL    HW1 6979   2.608   1.240   1.817
 2230SOL    HW2 6980   2.462   1.192   1.762
 2231SOL     OW 6981   2.197   1.435   1.061
 2231SOL    HW1 6982   2.119   1.404   1.008
 2231SOL    HW2 6983   2.255   1.493   1.004
 2232SOL     OW 6984   3.322   1.505   1.339
 2232SOL    HW1 6985   3.346   1.599   1.365
 2232SOL    HW2 6986   3.306   1.451   1.421
 2233SOL     OW 6987   2.300   0.392   1.499
 2233SOL    HW1 6988   2.382   0.336   1.508
 2233SOL    HW2 6989   2.219   0.334   1.503
 2234SOL     OW 6990   3.465   0.447   0.737
 2234SOL    HW1 6991   3.391   0.493   0.687
 2234SOL    HW2 6992   3.516   0.515   0.790
 2235SOL     OW 6993   2.093   1.713   0.483
 2235SOL    HW1 6994   2.127   1.790   0.537
 2235SOL    HW2 6995   2.137   1.713   0.393
 2236SOL     OW 6996   2.989   1.341   1.690
 2236SOL    HW1 6997   3.036   1.341   1.778
 2236SOL    HW2 6998   2.941   1.254   1.679
 2237SOL     OW 6999   2.092   1.434   0.538
 2237SOL    HW1 7000   2.066   1.530   0.538
 2237SOL    HW2 7001   2.021   1.380   0.583
 2238SOL     OW 7002   2.102   1.091   0.886
 2238SOL    HW1 7003   2.116   1.007   0.938
 2238SOL    HW2 7004   2.047   1.155   0.941
 2239SOL     OW 7005   2.482   1.786   1.439
 2239SOL    HW1 7006   2.390   1.769   1.474
 2239SOL    HW2 7007   2.510   1.878   1.465
 2240SOL     OW 7008   2.468   0.964   0.123
 2240SOL    HW1 7009   2.475   1.048   0.069
 2240SOL    HW2 7010   2.514   0.977   0.211
 2241SOL     OW 7011   3.456   0.114   1.480
 2241SOL    HW1 7012   3.438   0.181   1.408
 2241SOL    HW2 7013   3.453   0.160   1.569
 2242SOL     OW 7014   1.984   0.643   0.563
 2242SOL    HW1 7015   1.939   0.555   0.580
 2242SOL    HW2 7016   1.983   0.697   0.647
 2243SOL     OW 7017   3.704   1.767   0.359
 2243SOL    HW1 7018   3.758   1.738   0.439
 2243SOL    HW2 7019   3.734   1.857   0.330
 2244SOL     OW 7020   1.889   1.596   0.117
 2244SOL    HW1 7021   1.870   1.500   0.138
 2244SOL    HW2 7022   1.856   1.654   0.192
 2245SOL     OW 7023   3.551   0.922   0.612
 2245SOL    HW1 7024   3.646   0.893   0.620
 2245SOL    HW2 7025   3.543   0.987   0.537
 2246SOL     OW 7026   3.503   1.108   0.432
 2246SOL    HW1 7027   3.589   1.110   0.380
 2246SOL    HW2 7028   3.517   1.155   0.520
 2247SOL     OW 7029   1.975   0.737   1.597
 2247SOL    HW1 7030   2.063   0.724   1.642
 2247SOL    HW2 7031   1.962   0.834   1.575
 2248SOL     OW 7032   2.475   1.365   0.726
 2248SOL    HW1 7033   2.426   1.278   0.735
 2248SOL    HW2 7034   2.452   1.408   0.639
 2249SOL     OW 7035   3.155   1.228   1.423
 2249SOL    HW1 7036   3.192   1.155   1.365
 2249SOL    HW2 7037   3.207   1.233   1.508
 2250SOL     OW 7038   2.671   0.004   0.502
 2250SOL    HW1 7039   2.711   0.095   0.493
 2250SOL    HW2 7040   2.571   0.012   0.508
 2251SOL     OW 7041   2.059   0.976   1.264
 2251SOL    HW1 7042   2.148   0.931   1.250
 2251SOL    HW2 7043   1.986   0.911   1.245
 2252SOL     OW 7044   3.387   0.999   0.190
 2252SOL    HW1 7045   3.324   0.923   0.203
 2252SOL    HW2 7046   3.435   1.017   0.276
 2253SOL     OW 7047   3.049   1.792   1.616
 2253SOL    HW1 7048   3.073   1.852   1.540
 2253SOL    HW2 7049   3.056   1.697   1.586
 2254SOL     OW 7050   2.179   0.251   1.801
 2254SOL    HW1 7051   2.250   0.322   1.807
 2254SOL    HW2 7052   2.091   0.290   1.829
 2255SOL     OW 7053   3.328   1.417   0.953
 2255SOL    HW1 7054   3.269   1.423   1.033
 2255SOL    HW2 7055   3.313   1.329   0.907
 2256SOL     OW 7056   3.529   1.714   0.572
 2256SOL    HW1 7057   3.488   1.691   0.484
 2256SOL    HW2 7058   3.511   1.640   0.637
 2257SOL     OW 7059   2.460   0.729   0.270
 2257SOL    HW1 7060   2.484   0.798   0.202
 2257SOL    HW2 7061   2.382   0.762   0.324
 2258SOL     OW 7062   3.143   0.345   0.944
 2258SOL    HW1 7063   3.057   0.295   0.931
 2258SOL    HW2 7064   3.205   0.291   1.000
 2259SOL     OW 7065   3.438   1.662   0.307
 2259SOL    HW1 7066   3.527   1.708   0.310
 2259SOL    HW2 7067   3.417   1.638   0.212
 2260SOL     OW 7068   2.669   0.605   1.465
 2260SOL    HW1 7069   2.622   0.602   1.554
 2260SOL    HW2 7070   2.618   0.550   1.399
 2261SOL     OW 7071   3.256   0.469   1.674
 2261SOL    HW1 7072   3.236   0.512   1.762
 2261SOL    HW2 7073   3.334   0.407   1.683
 2262SOL     OW 7074   2.835   0.890   1.572
 2262SOL    HW1 7075   2.881   0.806   1.543
 2262SOL    HW2 7076   2.779   0.924   1.497
 2263SOL     OW 7077   2.853   0.410   1.242
 2263SOL    HW1 7078   2.776   0.444   1.296
 2263SOL    HW2 7079   2.819   0.359   1.163
 2264SOL     OW 7080   2.903   0.701   0.429
 2264SOL    HW1 7081   2.929   0.697   0.525
 2264SOL    HW2 7082   2.818   0.650   0.415
 2265SOL     OW 7083   1.938   0.811   0.789
 2265SOL    HW1 7084   2.037   0.799   0.798
 2265SOL    HW2 7085   1.914   0.906   0.810
 2266SOL     OW 7086   1.992   1.821   1.571
 2266SOL    HW1 7087   1.982   1.806   1.670
 2266SOL    HW2 7088   1.906   1.857   1.535
 2267SOL     OW 7089   2.727   0.348   0.195
 2267SOL    HW1 7090   2.786   0.411   0.146
 2267SOL    HW2 7091   2.746   0.254   0.166
 2268SOL     OW 7092   3.581   0.585   1.831
 2268SOL    HW1 7093   3.555   0.674   1.795
 2268SOL    HW2 7094   3.579   0.517   1.758
 2269SOL     OW 7095   3.224   1.144   0.545
 2269SOL    HW1 7096   3.307   1.115   0.497
 2269SOL    HW2 7097   3.175   1.211   0.489
 2270SOL     OW 7098   2.412   0.196   0.885
 2270SOL    HW1 7099   2.407   0.191   0.985
 2270SOL    HW2 7100   2.414   0.292   0.856
 2271SOL     OW 7101   2.870   1.456   0.477
 2271SOL    HW1 7102   2.824   1.528   0.425
 2271SOL    HW2 7103   2.866   1.476   0.575
 2272SOL     OW 7104   2.213   1.801   0.853
 2272SOL    HW1 7105   2.263   1.715   0.859
 2272SOL    HW2 7106   2.278   1.878   0.850
 2273SOL     OW 7107   3.657   1.066   0.873
 2273SOL    HW1 7108   3.595   1.051   0.797
 2273SOL    HW2 7109   3.605   1.077   0.958
 2274SOL     OW 7110   3.089   1.550   1.506
 2274SOL    HW1 7111   3.095   1.473   1.570
 2274SOL    HW2 7112   3.037   1.524   1.426
 2275SOL     OW 7113   2.183   0.943   0.242
 2275SOL    HW1 7114   2.265   0.982   0.200
 2275SOL    HW2 7115   2.156   0.861   0.193
 2276SOL     OW 7116   3.320   0.735   0.728
 2276SOL    HW1 7117   3.315   0.670   0.803
 2276SOL    HW2 7118   3.400   0.794   0.741
 2277SOL     OW 7119   2.323   1.266   1.727
 2277SOL    HW1 7120   2.273   1.267   1.641
 2277SOL    HW2 7121   2.260   1.248   1.803
 2278SOL     OW 7122   2.973   1.776   0.237
 2278SOL    HW1 7123   2.913   1.714   0.287
 2278SOL    HW2 7124   3.004   1.732   0.152
 2279SOL     OW 7125   2.064   0.285   1.498
 2279SOL    HW1 7126   1.984   0.345   1.485
 2279SOL    HW2 7127   2.054   0.236   1.584
 2280SOL     OW 7128   3.494   1.377   0.081
 2280SOL    HW1 7129   3.462   1.471   0.071
 2280SOL    HW2 7130   3.418   1.314   0.069
 2281SOL     OW 7131   2.326   1.743   0.323
 2281SOL    HW1 7132   2.359   1.782   0.409
 2281SOL    HW2 7133   2.402   1.736   0.258
 2282SOL     OW 7134   3.262   0.107   0.426
 2282SOL    HW1 7135   3.238   0.070   0.336
 2282SOL    HW2 7136   3.361   0.123   0.430
 2283SOL     OW 7137   2.111   1.785   1.241
 2283SOL    HW1 7138   2.168   1.720   1.291
 2283SOL    HW2 7139   2.095   1.752   1.148
 2284SOL     OW 7140   2.802   1.698   0.904
 2284SOL    HW1 7141   2.882   1.641   0.925
 2284SOL    HW2 7142   2.753   1.658   0.827
 2285SOL     OW 7143   2.244   0.700   0.480
 2285SOL    HW1 7144   2.289   0.610   0.477
 2285SOL    HW2 7145   2.150   0.689   0.513
 2286SOL     OW 7146   3.409   0.222   1.729
 2286SOL    HW1 7147   3.404   0.259   1.821
 2286SOL    HW2 7148   3.337   0.153   1.717
 2287SOL     OW 7149   2.476   0.122   0.117
 2287SOL    HW1 7150   2.574   0.100   0.124
 2287SOL    HW2 7151   2.445   0.105   0.024
 2288SOL     OW 7152   2.643   0.264   1.749
 2288SOL    HW1 7153   2.710   0.203   1.792
 2288SOL    HW2 7154   2.570   0.283   1.814
 2289SOL     OW 7155   2.750   1.514   1.195
 2289SOL    HW1 7156   2.727   1.489   1.101
 2289SOL    HW2 7157   2.811   1.445   1.234
 2290SOL     OW 7158   3.213   0.590   1.433
 2290SOL    HW1 7159   3.241   0.547   1.518
 2290SOL    HW2 7160   3.238   0.686   1.434
 2291SOL     OW 7161   2.665   1.402   0.924
 2291SOL    HW1 7162   2.755   1.416   0.882
 2291SOL    HW2 7163   2.594   1.404   0.853
 2292SOL     OW 7164   2.784   0.503   0.899
 2292SOL    HW1 7165   2.759   0.494   0.803
 2292SOL    HW2 7166   2.832   0.421   0.930
 2293SOL     OW 7167   2.401   0.064   0.512
 2293SOL    HW1 7168   2.320   0.065   0.570
 2293SOL    HW2 7169   2.404   0.147   0.457
 2294SOL     OW 7170   3.296   1.188   0.041
 2294SOL    HW1 7171   3.328   1.112   0.098
 2294SOL    HW2 7172   3.204   1.215   0.071
 2295SOL     OW 7173   2.159   0.035   0.171
 2295SOL    HW1 7174   2.208   0.119   0.150
 2295SOL    HW2 7175   2.221  -0.030   0.216
 2296SOL     OW 7176   2.797   0.236   0.480
 2296SOL    HW1 7177   2.749   0.277   0.402
 2296SOL    HW2 7178   2.896   0.234   0.461
 2297SOL     OW 7179   2.938   0.683   1.464
 2297SOL    HW1 7180   2.858   0.622   1.467
 2297SOL    HW2 7181   3.019   0.630   1.440
 2298SOL     OW 7182   3.089   1.570   0.793
 2298SOL    HW1 7183   3.110   1.644   0.728
 2298SOL    HW2 7184   3.157   1.570   0.866
 2299SOL     OW 7185   2.321   1.152   0.741
 2299SOL    HW1 7186   2.250   1.125   0.806
 2299SOL    HW2 7187   2.295   1.124   0.648
 2300SOL     OW 7188   3.133   1.797   0.591
 2300SOL    HW1 7189   3.177   1.861   0.527
 2300SOL    HW2 7190   3.083   1.849   0.661
 2301SOL     OW 7191   2.894   0.549   0.016
 2301SOL    HW1 7192   2.853   0.631  -0.023
 2301SOL    HW2 7193   2.958   0.575   0.089
 2302SOL     OW 7194   1.940   0.556   1.386
 2302SOL    HW1 7195   2.032   0.555   1.345
 2302SOL    HW2 7196   1.934   0.630   1.453
 2303SOL     OW 7197   2.423   0.222   1.147
 2303SOL    HW1 7198   2.461   0.138   1.184
 2303SOL    HW2 7199   2.335   0.241   1.191
 2304SOL     OW 7200   2.728   0.454   0.642
 2304SOL    HW1 7201   2.696   0.526   0.580
 2304SOL    HW2 7202   2.752   0.373   0.589
 2305SOL     OW 7203   2.879   0.039   0.753
 2305SOL    HW1 7204   2.807   0.044   0.684
 2305SOL    HW2 7205   2.855  -0.030   0.822
 2306SOL     OW 7206   3.291   1.173   0.867
 2306SOL    HW1 7207   3.236   1.089   0.860
 2306SOL    HW2 7208   3.317   1.202   0.775
 2307SOL     OW 7209   3.328   0.590   0.992
 2307SOL    HW1 7210   3.298   0.495   0.999
 2307SOL    HW2 7211   3.401   0.606   1.058
 2308SOL     OW 7212   3.719   0.833   0.377
 2308SOL    HW1 7213   3.761   0.769   0.441
 2308SOL    HW2 7214   3.681   0.782   0.299
 2309SOL     OW 7215   2.350   1.385   0.174
 2309SOL    HW1 7216   2.263   1.370   0.221
 2309SOL    HW2 7217   2.333   1.411   0.079
 2310SOL     OW 7218   3.526   1.280   0.657
 2310SOL    HW1 7219   3.625   1.288   0.671
 2310SOL    HW2 7220   3.481   1.364   0.688
 2311SOL     OW 7221   3.252   0.575   0.078
 2311SOL    HW1 7222   3.198   0.554   0.159
 2311SOL    HW2 7223   3.343   0.534   0.087
 2312SOL     OW 7224   2.389   0.256   0.328
 2312SOL    HW1 7225   2.416   0.197   0.253
 2312SOL    HW2 7226   2.389   0.351   0.297
 2313SOL     OW 7227   3.616   1.223   1.588
 2313SOL    HW1 7228   3.707   1.184   1.575
 2313SOL    HW2 7229   3.624   1.319   1.612
 2314SOL     OW 7230   2.926   1.347   1.340
 2314SOL    HW1 7231   2.846   1.324   1.395
 2314SOL    HW2 7232   3.009   1.321   1.389
 2315SOL     OW 7233   3.454   1.629   1.625
 2315SOL    HW1 7234   3.481   1.663   1.535
 2315SOL    HW2 7235   3.533   1.591   1.671
 2316SOL     OW 7236   2.973   1.195   1.100
 2316SOL    HW1 7237   2.933   1.239   1.181
 2316SOL    HW2 7238   2.932   1.232   1.017
 2317SOL     OW 7239   3.500   1.099   1.079
 2317SOL    HW1 7240   3.505   1.180   1.138
 2317SOL    HW2 7241   3.414   1.101   1.028
 2318SOL     OW 7242   2.777   0.089   1.402
 2318SOL    HW1 7243   2.802   0.069   1.307
 2318SOL    HW2 7244   2.849   0.145   1.444
 2319SOL     OW 7245   2.842   1.116   1.719
 2319SOL    HW1 7246   2.743   1.122   1.729
 2319SOL    HW2 7247   2.865   1.036   1.663
 2320SOL     OW 7248   2.567   1.050   0.368
 2320SOL    HW1 7249   2.553   1.057   0.467
 2320SOL    HW2 7250   2.651   0.999   0.350
 2321SOL     OW 7251   2.272   0.813   1.251
 2321SOL    HW1 7252   2.358   0.825   1.301
 2321SOL    HW2 7253   2.230   0.726   1.278
 2322SOL     OW 7254   3.136   0.386   1.262
 2322SOL    HW1 7255   3.157   0.460   1.326
 2322SOL    HW2 7256   3.047   0.403   1.219
 2323SOL     OW 7257   1.926   1.564   1.331
 2323SOL    HW1 7258   1.880   1.646   1.297
 2323SOL    HW2 7259   2.024   1.583   1.340
 2324SOL     OW 7260   2.229   1.100   0.501
 2324SOL    HW1 7261   2.222   1.183   0.445
 2324SOL    HW2 7262   2.233   1.020   0.441
 2325SOL     OW 7263   2.428   0.537   0.865
 2325SOL    HW1 7264   2.440   0.603   0.791
 2325SOL    HW2 7265   2.474   0.571   0.948
 2326SOL     OW 7266   3.114   1.348   0.388
 2326SOL    HW1 7267   3.164   1.425   0.428
 2326SOL    HW2 7268   3.019   1.350   0.420
 2327SOL     OW 7269   3.134   1.445   1.142
 2327SOL    HW1 7270   3.181   1.458   1.229
 2327SOL    HW2 7271   3.068   1.371   1.151
 2328SOL     OW 7272   3.444   0.639   0.472
 2328SOL    HW1 7273   3.413   0.700   0.545
 2328SOL    HW2 7274   3.494   0.691   0.403
 2329SOL     OW 7275   2.216   1.510   1.329
 2329SOL    HW1 7276   2.195   1.466   1.242
 2329SOL    HW2 7277   2.313   1.536   1.332
 2330SOL     OW 7278   2.264   0.751   1.598
 2330SOL    HW1 7279   2.332   0.806   1.551
 2330SOL    HW2 7280   2.304   0.663   1.625
 2331SOL     OW 7281   3.449   0.779   1.670
 2331SOL    HW1 7282   3.357   0.817   1.665
 2331SOL    HW2 7283   3.509   0.826   1.605
 2332SOL     OW 7284   2.875   0.105   1.770
 2332SOL    HW1 7285   2.881   0.190   1.718
 2332SOL    HW2 7286   2.907   0.029   1.713
 2333SOL     OW 7287   2.366   0.050   1.740
 2333SOL    HW1 7288   2.324  -0.007   1.670
 2333SOL    HW2 7289   2.300   0.119   1.772
 2334SOL     OW 7290   2.435   0.870   1.029
 2334SOL    HW1 7291   2.479   0.959   1.020
 2334SOL    HW2 7292   2.372   0.870   1.106
 2335SOL     OW 7293   3.222   0.862   1.045
 2335SOL    HW1 7294   3.147   0.862   0.979
 2335SOL    HW2 7295   3.259   0.770   1.054
 2336SOL     OW 7296   3.071   0.525   0.275
 2336SOL    HW1 7297   3.084   0.441   0.329
 2336SOL    HW2 7298   3.042   0.599   0.335
 2337SOL     OW 7299   2.169   0.213   1.231
 2337SOL    HW1 7300   2.146   0.250   1.321
 2337SOL    HW2 7301   2.139   0.118   1.225
 2338SOL     OW 7302   1.899   1.310   1.282
 2338SOL    HW1 7303   1.952   1.261   1.350
 2338SOL    HW2 7304   1.921   1.408   1.287
 2339SOL     OW 7305   2.594   0.634   1.064
 2339SOL    HW1 7306   2.653   0.608   0.988
 2339SOL    HW2 7307   2.566   0.730   1.053
 2340SOL     OW 7308   3.590   0.935   1.854
 2340SOL    HW1 7309   3.544   0.928   1.765
 2340SOL    HW2 7310   3.528   0.979   1.920
 2341SOL     OW 7311   2.169   0.063   0.618
 2341SOL    HW1 7312   2.158   0.157   0.651
 2341SOL    HW2 7313   2.164   0.000   0.695
 2342SOL     OW 7314   3.484   0.367   0.374
 2342SOL    HW1 7315   3.486   0.291   0.438
 2342SOL    HW2 7316   3.436   0.444   0.414
 2343SOL     OW 7317   2.885   0.766   0.966
 2343SOL    HW1 7318   2.900   0.787   1.062
 2343SOL    HW2 7319   2.855   0.671   0.957
 2344SOL     OW 7320   2.842   1.573   1.700
 2344SOL    HW1 7321   2.822   1.617   1.612
 2344SOL    HW2 7322   2.881   1.482   1.684
 2345SOL     OW 7323   3.721   1.518   1.605
 2345SOL    HW1 7324   3.735   1.545   1.510
 2345SOL    HW2 7325   3.804   1.540   1.658
 2346SOL     OW 7326   2.212   0.898   1.804
 2346SOL    HW1 7327   2.288   0.942   1.852
 2346SOL    HW2 7328   2.247   0.851   1.722
 2347SOL     OW 7329   3.402   0.274   0.125
 2347SOL    HW1 7330   3.341   0.199   0.148
 2347SOL    HW2 7331   3.424   0.326   0.208
 2348SOL     OW 7332   3.165   0.838   0.042
 2348SOL    HW1 7333   3.199   0.745   0.057
 2348SOL    HW2 7334   3.183   0.865  -0.053
 2349SOL     OW 7335   2.930   1.333   0.849
 2349SOL    HW1 7336   2.937   1.249   0.794
 2349SOL    HW2 7337   2.992   1.402   0.813
 2350SOL     OW 7338   2.181   0.810   0.949
 2350SOL    HW1 7339   2.274   0.846   0.954
 2350SOL    HW2 7340   2.175   0.725   1.001
 2351SOL     OW 7341   2.201   0.509   1.006
 2351SOL    HW1 7342   2.149   0.426   0.989
 2351SOL    HW2 7343   2.278   0.514   0.942
 2352SOL     OW 7344   3.000   0.380   1.678
 2352SOL    HW1 7345   2.955   0.443   1.742
 2352SOL    HW2 7346   3.093   0.411   1.661
 2353SOL     OW 7347   3.022   0.207   1.477
 2353SOL    HW1 7348   3.022   0.271   1.554
 2353SOL    HW2 7349   3.050   0.255   1.394
 2354SOL     OW 7350   1.950   1.801   0.927
 2354SOL    HW1 7351   1.908   1.715   0.900
 2354SOL    HW2 7352   2.044   1.804   0.893
 2355SOL     OW 7353   2.366   1.568   0.910
 2355SOL    HW1 7354   2.432   1.642   0.919
 2355SOL    HW2 7355   2.410   1.489   0.868
 2356SOL     OW 7356   2.864   0.796   1.238
 2356SOL    HW1 7357   2.905   0.764   1.324
 2356SOL    HW2 7358   2.768   0.769   1.235
 2357SOL     OW 7359   1.902   0.544   1.114
 2357SOL    HW1 7360   1.987   0.511   1.073
 2357SOL    HW2 7361   1.915   0.559   1.212
 2358SOL     OW 7362   2.051   0.520   1.722
 2358SOL    HW1 7363   2.110   0.480   1.652
 2358SOL    HW2 7364   1.993   0.591   1.681
 2359SOL     OW 7365   3.231   0.950   1.660
 2359SOL    HW1 7366   3.270   1.039   1.680
 2359SOL    HW2 7367   3.241   0.930   1.563
 2360SOL     OW 7368   2.677   0.572   0.325
 2360SOL    HW1 7369   2.684   0.483   0.279
 2360SOL    HW2 7370   2.583   0.606   0.317
 2361SOL     OW 7371   3.519   0.604   1.206
 2361SOL    HW1 7372   3.481   0.535   1.268
 2361SOL    HW2 7373   3.601   0.568   1.162
 2362SOL     OW 7374   2.114   1.564   1.744
 2362SOL    HW1 7375   2.084   1.621   1.820
 2362SOL    HW2 7376   2.107   1.467   1.770
 2363SOL     OW 7377   2.533   0.464   1.269
 2363SOL    HW1 7378   2.499   0.375   1.239
 2363SOL    HW2 7379   2.559   0.518   1.189
 2364SOL     OW 7380   2.792   1.678   1.465
 2364SOL    HW1 7381   2.768   1.660   1.370
 2364SOL    HW2 7382   2.822   1.772   1.475
 2365SOL     OW 7383   2.335   0.500   0.191
 2365SOL    HW1 7384   2.396   0.580   0.195
 2365SOL    HW2 7385   2.240   0.531   0.198
 2366SOL     OW 7386   2.021   1.137   1.466
 2366SOL    HW1 7387   2.043   1.076   1.542
 2366SOL    HW2 7388   2.031   1.088   1.380
 2367SOL     OW 7389   3.209   1.059   1.234
 2367SOL    HW1 7390   3.233   0.996   1.160
 2367SOL    HW2 7391   3.119   1.099   1.216
 2368SOL     OW 7392   3.164   0.855   0.309
 2368SOL    HW1 7393   3.078   0.824   0.351
 2368SOL    HW2 7394   3.160   0.841   0.210
 2369SOL     OW 7395   3.621   1.747   1.154
 2369SOL    HW1 7396   3.682   1.777   1.081
 2369SOL    HW2 7397   3.583   1.658   1.132
 2370SOL     OW 7398   3.114   1.731   1.128
 2370SOL    HW1 7399   3.198   1.736   1.074
 2370SOL    HW2 7400   3.091   1.635   1.146
 2371SOL     OW 7401   1.945   1.258   1.022
 2371SOL    HW1 7402   1.940   1.257   1.122
 2371SOL    HW2 7403   1.862   1.217   0.984
 2372SOL     OW 7404   2.550   1.662   1.716
 2372SOL    HW1 7405   2.494   1.743   1.725
 2372SOL    HW2 7406   2.602   1.666   1.630
 2373SOL     OW 7407   2.765   0.086   0.133
 2373SOL    HW1 7408   2.816   0.087   0.047
 2373SOL    HW2 7409   2.821   0.044   0.204
 2374SOL     OW 7410   3.588   0.135   0.523
 2374SOL    HW1 7411   3.661   0.118   0.456
 2374SOL    HW2 7412   3.557   0.048   0.561
 2375SOL     OW 7413   3.250   1.573   0.477
 2375SOL    HW1 7414   3.317   1.585   0.403
 2375SOL    HW2 7415   3.210   1.662   0.500
 2376SOL     OW 7416   1.992   1.794   1.851
 2376SOL    HW1 7417   1.951   1.720   1.904
 2376SOL    HW2 7418   2.056   1.845   1.909
 2377SOL     OW 7419   3.142   0.927   0.672
 2377SOL    HW1 7420   3.202   0.846   0.674
 2377SOL    HW2 7421   3.182   0.996   0.612
 2378SOL     OW 7422   2.692   1.273   1.422
 2378SOL    HW1 7423   2.687   1.306   1.517
 2378SOL    HW2 7424   2.606   1.292   1.376
 2379SOL     OW 7425   2.534   1.616   0.154
 2379SOL    HW1 7426   2.543   1.626   0.055
 2379SOL    HW2 7427   2.494   1.527   0.175
 2380SOL     OW 7428   3.512   1.720   1.394
 2380SOL    HW1 7429   3.565   1.730   1.310
 2380SOL    HW2 7430   3.485   1.810   1.428
 2381SOL     OW 7431   3.703   0.175   0.963
 2381SOL    HW1 7432   3.742   0.090   0.927
 2381SOL    HW2 7433   3.605   0.177   0.944
 2382SOL     OW 7434   2.125   0.326   0.720
 2382SOL    HW1 7435   2.046   0.377   0.686
 2382SOL    HW2 7436   2.116   0.311   0.818
 2383SOL     OW 7437   3.056   1.612   0.031
 2383SOL    HW1 7438   3.062   1.519   0.068
 2383SOL    HW2 7439   2.997   1.612  -0.049
 2384SOL     OW 7440   2.684   1.002   1.372
 2384SOL    HW1 7441   2.724   1.001   1.280
 2384SOL    HW2 7442   2.694   1.094   1.412
 2385SOL     OW 7443   2.778   0.910   0.291
 2385SOL    HW1 7444   2.841   0.948   0.223
 2385SOL    HW2 7445   2.818   0.827   0.330
 2386SOL     OW 7446   3.366   1.607   0.044
 2386SOL    HW1 7447   3.274   1.644   0.051
 2386SOL    HW2 7448   3.404   1.627  -0.046
 2387SOL     OW 7449   2.234   1.288   1.490
 2387SOL    HW1 7450   2.221   1.381   1.456
 2387SOL    HW2 7451   2.150   1.236   1.477
 2388SOL     OW 7452   3.476   1.292   1.289
 2388SOL    HW1 7453   3.536   1.295   1.369
 2388SOL    HW2 7454   3.401   1.356   1.302
 2389SOL     OW 7455   2.901   1.098   0.696
 2389SOL    HW1 7456   2.831   1.051   0.750
 2389SOL    HW2 7457   2.960   1.030   0.653
 2390SOL     OW 7458   2.876   0.236   0.971
 2390SOL    HW1 7459   2.868   0.200   0.878
 2390SOL    HW2 7460   2.874   0.160   1.036
 2391SOL     OW 7461   2.452   1.487   0.491
 2391SOL    HW1 7462   2.494   1.429   0.421
 2391SOL    HW2 7463   2.408   1.566   0.447
 2392SOL     OW 7464   3.571   0.385   1.381
 2392SOL    HW1 7465   3.644   0.454   1.385
 2392SOL    HW2 7466   3.599   0.310   1.322
 2393SOL     OW 7467   2.117   1.348   0.290
 2393SOL    HW1 7468   2.021   1.349   0.263
 2393SOL    HW2 7469   2.129   1.401   0.374
 2394SOL     OW 7470   1.967   1.013   1.726
 2394SOL    HW1 7471   1.890   0.980   1.780
 2394SOL    HW2 7472   2.052   0.983   1.768
 2395SOL     OW 7473   2.534   0.203   1.489
 2395SOL    HW1 7474   2.624   0.187   1.449
 2395SOL    HW2 7475   2.542   0.208   1.588
 2396SOL     OW 7476   1.937   0.345   0.033
 2396SOL    HW1 7477   1.845   0.317   0.004
 2396SOL    HW2 7478   1.968   0.422  -0.023
 2397SOL     OW 7479   3.302   0.856   1.398
 2397SOL    HW1 7480   3.245   0.908   1.335
 2397SOL    HW2 7481   3.398   0.868   1.374
 2398SOL     OW 7482   1.934   0.166   0.318
 2398SOL    HW1 7483   1.917   0.249   0.264
 2398SOL    HW2 7484   2.024   0.129   0.296
 2399SOL     OW 7485   3.045   1.335   0.119
 2399SOL    HW1 7486   2.946   1.324   0.121
 2399SOL    HW2 7487   3.079   1.350   0.212
 2400SOL     OW 7488   2.475   0.842   1.431
 2400SOL    HW1 7489   2.531   0.923   1.414
 2400SOL    HW2 7490   2.534   0.762   1.434
 2401SOL     OW 7491   3.355   1.767   0.959
 2401SOL    HW1 7492   3.388   1.831   0.890
 2401SOL    HW2 7493   3.421   1.761   1.034
 2402SOL     OW 7494   2.578   0.565   1.708
 2402SOL    HW1 7495   2.597   0.630   1.782
 2402SOL    HW2 7496   2.638   0.485   1.717
 2403SOL     OW 7497   3.312   1.220   1.633
 2403SOL    HW1 7498   3.303   1.210   1.732
 2403SOL    HW2 7499   3.408   1.213   1.607
 2404SOL     OW 7500   2.252   1.741   1.560
 2404SOL    HW1 7501   2.161   1.782   1.558
 2404SOL    HW2 7502   2.245   1.647   1.592
 2405SOL     OW 7503   3.536   0.883   1.254
 2405SOL    HW1 7504   3.509   0.794   1.217
 2405SOL    HW2 7505   3.537   0.951   1.181
 2406SOL     OW 7506   3.087   0.325   0.449
 2406SOL    HW1 7507   3.152   0.251   0.438
 2406SOL    HW2 7508   3.107   0.375   0.533
 2407SOL     OW 7509   2.456   0.745   0.652
 2407SOL    HW1 7510   2.506   0.830   0.633
 2407SOL    HW2 7511   2.368   0.747   0.604
 2408SOL     OW 7512   3.639   0.342   1.642
 2408SOL    HW1 7513   3.622   0.373   1.548
 2408SOL    HW2 7514   3.555   0.305   1.680
 2409SOL     OW 7515   3.592   0.934   1.517
 2409SOL    HW1 7516   3.630   1.025   1.532
 2409SOL    HW2 7517   3.584   0.917   1.418
 2410SOL     OW 7518   2.721   1.374   0.016
 2410SOL    HW1 7519   2.675   1.389   0.104
 2410SOL    HW2 7520   2.765   1.459  -0.014
 2411SOL     OW 7521   2.523   1.790   0.953
 2411SOL    HW1 7522   2.477   1.878   0.940
 2411SOL    HW2 7523   2.622   1.802   0.946
 2412SOL     OW 7524   2.721   0.956   0.861
 2412SOL    HW1 7525   2.775   0.887   0.909
 2412SOL    HW2 7526   2.689   1.025   0.927
 2413SOL     OW 7527   2.945   0.984   0.087
 2413SOL    HW1 7528   2.922   1.037   0.005
 2413SOL    HW2 7529   3.026   0.928   0.068
 2414SOL     OW 7530   3.723   1.569   0.851
 2414SOL    HW1 7531   3.652   1.557   0.781
 2414SOL    HW2 7532   3.724   1.490   0.911
 2415SOL     OW 7533   2.083   1.314   1.844
 2415SOL    HW1 7534   2.018   1.241   1.823
 2415SOL    HW2 7535   2.087   1.328   1.942
 2416SOL     OW 7536   1.941   1.240   0.653
 2416SOL    HW1 7537   1.940   1.193   0.741
 2416SOL    HW2 7538   2.023   1.212   0.602
 2417SOL     OW 7539   2.534   1.391   1.624
 2417SOL    HW1 7540   2.456   1.341   1.662
 2417SOL    HW2 7541   2.531   1.486   1.655
 2418SOL     OW 7542   3.686   0.192   1.227
 2418SOL    HW1 7543   3.682   0.102   1.271
 2418SOL    HW2 7544   3.689   0.181   1.128
 2419SOL     OW 7545   2.290   0.424   0.520
 2419SOL    HW1 7546   2.320   0.352   0.458
 2419SOL    HW2 7547   2.251   0.384   0.603
 2420SOL     OW 7548   3.567   1.487   1.104
 2420SOL    HW1 7549   3.474   1.462   1.077
 2420SOL    HW2 7550   3.593   1.437   1.186
 2421SOL     OW 7551   2.179   0.547   1.280
 2421SOL    HW1 7552   2.217   0.488   1.352
 2421SOL    HW2 7553   2.219   0.521   1.192
 2422SOL     OW 7554   2.674   1.586   0.687
 2422SOL    HW1 7555   2.706   1.596   0.593
 2422SOL    HW2 7556   2.595   1.524   0.689
 2423SOL     OW 7557   3.286   0.214   1.112
 2423SOL    HW1 7558   3.338   0.149   1.167
 2423SOL    HW2 7559   3.237   0.277   1.173
 2424SOL     OW 7560   2.863   0.034   1.154
 2424SOL    HW1 7561   2.800  -0.038   1.123
 2424SOL    HW2 7562   2.956  -0.002   1.154
 2425SOL     OW 7563   2.632   1.330   0.301
 2425SOL    HW1 7564   2.586   1.243   0.318
 2425SOL    HW2 7565   2.723   1.327   0.342
 2426SOL     OW 7566   2.480   1.567   1.284
 2426SOL    HW1 7567   2.475   1.649   1.341
 2426SOL    HW2 7568   2.569   1.564   1.239
 2427SOL     OW 7569   3.214   0.052   0.168
 2427SOL    HW1 7570   3.249   0.011   0.084
 2427SOL    HW2 7571   3.124   0.014   0.188
 2428SOL     OW 7572   3.162   0.453   0.691
 2428SOL    HW1 7573   3.103   0.533   0.695
 2428SOL    HW2 7574   3.177   0.418   0.784
 2429SOL     OW 7575   3.455   0.221   0.882
 2429SOL    HW1 7576   3.371   0.220   0.936
 2429SOL    HW2 7577   3.457   0.304   0.826
 2430SOL     OW 7578   1.901   1.077   0.300
 2430SOL    HW1 7579   2.000   1.066   0.291
 2430SOL    HW2 7580   1.861   0.991   0.332
 2431SOL     OW 7581   2.737   1.646   0.337
 2431SOL    HW1 7582   2.660   1.611   0.283
 2431SOL    HW2 7583   2.705   1.717   0.399
 2432SOL     OW 7584   2.092   0.628   1.975
 2432SOL    HW1 7585   1.999   0.626   2.012
 2432SOL    HW2 7586   2.093   0.589   1.883
 2433SOL     OW 7587   2.087   0.275   2.858
 2433SOL    HW1 7588   2.122   0.258   2.950
 2433SOL    HW2 7589   1.999   0.230   2.846
 2434SOL     OW 7590   1.881   0.368   2.509
 2434SOL    HW1 7591   1.799   0.411   2.548
 2434SOL    HW2 7592   1.853   0.295   2.446
 2435SOL     OW 7593   2.431   1.275   3.027
 2435SOL    HW1 7594   2.338   1.268   2.990
 2435SOL    HW2 7595   2.442   1.364   3.071
 2436SOL     OW 7596   3.417   1.511   2.565
 2436SOL    HW1 7597   3.360   1.495   2.646
 2436SOL    HW2 7598   3.358   1.521   2.485
 2437SOL     OW 7599   2.997   0.703   2.579
 2437SOL    HW1 7600   3.054   0.781   2.554
 2437SOL    HW2 7601   2.937   0.729   2.655
 2438SOL     OW 7602   3.617   0.607   2.093
 2438SOL    HW1 7603   3.605   0.594   1.994
 2438SOL    HW2 7604   3.587   0.526   2.142
 2439SOL     OW 7605   2.630   1.144   2.885
 2439SOL    HW1 7606   2.552   1.161   2.945
 2439SOL    HW2 7607   2.664   1.231   2.849
 2440SOL     OW 7608   2.712   0.798   3.685
 2440SOL    HW1 7609   2.708   0.874   3.750
 2440SOL    HW2 7610   2.734   0.834   3.594
 2441SOL     OW 7611   2.547   1.012   2.527
 2441SOL    HW1 7612   2.616   0.996   2.597
 2441SOL    HW2 7613   2.474   1.069   2.565
 2442SOL     OW 7614   2.548   1.161   3.665
 2442SOL    HW1 7615   2.608   1.240   3.679
 2442SOL    HW2 7616   2.462   1.192   3.624
 2443SOL     OW 7617   2.197   1.435   2.923
 2443SOL    HW1 7618   2.119   1.404   2.870
 2443SOL    HW2 7619   2.255   1.493   2.866
 2444SOL     OW 7620   3.322   1.505   3.201
 2444SOL    HW1 7621   3.346   1.599   3.227
 2444SOL    HW2 7622   3.306   1.451   3.283
 2445SOL     OW 7623   2.300   0.392   3.361
 2445SOL    HW1 7624   2.382   0.336   3.370
 2445SOL    HW2 7625   2.219   0.334   3.365
 2446SOL     OW 7626   3.465   0.447   2.599
 2446SOL    HW1 7627   3.391   0.493   2.549
 2446SOL    HW2 7628   3.516   0.515   2.652
 2447SOL     OW 7629   2.093   1.713   2.345
 2447SOL    HW1 7630   2.127   1.790   2.399
 2447SOL    HW2 7631   2.137   1.713   2.255
 2448SOL     OW 7632   2.989   1.341   3.552
 2448SOL    HW1 7633   3.036   1.341   3.640
 2448SOL    HW2 7634   2.941   1.254   3.541
 2449SOL     OW 7635   2.092   1.434   2.400
 2449SOL    HW1 7636   2.066   1.530   2.400
 2449SOL    HW2 7637   2.021   1.380   2.445
 2450SOL     OW 7638   2.102   1.091   2.748
 2450SOL    HW1 7639   2.116   1.007   2.800
 2450SOL    HW2 7640   2.047   1.155   2.803
 2451SOL     OW 7641   2.482   1.786   3.301
 2451SOL    HW1 7642   2.390   1.769   3.336
 2451SOL    HW2 7643   2.510   1.878   3.327
 2452SOL     OW 7644   2.468   0.964   1.985
 2452SOL    HW1 7645   2.475   1.048   1.931
 2452SOL    HW2 7646   2.514   0.977   2.073
 2453SOL     OW 7647   3.456   0.114   3.342
 2453SOL    HW1 7648   3.438   0.181   3.270
 2453SOL    HW2 7649   3.453   0.160   3.431
 2454SOL     OW 7650   1.984   0.643   2.425
 2454SOL    HW1 7651   1.939   0.555   2.442
 2454SOL    HW2 7652   1.983   0.697   2.509
 2455SOL     OW 7653   3.704   1.767   2.221
 2455SOL    HW1 7654   3.758   1.738   2.301
 2455SOL    HW2 7655   3.734   1.857   2.192
 2456SOL     OW 7656   1.889   1.596   1.979
 2456SOL    HW1 7657   1.870   1.500   2.000
 2456SOL    HW2 7658   1.856   1.654   2.054
 2457SOL     OW 7659   3.551   0.922   2.474
 2457SOL    HW1 7660   3.646   0.893   2.482
 2457SOL    HW2 7661   3.543   0.987   2.399
 2458SOL     OW 7662   3.503   1.108   2.294
 2458SOL    HW1 7663   3.589   1.110   2.242
 2458SOL    HW2 7664   3.517   1.155   2.382
 2459SOL     OW 7665   1.975   0.737   3.459
 2459SOL    HW1 7666   2.063   0.724   3.504
 2459SOL    HW2 7667   1.962   0.834   3.437
 2460SOL     OW 7668   2.475   1.365   2.588
 2460SOL    HW1 7669   2.426   1.278   2.597
 2460SOL    HW2 7670   2.452   1.408   2.501
 2461SOL     OW 7671   3.155   1.228   3.285
 2461SOL    HW1 7672   3.192   1.155   3.227
 2461SOL    HW2 7673   3.207   1.233   3.370
 2462SOL     OW 7674   2.671   0.004   2.364
 2462SOL    HW1 7675   2.711   0.095   2.355
 2462SOL    HW2 7676   2.571   0.012   2.370
 2463SOL     OW 7677   2.059   0.976   3.126
 2463SOL    HW1 7678   2.148   0.931   3.112
 2463SOL    HW2 7679   1.986   0.911   3.107
 2464SOL     OW 7680   3.387   0.999   2.052
 2464SOL    HW1 7681   3.324   0.923   2.065
 2464SOL    HW2 7682   3.435   1.017   2.138
 2465SOL     OW 7683   3.049   1.792   3.478
 2465SOL    HW1 7684   3.073   1.852   3.402
 2465SOL    HW2 7685   3.056   1.697   3.448
 2466SOL     OW 7686   2.179   0.251   3.663
 2466SOL    HW1 7687   2.250   0.322   3.669
 2466SOL    HW2 7688   2.091   0.290   3.691
 2467SOL     OW 7689   3.328   1.417   2.815
 2467SOL    HW1 7690   3.269   1.423   2.895
 2467SOL    HW2 7691   3.313   1.329   2.769
 2468SOL     OW 7692   3.529   1.714   2.434
 2468SOL    HW1 7693   3.488   1.691   2.346
 2468SOL    HW2 7694   3.511   1.640   2.499
 2469SOL     OW 7695   2.460   0.729   2.132
 2469SOL    HW1 7696   2.484   0.798   2.064
 2469SOL    HW2 7697   2.382   0.762   2.186
 2470SOL     OW 7698   3.143   0.345   2.806
 2470SOL    HW1 7699   3.057   0.295   2.793
 2470SOL    HW2 7700   3.205   0.291   2.862
 2471SOL     OW 7701   3.438   1.662   2.169
 2471SOL    HW1 7702   3.527   1.708   2.172
 2471SOL    HW2 7703   3.417   1.638   2.074
 2472SOL     OW 7704   2.669   0.605   3.327
 2472SOL    HW1 7705   2.622   0.602   3.416
 2472SOL    HW2 7706   2.618   0.550   3.261
 2473SOL     OW 7707   3.256   0.469   3.536
 2473SOL    HW1 7708   3.236   0.512   3.624
 2473SOL    HW2 7709   3.334   0.407   3.545
 2474SOL     OW 7710   2.835   0.890   3.434
 2474SOL    HW1 7711   2.881   0.806   3.405
 2474SOL    HW2 7712   2.779   0.924   3.359
 2475SOL     OW 7713   2.853   0.410   3.104
 2475SOL    HW1 7714   2.776   0.444   3.158
 2475SOL    HW2 7715   2.819   0.359   3.025
 2476SOL     OW 7716   2.903   0.701   2.291
 2476SOL    HW1 7717   2.929   0.697   2.387
 2476SOL    HW2 7718   2.818   0.650   2.277
 2477SOL     OW 7719   1.938   0.811   2.651
 2477SOL    HW1 7720   2.037   0.799   2.660
 2477SOL    HW2 7721   1.914   0.906   2.672
 2478SOL     OW 7722   1.992   1.821   3.433
 2478SOL    HW1 7723   1.982   1.806   3.532
 2478SOL    HW2 7724   1.906   1.857   3.397
 2479SOL     OW 7725   2.727   0.348   2.057
 2479SOL    HW1 7726   2.786   0.411   2.008
 2479SOL    HW2 7727   2.746   0.254   2.028
 2480SOL     OW 7728   3.581   0.585   3.693
 2480SOL    HW1 7729   3.555   0.674   3.657
 2480SOL    HW2 7730   3.579   0.517   3.620
 2481SOL     OW 7731   3.224   1.144   2.407
 2481SOL    HW1 7732   3.307   1.115   2.359
 2481SOL    HW2 7733   3.175   1.211   2.351
 2482SOL     OW 7734   2.412   0.196   2.747
 2482SOL    HW1 7735   2.407   0.191   2.847
 2482SOL    HW2 7736   2.414   0.292   2.718
 2483SOL     OW 7737   2.870   1.456   2.339
 2483SOL    HW1 7738   2.824   1.528   2.287
 2483SOL    HW2 7739   2.866   1.476   2.437
 2484SOL     OW 7740   2.213   1.801   2.715
 2484SOL    HW1 7741   2.263   1.715   2.721
 2484SOL    HW2 7742   2.278   1.878   2.712
 2485SOL     OW 7743   3.657   1.066   2.735
 2485SOL    HW1 7744   3.595   1.051   2.659
 2485SOL    HW2 7745   3.605   1.077   2.820
 2486SOL     OW 7746   3.089   1.550   3.368
 2486SOL    HW1 7747   3.095   1.473   3.432
 2486SOL    HW2 7748   3.037   1.524   3.288
 2487SOL     OW 7749   2.183   0.943   2.104
 2487SOL    HW1 7750   2.265   0.982   2.062
 2487SOL    HW2 7751   2.156   0.861   2.055
 2488SOL     OW 7752   3.320   0.735   2.590
 2488SOL    HW1 7753   3.315   0.670   2.665
 2488SOL    HW2 7754   3.400   0.794   2.603
 2489SOL     OW 7755   2.323   1.266   3.589
 2489SOL    HW1 7756   2.273   1.267   3.503
 2489SOL    HW2 7757   2.260   1.248   3.665
 2490SOL     OW 7758   2.973   1.776   2.099
 2490SOL    HW1 7759   2.913   1.714   2.149
 2490SOL    HW2 7760   3.004   1.732   2.014
 2491SOL     OW 7761   2.064   0.285   3.360
 2491SOL    HW1 7762   1.984   0.345   3.347
 2491SOL    HW2 7763   2.054   0.236   3.446
 2492SOL     OW 7764   3.494   1.377   1.943
 2492SOL    HW1 7765   3.462   1.471   1.933
 2492SOL    HW2 7766   3.418   1.314   1.931
 2493SOL     OW 7767   2.326   1.743   2.185
 2493SOL    HW1 7768   2.359   1.782   2.271
 2493SOL    HW2 7769   2.402   1.736   2.120
 2494SOL     OW 7770   3.262   0.107   2.288
 2494SOL    HW1 7771   3.238   0.070   2.198
 2494SOL    HW2 7772   3.361   0.123   2.292
 2495SOL     OW 7773   2.111   1.785   3.103
 2495SOL    HW1 7774   2.168   1.720   3.153
 2495SOL    HW2 7775   2.095   1.752   3.010
 2496SOL     OW 7776   2.802   1.698   2.766
 2496SOL    HW1 7777   2.882   1.641   2.787
 2496SOL    HW2 7778   2.753   1.658   2.689
 2497SOL     OW 7779   2.244   0.700   2.342
 2497SOL    HW1 7780   2.289   0.610   2.339
 2497SOL    HW2 7781   2.150   0.689   2.375
 2498SOL     OW 7782   3.409   0.222   3.591
 2498SOL    HW1 7783   3.404   0.259   3.683
 2498SOL    HW2 7784   3.337   0.153   3.579
 2499SOL     OW 7785   2.476   0.122   1.979
 2499SOL    HW1 7786   2.574   0.100   1.986
 2499SOL    HW2 7787   2.445   0.105   1.886
 2500SOL     OW 7788   2.643   0.264   3.611
 2500SOL    HW1 7789   2.710   0.203   3.654
 2500SOL    HW2 7790   2.570   0.283   3.676
 2501SOL     OW 7791   2.750   1.514   3.057
 2501SOL    HW1 7792   2.727   1.489   2.963
 2501SOL    HW2 7793   2.811   1.445   3.096
 2502SOL     OW 7794   3.213   0.590   3.295
 2502SOL    HW1 7795   3.241   0.547   3.380
 2502SOL    HW2 7796   3.238   0.686   3.296
 2503SOL     OW 7797   2.665   1.402   2.786
 2503SOL    HW1 7798   2.755   1.416   2.744
 2503SOL    HW2 7799   2.594   1.404   2.715
 2504SOL     OW 7800   2.784   0.503   2.761
 2504SOL    HW1 7801   2.759   0.494   2.665
 2504SOL    HW2 7802   2.832   0.421   2.792
 2505SOL     OW 7803   2.401   0.064   2.374
 2505SOL    HW1 7804   2.320   0.065   2.432
 2505SOL    HW2 7805   2.404   0.147   2.319
 2506SOL     OW 7806   3.296   1.188   1.903
 2506SOL    HW1 7807   3.328   1.112   1.960
 2506SOL    HW2 7808   3.204   1.215   1.933
 2507SOL     OW 7809   2.159   0.035   2.033
 2507SOL    HW1 7810   2.208   0.119   2.012
 2507SOL    HW2 7811   2.221  -0.030   2.078
 2508SOL     OW 7812   2.797   0.236   2.342
 2508SOL    HW1 7813   2.749   0.277   2.264
 2508SOL    HW2 7814   2.896   0.234   2.323
 2509SOL     OW 7815   2.938   0.683   3.326
 2509SOL    HW1 7816   2.858   0.622   3.329
 2509SOL    HW2 7817   3.019   0.630   3.302
 2510SOL     OW 7818   3.089   1.570   2.655
 2510SOL    HW1 7819   3.110   1.644   2.590
 2510SOL    HW2 7820   3.157   1.570   2.728
 2511SOL     OW 7821   2.321   1.152   2.603
 2511SOL    HW1 7822   2.250   1.125   2.668
 2511SOL    HW2 7823   2.295   1.124   2.510
 2512SOL     OW 7824   3.133   1.797   2.453
 2512SOL    HW1 7825   3.177   1.861   2.389
 2512SOL    HW2 7826   3.083   1.849   2.523
 2513SOL     OW 7827   2.894   0.549   1.878
 2513SOL    HW1 7828   2.853   0.631   1.839
 2513SOL    HW2 7829   2.958   0.575   1.951
 2514SOL     OW 7830   1.940   0.556   3.248
 2514SOL    HW1 7831   2.032   0.555   3.207
 2514SOL    HW2 7832   1.934   0.630   3.315
 2515SOL     OW 7833   2.423   0.222   3.009
 2515SOL    HW1 7834   2.461   0.138   3.046
 2515SOL    HW2 7835   2.335   0.241   3.053
 2516SOL     OW 7836   2.728   0.454   2.504
 2516SOL    HW1 7837   2.696   0.526   2.442
 2516SOL    HW2 7838   2.752   0.373   2.451
 2517SOL     OW 7839   2.879   0.039   2.615
 2517SOL    HW1 7840   2.807   0.044   2.546
 2517SOL    HW2 7841   2.855  -0.030   2.684
 2518SOL     OW 7842   3.291   1.173   2.729
 2518SOL    HW1 7843   3.236   1.089   2.722
 2518SOL    HW2 7844   3.317   1.202   2.637
 2519SOL     OW 7845   3.328   0.590   2.854
 2519SOL    HW1 7846   3.298   0.495   2.861
 2519SOL    HW2 7847   3.401   0.606   2.920
 2520SOL     OW 7848   3.719   0.833   2.239
 2520SOL    HW1 7849   3.761   0.769   2.303
 2520SOL    HW2 7850   3.681   0.782   2.161
 2521SOL     OW 7851   2.350   1.385   2.036
 2521SOL    HW1 7852   2.263   1.370   2.083
 2521SOL    HW2 7853   2.333   1.411   1.941
 2522SOL     OW 7854   3.526   1.280   2.519
 2522SOL    HW1 7855   3.625   1.288   2.533
 2522SOL    HW2 7856   3.481   1.364   2.550
 2523SOL     OW 7857   3.252   0.575   1.940
 2523SOL    HW1 7858   3.198   0.554   2.021
 2523SOL    HW2 7859   3.343   0.534   1.949
 2524SOL     OW 7860   2.389   0.256   2.190
 2524SOL    HW1 7861   2.416   0.197   2.115
 2524SOL    HW2 7862   2.389   0.351   2.159
 2525SOL     OW 7863   3.616   1.223   3.450
 2525SOL    HW1 7864   3.707   1.184   3.437
 2525SOL    HW2 7865   3.624   1.319   3.474
 2526SOL     OW 7866   2.926   1.347   3.202
 2526SOL    HW1 7867   2.846   1.324   3.257
 2526SOL    HW2 7868   3.009   1.321   3.251
 2527SOL     OW 7869   3.454   1.629   3.487
 2527SOL    HW1 7870   3.481   1.663   3.397
 2527SOL    HW2 7871   3.533   1.591   3.533
 2528SOL     OW 7872   2.973   1.195   2.962
 2528SOL    HW1 7873   2.933   1.239   3.043
 2528SOL    HW2 7874   2.932   1.232   2.879
 2529SOL     OW 7875   3.500   1.099   2.941
 2529SOL    HW1 7876   3.505   1.180   3.000
 2529SOL    HW2 7877   3.414   1.101   2.890
 2530SOL     OW 7878   2.777   0.089   3.264
 2530SOL    HW1 7879   2.802   0.069   3.169
 2530SOL    HW2 7880   2.849   0.145   3.306
 2531SOL     OW 7881   2.842   1.116   3.581
 2531SOL    HW1 7882   2.743   1.122   3.591
 2531SOL    HW2 7883   2.865   1.036   3.525
 2532SOL     OW 7884   2.567   1.050   2.230
 2532SOL    HW1 7885   2.553   1.057   2.329
 2532SOL    HW2 7886   2.651   0.999   2.212
 2533SOL     OW 7887   2.272   0.813   3.113
 2533SOL    HW1 7888   2.358   0.825   3.163
 2533SOL    HW2 7889   2.230   0.726   3.140
 2534SOL     OW 7890   3.136   0.386   3.124
 2534SOL    HW1 7891   3.157   0.460   3.188
 2534SOL    HW2 7892   3.047   0.403   3.081
 2535SOL     OW 7893   1.926   1.564   3.193
 2535SOL    HW1 7894   1.880   1.646   3.159
 2535SOL    HW2 7895   2.024   1.583   3.202
 2536SOL     OW 7896   2.229   1.100   2.363
 2536SOL    HW1 7897   2.222   1.183   2.307
 2536SOL    HW2 7898   2.233   1.020   2.303
 2537SOL     OW 7899   2.428   0.537   2.727
 2537SOL    HW1 7900   2.440   0.603   2.653
 2537SOL    HW2 7901   2.474   0.571   2.810
 2538SOL     OW 7902   3.114   1.348   2.250
 2538SOL    HW1 7903   3.164   1.425   2.290
 2538SOL    HW2 7904   3.019   1.350   2.282
 2539SOL     OW 7905   3.134   1.445   3.004
 2539SOL    HW1 7906   3.181   1.458   3.091
 2539SOL    HW2 7907   3.068   1.371   3.013
 2540SOL     OW 7908   3.444   0.639   2.334
 2540SOL    HW1 7909   3.413   0.700   2.407
 2540SOL    HW2 7910   3.494   0.691   2.265
 2541SOL     OW 7911   2.216   1.510   3.191
 2541SOL    HW1 7912   2.195   1.466   3.104
 2541SOL    HW2 7913   2.313   1.536   3.194
 2542SOL     OW 7914   2.264   0.751   3.460
 2542SOL    HW1 7915   2.332   0.806   3.413
 2542SOL    HW2 7916   2.304   0.663   3.487
 2543SOL     OW 7917   3.449   0.779   3.532
 2543SOL    HW1 7918   3.357   0.817   3.527
 2543SOL    HW2 7919   3.509   0.826   3.467
 2544SOL     OW 7920   2.875   0.105   3.632
 2544SOL    HW1 7921   2.881   0.190   3.580
 2544SOL    HW2 7922   2.907   0.029   3.575
 2545SOL     OW 7923   2.366   0.050   3.602
 2545SOL    HW1 7924   2.324  -0.007   3.532
 2545SOL    HW2 7925   2.300   0.119   3.634
 2546SOL     OW 7926   2.435   0.870   2.891
 2546SOL    HW1 7927   2.479   0.959   2.882
 2546SOL    HW2 7928   2.372   0.870   2.968
 2547SOL     OW 7929   3.222   0.862   2.907
 2547SOL    HW1 7930   3.147   0.862   2.841
 2547SOL    HW2 7931   3.259   0.770   2.916
 2548SOL     OW 7932   3.071   0.525   2.137
 2548SOL    HW1 7933   3.084   0.441   2.191
 2548SOL    HW2 7934   3.042   0.599   2.197
 2549SOL     OW 7935   2.169   0.213   3.093
 2549SOL    HW1 7936   2.146   0.250   3.183
 2549SOL    HW2 7937   2.139   0.118   3.087
 2550SOL     OW 7938   1.899   1.310   3.144
 2550SOL    HW1 7939   1.952   1.261   3.212
 2550SOL    HW2 7940   1.921   1.408   3.149
 2551SOL     OW 7941   2.594   0.634   2.926
 2551SOL    HW1 7942   2.653   0.608   2.850
 2551SOL    HW2 7943   2.566   0.730   2.915
 2552SOL     OW 7944   3.590   0.935   3.716
 2552SOL    HW1 7945   3.544   0.928   3.627
 2552SOL    HW2 7946   3.528   0.979   3.782
 2553SOL     OW 7947   2.169   0.063   2.480
 2553SOL    HW1 7948   2.158   0.157   2.513
 2553SOL    HW2 7949   2.164   0.000   2.557
 2554SOL     OW 7950   3.484   0.367   2.236
 2554SOL    HW1 7951   3.486   0.291   2.300
 2554SOL    HW2 7952   3.436   0.444   2.276
 2555SOL     OW 7953   2.885   0.766   2.828
 2555SOL    HW1 7954   2.900   0.787   2.924
 2555SOL    HW2 7955   2.855   0.671   2.819
 2556SOL     OW 7956   2.842   1.573   3.562
 2556SOL    HW1 7957   2.822   1.617   3.474
 2556SOL    HW2 7958   2.881   1.482   3.546
 2557SOL     OW 7959   3.721   1.518   3.467
 2557SOL    HW1 7960   3.735   1.545   3.372
 2557SOL    HW2 7961   3.804   1.540   3.520
 2558SOL     OW 7962   2.212   0.898   3.666
 2558SOL    HW1 7963   2.288   0.942   3.714
 2558SOL    HW2 7964   2.247   0.851   3.584
 2559SOL     OW 7965   3.402   0.274   1.987
 2559SOL    HW1 7966   3.341   0.199   2.010
 2559SOL    HW2 7967   3.424   0.326   2.070
 2560SOL     OW 7968   3.165   0.838   1.904
 2560SOL    HW1 7969   3.199   0.745   1.919
 2560SOL    HW2 7970   3.183   0.865   1.809
 2561SOL     OW 7971   2.930   1.333   2.711
 2561SOL    HW1 7972   2.937   1.249   2.656
 2561SOL    HW2 7973   2.992   1.402   2.675
 2562SOL     OW 7974   2.181   0.810   2.811
 2562SOL    HW1 7975   2.274   0.846   2.816
 2562SOL    HW2 7976   2.175   0.725   2.863
 2563SOL     OW 7977   2.201   0.509   2.868
 2563SOL    HW1 7978   2.149   0.426   2.851
 2563SOL    HW2 7979   2.278   0.514   2.804
 2564SOL     OW 7980   3.000   0.380   3.540
 2564SOL    HW1 7981   2.955   0.443   3.604
 2564SOL    HW2 7982   3.093   0.411   3.523
 2565SOL     OW 7983   3.022   0.207   3.339
 2565SOL    HW1 7984   3.022   0.271   3.416
 2565SOL    HW2 7985   3.050   0.255   3.256
 2566SOL     OW 7986   1.870   1.326   2.062
 2566SOL    HW1 7987   1.777   1.347   2.031
 2566SOL    HW2 7988   1.880   1.227   2.075
 2567SOL     OW 7989   1.950   1.801   2.789
 2567SOL    HW1 7990   1.908   1.715   2.762
 2567SOL    HW2 7991   2.044   1.804   2.755
 2568SOL     OW 7992   2.366   1.568   2.772
 2568SOL    HW1 7993   2.432   1.642   2.781
 2568SOL    HW2 7994   2.410   1.489   2.730
 2569SOL     OW 7995   2.864   0.796   3.100
 2569SOL    HW1 7996   2.905   0.764   3.186
 2569SOL    HW2 7997   2.768   0.769   3.097
 2570SOL     OW 7998   1.902   0.544   2.976
 2570SOL    HW1 7999   1.987   0.511   2.935
 2570SOL    HW2 8000   1.915   0.559   3.074
 2571SOL     OW 8001   2.051   0.520   3.584
 2571SOL    HW1 8002   2.110   0.480   3.514
 2571SOL    HW2 8003   1.993   0.591   3.543
 2572SOL     OW 8004   3.231   0.950   3.522
 2572SOL    HW1 8005   3.270   1.039   3.542
 2572SOL    HW2 8006   3.241   0.930   3.425
 2573SOL     OW 8007   2.677   0.572   2.187
 2573SOL    HW1 8008   2.684   0.483   2.141
 2573SOL    HW2 8009   2.583   0.606   2.179
 2574SOL     OW 8010   3.519   0.604   3.068
 2574SOL    HW1 8011   3.481   0.535   3.130
 2574SOL    HW2 8012   3.601   0.568   3.024
 2575SOL     OW 8013   2.114   1.564   3.606
 2575SOL    HW1 8014   2.084   1.621   3.682
 2575SOL    HW2 8015   2.107   1.467   3.632
 2576SOL     OW 8016   2.533   0.464   3.131
 2576SOL    HW1 8017   2.499   0.375   3.101
 2576SOL    HW2 8018   2.559   0.518   3.051
 2577SOL     OW 8019   2.792   1.678   3.327
 2577SOL    HW1 8020   2.768   1.660   3.232
 2577SOL    HW2 8021   2.822   1.772   3.337
 2578SOL     OW 8022   2.335   0.500   2.053
 2578SOL    HW1 8023   2.396   0.580   2.057
 2578SOL    HW2 8024   2.240   0.531   2.060
 2579SOL     OW 8025   2.021   1.137   3.328
 2579SOL    HW1 8026   2.043   1.076   3.404
 2579SOL    HW2 8027   2.031   1.088   3.242
 2580SOL     OW 8028   3.209   1.059   3.096
 2580SOL    HW1 8029   3.233   0.996   3.022
 2580SOL    HW2 8030   3.119   1.099   3.078
 2581SOL     OW 8031   3.164   0.855   2.171
 2581SOL    HW1 8032   3.078   0.824   2.213
 2581SOL    HW2 8033   3.160   0.841   2.072
 2582SOL     OW 8034   3.621   1.747   3.016
 2582SOL    HW1 8035   3.682   1.777   2.943
 2582SOL    HW2 8036   3.583   1.658   2.994
 2583SOL     OW 8037   3.114   1.731   2.990
 2583SOL    HW1 8038   3.198   1.736   2.936
 2583SOL    HW2 8039   3.091   1.635   3.008
 2584SOL     OW 8040   1.945   1.258   2.884
 2584SOL    HW1 8041   1.940   1.257   2.984
 2584SOL    HW2 8042   1.862   1.217   2.846
 2585SOL     OW 8043   2.550   1.662   3.578
 2585SOL    HW1 8044   2.494   1.743   3.587
 2585SOL    HW2 8045   2.602   1.666   3.492
 2586SOL     OW 8046   3.588   0.135   2.385
 2586SOL    HW1 8047   3.661   0.118   2.318
 2586SOL    HW2 8048   3.557   0.048   2.423
 2587SOL     OW 8049   3.250   1.573   2.339
 2587SOL    HW1 8050   3.317   1.585   2.265
 2587SOL    HW2 8051   3.210   1.662   2.362
 2588SOL     OW 8052   1.992   1.794   3.713
 2588SOL    HW1 8053   1.951   1.720   3.766
 2588SOL    HW2 8054   2.056   1.845   3.771
 2589SOL     OW 8055   3.142   0.927   2.534
 2589SOL    HW1 8056   3.202   0.846   2.536
 2589SOL    HW2 8057   3.182   0.996   2.474
 2590SOL     OW 8058   2.692   1.273   3.284
 2590SOL    HW1 8059   2.687   1.306   3.379
 2590SOL    HW2 8060   2.606   1.292   3.238
 2591SOL     OW 8061   2.534   1.616   2.016
 2591SOL    HW1 8062   2.543   1.626   1.917
 2591SOL    HW2 8063   2.494   1.527   2.037
 2592SOL     OW 8064   3.512   1.720   3.256
 2592SOL    HW1 8065   3.565   1.730   3.172
 2592SOL    HW2 8066   3.485   1.810   3.290
 2593SOL     OW 8067   3.703   0.175   2.825
 2593SOL    HW1 8068   3.742   0.090   2.789
 2593SOL    HW2 8069   3.605   0.177   2.806
 2594SOL     OW 8070   2.125   0.326   2.582
 2594SOL    HW1 8071   2.046   0.377   2.548
 2594SOL    HW2 8072   2.116   0.311   2.680
 2595SOL     OW 8073   3.056   1.612   1.893
 2595SOL    HW1 8074   3.062   1.519   1.930
 2595SOL    HW2 8075   2.997   1.612   1.813
 2596SOL     OW 8076   2.684   1.002   3.234
 2596SOL    HW1 8077   2.724   1.001   3.142
 2596SOL    HW2 8078   2.694   1.094   3.274
 2597SOL     OW 8079   2.778   0.910   2.153
 2597SOL    HW1 8080   2.841   0.948   2.085
 2597SOL    HW2 8081   2.818   0.827   2.192
 2598SOL     OW 8082   3.366   1.607   1.906
 2598SOL    HW1 8083   3.274   1.644   1.913
 2598SOL    HW2 8084   3.404   1.627   1.816
 2599SOL     OW 8085   2.234   1.288   3.352
 2599SOL    HW1 8086   2.221   1.381   3.318
 2599SOL    HW2 8087   2.150   1.236   3.339
 2600SOL     OW 8088   3.476   1.292   3.151
 2600SOL    HW1 8089   3.536   1.295   3.231
 2600SOL    HW2 8090   3.401   1.356   3.164
 2601SOL     OW 8091   2.901   1.098   2.558
 2601SOL    HW1 8092   2.831   1.051   2.612
 2601SOL    HW2 8093   2.960   1.030   2.515
 2602SOL     OW 8094   2.876   0.236   2.833
 2602SOL    HW1 8095   2.868   0.200   2.740
 2602SOL    HW2 8096   2.874   0.160   2.898
 2603SOL     OW 8097   2.452   1.487   2.353
 2603SOL    HW1 8098   2.494   1.429   2.283
 2603SOL    HW2 8099   2.408   1.566   2.309
 2604SOL     OW 8100   3.571   0.385   3.243
 2604SOL    HW1 8101   3.644   0.454   3.247
 2604SOL    HW2 8102   3.599   0.310   3.184
 2605SOL     OW 8103   2.117   1.348   2.152
 2605SOL    HW1 8104   2.021   1.349   2.125
 2605SOL    HW2 8105   2.129   1.401   2.236
 2606SOL     OW 8106   1.967   1.013   3.588
 2606SOL    HW1 8107   1.890   0.980   3.642
 2606SOL    HW2 8108   2.052   0.983   3.630
 2607SOL     OW 8109   2.534   0.203   3.351
 2607SOL    HW1 8110   2.624   0.187   3.311
 2607SOL    HW2 8111   2.542   0.208   3.450
 2608SOL     OW 8112   1.937   0.345   1.895
 2608SOL    HW1 8113   1.845   0.317   1.866
 2608SOL    HW2 8114   1.968   0.422   1.839
 2609SOL     OW 8115   3.302   0.856   3.260
 2609SOL    HW1 8116   3.245   0.908   3.197
 2609SOL    HW2 8117   3.398   0.868   3.236
 2610SOL     OW 8118   1.934   0.166   2.180
 2610SOL    HW1 8119   1.917   0.249   2.126
 2610SOL    HW2 8120   2.024   0.129   2.158
 2611SOL     OW 8121   3.045   1.335   1.981
 2611SOL    HW1 8122   2.946   1.324   1.983
 2611SOL    HW2 8123   3.079   1.350   2.074
 2612SOL     OW 8124   2.475   0.842   3.293
 2612SOL    HW1 8125   2.531   0.923   3.276
 2612SOL    HW2 8126   2.534   0.762   3.296
 2613SOL     OW 8127   3.355   1.767   2.821
 2613SOL    HW1 8128   3.388   1.831   2.752
 2613SOL    HW2 8129   3.421   1.761   2.896
 2614SOL     OW 8130   2.578   0.565   3.570
 2614SOL    HW1 8131   2.597   0.630   3.644
 2614SOL    HW2 8132   2.638   0.485   3.579
 2615SOL     OW 8133   3.312   1.220   3.495
 2615SOL    HW1 8134   3.303   1.210   3.594
 2615SOL    HW2 8135   3.408   1.213   3.469
 2616SOL     OW 8136   2.252   1.741   3.422
 2616SOL    HW1 8137   2.161   1.782   3.420
 2616SOL    HW2 8138   2.245   1.647   3.454
 2617SOL     OW 8139   3.536   0.883   3.116
 2617SOL    HW1 8140   3.509   0.794   3.079
 2617SOL    HW2 8141   3.537   0.951   3.043
 2618SOL     OW 8142   3.087   0.325   2.311
 2618SOL    HW1 8143   3.152   0.251   2.300
 2618SOL    HW2 8144   3.107   0.375   2.395
 2619SOL     OW 8145   2.456   0.745   2.514
 2619SOL    HW1 8146   2.506   0.830   2.495
 2619SOL    HW2 8147   2.368   0.747   2.466
 2620SOL     OW 8148   3.639   0.342   3.504
 2620SOL    HW1 8149   3.622   0.373   3.410
 2620SOL    HW2 8150   3.555   0.305   3.542
 2621SOL     OW 8151   3.592   0.934   3.379
 2621SOL    HW1 8152   3.630   1.025   3.394
 2621SOL    HW2 8153   3.584   0.917   3.280
 2622SOL     OW 8154   2.721   1.374   1.878
 2622SOL    HW1 8155   2.675   1.389   1.966
 2622SOL    HW2 8156   2.765   1.459   1.848
 2623SOL     OW 8157   2.523   1.790   2.815
 2623SOL    HW1 8158   2.477   1.878   2.802
 2623SOL    HW2 8159   2.622   1.802   2.808
 2624SOL     OW 8160   2.721   0.956   2.723
 2624SOL    HW1 8161   2.775   0.887   2.771
 2624SOL    HW2 8162   2.689   1.025   2.789
 2625SOL     OW 8163   2.945   0.984   1.949
 2625SOL    HW1 8164   2.922   1.037   1.867
 2625SOL    HW2 8165   3.026   0.928   1.930
 2626SOL     OW 8166   3.723   1.569   2.713
 2626SOL    HW1 8167   3.652   1.557   2.643
 2626SOL    HW2 8168   3.724   1.490   2.773
 2627SOL     OW 8169   2.083   1.314   3.706
 2627SOL    HW1 8170   2.018   1.241   3.685
 2627SOL    HW2 8171   2.087   1.328   3.804
 2628SOL     OW 8172   1.941   1.240   2.515
 2628SOL    HW1 8173   1.940   1.193   2.603
 2628SOL    HW2 8174   2.023   1.212   2.464
 2629SOL     OW 8175   2.534   1.391   3.486
 2629SOL    HW1 8176   2.456   1.341   3.524
 2629SOL    HW2 8177   2.531   1.486   3.517
 2630SOL     OW 8178   3.686   0.192   3.089
 2630SOL    HW1 8179   3.682   0.102   3.133
 2630SOL    HW2 8180   3.689   0.181   2.990
 2631SOL     OW 8181   2.290   0.424   2.382
 2631SOL    HW1 8182   2.320   0.352   2.320
 2631SOL    HW2 8183   2.251   0.384   2.465
 2632SOL     OW 8184   3.567   1.487   2.966
 2632SOL    HW1 8185   3.474   1.462   2.939
 2632SOL    HW2 8186   3.593   1.437   3.048
 2633SOL     OW 8187   2.179   0.547   3.142
 2633SOL    HW1 8188   2.217   0.488   3.214
 2633SOL    HW2 8189   2.219   0.521   3.054
 2634SOL     OW 8190   2.674   1.586   2.549
 2634SOL    HW1 8191   2.706   1.596   2.455
 2634SOL    HW2 8192   2.595   1.524   2.551
 2635SOL     OW 8193   3.286   0.214   2.974
 2635SOL    HW1 8194   3.338   0.149   3.029
 2635SOL    HW2 8195   3.237   0.277   3.035
 2636SOL     OW 8196   2.863   0.034   3.016
 2636SOL    HW1 8197   2.800  -0.038   2.985
 2636SOL    HW2 8198   2.956  -0.002   3.016
 2637SOL     OW 8199   2.632   1.330   2.163
 2637SOL    HW1 8200   2.586   1.243   2.180
 2637SOL    HW2 8201   2.723   1.327   2.204
 2638SOL     OW 8202   2.480   1.567   3.146
 2638SOL    HW1 8203   2.475   1.649   3.203
 2638SOL    HW2 8204   2.569   1.564   3.101
 2639SOL     OW 8205   3.214   0.052   2.030
 2639SOL    HW1 8206   3.249   0.011   1.946
 2639SOL    HW2 8207   3.124   0.014   2.050
 2640SOL     OW 8208   3.162   0.453   2.553
 2640SOL    HW1 8209   3.103   0.533   2.557
 2640SOL    HW2 8210   3.177   0.418   2.646
 2641SOL     OW 8211   3.455   0.221   2.744
 2641SOL    HW1 8212   3.371   0.220   2.798
 2641SOL    HW2 8213   3.457   0.304   2.688
 2642SOL     OW 8214   1.901   1.077   2.162
 2642SOL    HW1 8215   2.000   1.066   2.153
 2642SOL    HW2 8216   1.861   0.991   2.194
 2643SOL     OW 8217   2.737   1.646   2.199
 2643SOL    HW1 8218   2.660   1.611   2.145
 2643SOL    HW2 8219   2.705   1.717   2.261
 2644SOL     OW 8220   2.092   0.628   3.837
 2644SOL    HW1 8221   1.999   0.626   3.874
 2644SOL    HW2 8222   2.093   0.589   3.745
 2645SOL     OW 8223   2.087   0.275   4.720
 2645SOL    HW1 8224   2.122   0.258   4.812
 2645SOL    HW2 8225   1.999   0.230   4.708
 2646SOL     OW 8226   1.881   0.368   4.371
 2646SOL    HW1 8227   1.799   0.411   4.410
 2646SOL    HW2 8228   1.853   0.295   4.308
 2647SOL     OW 8229   2.431   1.275   4.889
 2647SOL    HW1 8230   2.338   1.268   4.852
 2647SOL    HW2 8231   2.442   1.364   4.933
 2648SOL     OW 8232   3.417   1.511   4.427
 2648SOL    HW1 8233   3.360   1.495   4.508
 2648SOL    HW2 8234   3.358   1.521   4.347
 2649SOL     OW 8235   2.997   0.703   4.441
 2649SOL    HW1 8236   3.054   0.781   4.416
 2649SOL    HW2 8237   2.937   0.729   4.517
 2650SOL     OW 8238   3.617   0.607   3.955
 2650SOL    HW1 8239   3.605   0.594   3.856
 2650SOL    HW2 8240   3.587   0.526   4.004
 2651SOL     OW 8241   2.630   1.144   4.747
 2651SOL    HW1 8242   2.552   1.161   4.807
 2651SOL    HW2 8243   2.664   1.231   4.711
 2652SOL     OW 8244   2.712   0.798   5.547
 2652SOL    HW1 8245   2.708   0.874   5.612
 2652SOL    HW2 8246   2.734   0.834   5.456
 2653SOL     OW 8247   2.547   1.012   4.389
 2653SOL    HW1 8248   2.616   0.996   4.459
 2653SOL    HW2 8249   2.474   1.069   4.427
 2654SOL     OW 8250   2.548   1.161   5.527
 2654SOL    HW1 8251   2.608   1.240   5.541
 2654SOL    HW2 8252   2.462   1.192   5.486
 2655SOL     OW 8253   2.197   1.435   4.785
 2655SOL    HW1 8254   2.119   1.404   4.732
 2655SOL    HW2 8255   2.255   1.493   4.728
 2656SOL     OW 8256   3.322   1.505   5.063
 2656SOL    HW1 8257   3.346   1.599   5.089
 2656SOL    HW2 8258   3.306   1.451   5.145
 2657SOL     OW 8259   2.300   0.392   5.223
 2657SOL    HW1 8260   2.382   0.336   5.232
 2657SOL    HW2 8261   2.219   0.334   5.227
 2658SOL     OW 8262   3.465   0.447   4.461
 2658SOL    HW1 8263   3.391   0.493   4.411
 2658SOL    HW2 8264   3.516   0.515   4.514
 2659SOL     OW 8265   2.093   1.713   4.207
 2659SOL    HW1 8266   2.127   1.790   4.261
 2659SOL    HW2 8267   2.137   1.713   4.117
 2660SOL     OW 8268   2.989   1.341   5.414
 2660SOL    HW1 8269   3.036   1.341   5.502
 2660SOL    HW2 8270   2.941   1.254   5.403
 2661SOL     OW 8271   2.092   1.434   4.262
 2661SOL    HW1 8272   2.066   1.530   4.262
 2661SOL    HW2 8273   2.021   1.380   4.307
 2662SOL     OW 8274   2.102   1.091   4.610
 2662SOL    HW1 8275   2.116   1.007   4.662
 2662SOL    HW2 8276   2.047   1.155   4.665
 2663SOL     OW 8277   2.482   1.786   5.163
 2663SOL    HW1 8278   2.390   1.769   5.198
 2663SOL    HW2 8279   2.510   1.878   5.189
 2664SOL     OW 8280   2.468   0.964   3.847
 2664SOL    HW1 8281   2.475   1.048   3.793
 2664SOL    HW2 8282   2.514   0.977   3.935
 2665SOL     OW 8283   3.456   0.114   5.204
 2665SOL    HW1 8284   3.438   0.181   5.132
 2665SOL    HW2 8285   3.453   0.160   5.293
 2666SOL     OW 8286   1.984   0.643   4.287
 2666SOL    HW1 8287   1.939   0.555   4.304
 2666SOL    HW2 8288   1.983   0.697   4.371
 2667SOL     OW 8289   3.704   1.767   4.083
 2667SOL    HW1 8290   3.758   1.738   4.163
 2667SOL    HW2 8291   3.734   1.857   4.054
 2668SOL     OW 8292   1.889   1.596   3.841
 2668SOL    HW1 8293   1.870   1.500   3.862
 2668SOL    HW2 8294   1.856   1.654   3.916
 2669SOL     OW 8295   3.551   0.922   4.336
 2669SOL    HW1 8296   3.646   0.893   4.344
 2669SOL    HW2 8297   3.543   0.987   4.261
 2670SOL     OW 8298   3.503   1.108   4.156
 2670SOL    HW1 8299   3.589   1.110   4.104
 2670SOL    HW2 8300   3.517   1.155   4.244
 2671SOL     OW 8301   1.975   0.737   5.321
 2671SOL    HW1 8302   2.063   0.724   5.366
 2671SOL    HW2 8303   1.962   0.834   5.299
 2672SOL     OW 8304   2.475   1.365   4.450
 2672SOL    HW1 8305   2.426   1.278   4.459
 2672SOL    HW2 8306   2.452   1.408   4.363
 2673SOL     OW 8307   3.155   1.228   5.147
 2673SOL    HW1 8308   3.192   1.155   5.089
 2673SOL    HW2 8309   3.207   1.233   5.232
 2674SOL     OW 8310   2.671   0.004   4.226
 2674SOL    HW1 8311   2.711   0.095   4.217
 2674SOL    HW2 8312   2.571   0.012   4.232
 2675SOL     OW 8313   2.059   0.976   4.988
 2675SOL    HW1 8314   2.148   0.931   4.974
 2675SOL    HW2 8315   1.986   0.911   4.969
 2676SOL     OW 8316   3.387   0.999   3.914
 2676SOL    HW1 8317   3.324   0.923   3.927
 2676SOL    HW2 8318   3.435   1.017   4.000
 2677SOL     OW 8319   3.049   1.792   5.340
 2677SOL    HW1 8320   3.073   1.852   5.264
 2677SOL    HW2 8321   3.056   1.697   5.310
 2678SOL     OW 8322   2.179   0.251   5.525
 2678SOL    HW1 8323   2.250   0.322   5.531
 2678SOL    HW2 8324   2.091   0.290   5.553
 2679SOL     OW 8325   3.328   1.417   4.677
 2679SOL    HW1 8326   3.269   1.423   4.757
 2679SOL    HW2 8327   3.313   1.329   4.631
 2680SOL     OW 8328   3.529   1.714   4.296
 2680SOL    HW1 8329   3.488   1.691   4.208
 2680SOL    HW2 8330   3.511   1.640   4.361
 2681SOL     OW 8331   2.460   0.729   3.994
 2681SOL    HW1 8332   2.484   0.798   3.926
 2681SOL    HW2 8333   2.382   0.762   4.048
 2682SOL     OW 8334   3.143   0.345   4.668
 2682SOL    HW1 8335   3.057   0.295   4.655
 2682SOL    HW2 8336   3.205   0.291   4.724
 2683SOL     OW 8337   3.438   1.662   4.031
 2683SOL    HW1 8338   3.527   1.708   4.034
 2683SOL    HW2 8339   3.417   1.638   3.936
 2684SOL     OW 8340   2.669   0.605   5.189
 2684SOL    HW1 8341   2.622   0.602   5.278
 2684SOL    HW2 8342   2.618   0.550   5.123
 2685SOL     OW 8343   3.256   0.469   5.398
 2685SOL    HW1 8344   3.236   0.512   5.486
 2685SOL    HW2 8345   3.334   0.407   5.407
 2686SOL     OW 8346   2.835   0.890   5.296
 2686SOL    HW1 8347   2.881   0.806   5.267
 2686SOL    HW2 8348   2.779   0.924   5.221
 2687SOL     OW 8349   2.853   0.410   4.966
 2687SOL    HW1 8350   2.776   0.444   5.020
 2687SOL    HW2 8351   2.819   0.359   4.887
 2688SOL     OW 8352   2.903   0.701   4.153
 2688SOL    HW1 8353   2.929   0.697   4.249
 2688SOL    HW2 8354   2.818   0.650   4.139
 2689SOL     OW 8355   1.938   0.811   4.513
 2689SOL    HW1 8356   2.037   0.799   4.522
 2689SOL    HW2 8357   1.914   0.906   4.534
 2690SOL     OW 8358   1.992   1.821   5.295
 2690SOL    HW1 8359   1.982   1.806   5.394
 2690SOL    HW2 8360   1.906   1.857   5.259
 2691SOL     OW 8361   2.727   0.348   3.919
 2691SOL    HW1 8362   2.786   0.411   3.870
 2691SOL    HW2 8363   2.746   0.254   3.890
 2692SOL     OW 8364   3.581   0.585   5.555
 2692SOL    HW1 8365   3.555   0.674   5.519
 2692SOL    HW2 8366   3.579   0.517   5.482
 2693SOL     OW 8367   3.224   1.144   4.269
 2693SOL    HW1 8368   3.307   1.115   4.221
 2693SOL    HW2 8369   3.175   1.211   4.213
 2694SOL     OW 8370   2.412   0.196   4.609
 2694SOL    HW1 8371   2.407   0.191   4.709
 2694SOL    HW2 8372   2.414   0.292   4.580
 2695SOL     OW 8373   2.870   1.456   4.201
 2695SOL    HW1 8374   2.824   1.528   4.149
 2695SOL    HW2 8375   2.866   1.476   4.299
 2696SOL     OW 8376   2.213   1.801   4.577
 2696SOL    HW1 8377   2.263   1.715   4.583
 2696SOL    HW2 8378   2.278   1.878   4.574
 2697SOL     OW 8379   3.657   1.066   4.597
 2697SOL    HW1 8380   3.595   1.051   4.521
 2697SOL    HW2 8381   3.605   1.077   4.682
 2698SOL     OW 8382   3.089   1.550   5.230
 2698SOL    HW1 8383   3.095   1.473   5.294
 2698SOL    HW2 8384   3.037   1.524   5.150
 2699SOL     OW 8385   2.183   0.943   3.966
 2699SOL    HW1 8386   2.265   0.982   3.924
 2699SOL    HW2 8387   2.156   0.861   3.917
 2700SOL     OW 8388   3.320   0.735   4.452
 2700SOL    HW1 8389   3.315   0.670   4.527
 2700SOL    HW2 8390   3.400   0.794   4.465
 2701SOL     OW 8391   2.323   1.266   5.451
 2701SOL    HW1 8392   2.273   1.267   5.365
 2701SOL    HW2 8393   2.260   1.248   5.527
 2702SOL     OW 8394   2.973   1.776   3.961
 2702SOL    HW1 8395   2.913   1.714   4.011
 2702SOL    HW2 8396   3.004   1.732   3.876
 2703SOL     OW 8397   2.064   0.285   5.222
 2703SOL    HW1 8398   1.984   0.345   5.209
 2703SOL    HW2 8399   2.054   0.236   5.308
 2704SOL     OW 8400   3.494   1.377   3.805
 2704SOL    HW1 8401   3.462   1.471   3.795
 2704SOL    HW2 8402   3.418   1.314   3.793
 2705SOL     OW 8403   2.326   1.743   4.047
 2705SOL    HW1 8404   2.359   1.782   4.133
 2705SOL    HW2 8405   2.402   1.736   3.982
 2706SOL     OW 8406   3.262   0.107   4.150
 2706SOL    HW1 8407   3.238   0.070   4.060
 2706SOL    HW2 8408   3.361   0.123   4.154
 2707SOL     OW 8409   2.111   1.785   4.965
 2707SOL    HW1 8410   2.168   1.720   5.015
 2707SOL    HW2 8411   2.095   1.752   4.872
 2708SOL     OW 8412   2.802   1.698   4.628
 2708SOL    HW1 8413   2.882   1.641   4.649
 2708SOL    HW2 8414   2.753   1.658   4.551
 2709SOL     OW 8415   2.244   0.700   4.204
 2709SOL    HW1 8416   2.289   0.610   4.201
 2709SOL    HW2 8417   2.150   0.689   4.237
 2710SOL     OW 8418   3.409   0.222   5.453
 2710SOL    HW1 8419   3.404   0.259   5.545
 2710SOL    HW2 8420   3.337   0.153   5.441
 2711SOL     OW 8421   2.476   0.122   3.841
 2711SOL    HW1 8422   2.574   0.100   3.848
 2711SOL    HW2 8423   2.445   0.105   3.748
 2712SOL     OW 8424   2.643   0.264   5.473
 2712SOL    HW1 8425   2.710   0.203   5.516
 2712SOL    HW2 8426   2.570   0.283   5.538
 2713SOL     OW 8427   2.750   1.514   4.919
 2713SOL    HW1 8428   2.727   1.489   4.825
 2713SOL    HW2 8429   2.811   1.445   4.958
 2714SOL     OW 8430   3.213   0.590   5.157
 2714SOL    HW1 8431   3.241   0.547   5.242
 2714SOL    HW2 8432   3.238   0.686   5.158
 2715SOL     OW 8433   2.665   1.402   4.648
 2715SOL    HW1 8434   2.755   1.416   4.606
 2715SOL    HW2 8435   2.594   1.404   4.577
 2716SOL     OW 8436   2.784   0.503   4.623
 2716SOL    HW1 8437   2.759   0.494   4.527
 2716SOL    HW2 8438   2.832   0.421   4.654
 2717SOL     OW 8439   2.401   0.064   4.236
 2717SOL    HW1 8440   2.320   0.065   4.294
 2717SOL    HW2 8441   2.404   0.147   4.181
 2718SOL     OW 8442   3.296   1.188   3.765
 2718SOL    HW1 8443   3.328   1.112   3.822
 2718SOL    HW2 8444   3.204   1.215   3.795
 2719SOL     OW 8445   2.159   0.035   3.895
 2719SOL    HW1 8446   2.208   0.119   3.874
 2719SOL    HW2 8447   2.221  -0.030   3.940
 2720SOL     OW 8448   2.797   0.236   4.204
 2720SOL    HW1 8449   2.749   0.277   4.126
 2720SOL    HW2 8450   2.896   0.234   4.185
 2721SOL     OW 8451   2.938   0.683   5.188
 2721SOL    HW1 8452   2.858   0.622   5.191
 2721SOL    HW2 8453   3.019   0.630   5.164
 2722SOL     OW 8454   3.089   1.570   4.517
 2722SOL    HW1 8455   3.110   1.644   4.452
 2722SOL    HW2 8456   3.157   1.570   4.590
 2723SOL     OW 8457   2.321   1.152   4.465
 2723SOL    HW1 8458   2.250   1.125   4.530
 2723SOL    HW2 8459   2.295   1.124   4.372
 2724SOL     OW 8460   3.133   1.797   4.315
 2724SOL    HW1 8461   3.177   1.861   4.251
 2724SOL    HW2 8462   3.083   1.849   4.385
 2725SOL     OW 8463   2.894   0.549   3.740
 2725SOL    HW1 8464   2.853   0.631   3.701
 2725SOL    HW2 8465   2.958   0.575   3.813
 2726SOL     OW 8466   1.940   0.556   5.110
 2726SOL    HW1 8467   2.032   0.555   5.069
 2726SOL    HW2 8468   1.934   0.630   5.177
 2727SOL     OW 8469   2.423   0.222   4.871
 2727SOL    HW1 8470   2.461   0.138   4.908
 2727SOL    HW2 8471   2.335   0.241   4.915
 2728SOL     OW 8472   2.728   0.454   4.366
 2728SOL    HW1 8473   2.696   0.526   4.304
 2728SOL    HW2 8474   2.752   0.373   4.313
 2729SOL     OW 8475   2.879   0.039   4.477
 2729SOL    HW1 8476   2.807   0.044   4.408
 2729SOL    HW2 8477   2.855  -0.030   4.546
 2730SOL     OW 8478   3.291   1.173   4.591
 2730SOL    HW1 8479   3.236   1.089   4.584
 2730SOL    HW2 8480   3.317   1.202   4.499
 2731SOL     OW 8481   3.328   0.590   4.716
 2731SOL    HW1 8482   3.298   0.495   4.723
 2731SOL    HW2 8483   3.401   0.606   4.782
 2732SOL     OW 8484   3.719   0.833   4.101
 2732SOL    HW1 8485   3.761   0.769   4.165
 2732SOL    HW2 8486   3.681   0.782   4.023
 2733SOL     OW 8487   2.350   1.385   3.898
 2733SOL    HW1 8488   2.263   1.370   3.945
 2733SOL    HW2 8489   2.333   1.411   3.803
 2734SOL     OW 8490   3.526   1.280   4.381
 2734SOL    HW1 8491   3.625   1.288   4.395
 2734SOL    HW2 8492   3.481   1.364   4.412
 2735SOL     OW 8493   3.252   0.575   3.802
 2735SOL    HW1 8494   3.198   0.554   3.883
 2735SOL    HW2 8495   3.343   0.534   3.811
 2736SOL     OW 8496   2.389   0.256   4.052
 2736SOL    HW1 8497   2.416   0.197   3.977
 2736SOL    HW2 8498   2.389   0.351   4.021
 2737SOL     OW 8499   3.616   1.223   5.312
 2737SOL    HW1 8500   3.707   1.184   5.299
 2737SOL    HW2 8501   3.624   1.319   5.336
 2738SOL     OW 8502   2.926   1.347   5.064
 2738SOL    HW1 8503   2.846   1.324   5.119
 2738SOL    HW2 8504   3.009   1.321   5.113
 2739SOL     OW 8505   3.454   1.629   5.349
 2739SOL    HW1 8506   3.481   1.663   5.259
 2739SOL    HW2 8507   3.533   1.591   5.395
 2740SOL     OW 8508   2.973   1.195   4.824
 2740SOL    HW1 8509   2.933   1.239   4.905
 2740SOL    HW2 8510   2.932   1.232   4.741
 2741SOL     OW 8511   3.500   1.099   4.803
 2741SOL    HW1 8512   3.505   1.180   4.862
 2741SOL    HW2 8513   3.414   1.101   4.752
 2742SOL     OW 8514   2.777   0.089   5.126
 2742SOL    HW1 8515   2.802   0.069   5.031
 2742SOL    HW2 8516   2.849   0.145   5.168
 2743SOL     OW 8517   2.842   1.116   5.443
 2743SOL    HW1 8518   2.743   1.122   5.453
 2743SOL    HW2 8519   2.865   1.036   5.387
 2744SOL     OW 8520   2.567   1.050   4.092
 2744SOL    HW1 8521   2.553   1.057   4.191
 2744SOL    HW2 8522   2.651   0.999   4.074
 2745SOL     OW 8523   2.272   0.813   4.975
 2745SOL    HW1 8524   2.358   0.825   5.025
 2745SOL    HW2 8525   2.230   0.726   5.002
 2746SOL     OW 8526   3.136   0.386   4.986
 2746SOL    HW1 8527   3.157   0.460   5.050
 2746SOL    HW2 8528   3.047   0.403   4.943
 2747SOL     OW 8529   1.926   1.564   5.055
 2747SOL    HW1 8530   1.880   1.646   5.021
 2747SOL    HW2 8531   2.024   1.583   5.064
 2748SOL     OW 8532   2.229   1.100   4.225
 2748SOL    HW1 8533   2.222   1.183   4.169
 2748SOL    HW2 8534   2.233   1.020   4.165
 2749SOL     OW 8535   2.428   0.537   4.589
 2749SOL    HW1 8536   2.440   0.603   4.515
 2749SOL    HW2 8537   2.474   0.571   4.672
 2750SOL     OW 8538   3.114   1.348   4.112
 2750SOL    HW1 8539   3.164   1.425   4.152
 2750SOL    HW2 8540   3.019   1.350   4.144
 2751SOL     OW 8541   3.134   1.445   4.866
 2751SOL    HW1 8542   3.181   1.458   4.953
 2751SOL    HW2 8543   3.068   1.371   4.875
 2752SOL     OW 8544   3.444   0.639   4.196
 2752SOL    HW1 8545   3.413   0.700   4.269
 2752SOL    HW2 8546   3.494   0.691   4.127
 2753SOL     OW 8547   2.216   1.510   5.053
 2753SOL    HW1 8548   2.195   1.466   4.966
 2753SOL    HW2 8549   2.313   1.536   5.056
 2754SOL     OW 8550   2.264   0.751   5.322
 2754SOL    HW1 8551   2.332   0.806   5.275
 2754SOL    HW2 8552   2.304   0.663   5.349
 2755SOL     OW 8553   3.449   0.779   5.394
 2755SOL    HW1 8554   3.357   0.817   5.389
 2755SOL    HW2 8555   3.509   0.826   5.329
 2756SOL     OW 8556   2.875   0.105   5.494
 2756SOL    HW1 8557   2.881   0.190   5.442
 2756SOL    HW2 8558   2.907   0.029   5.437
 2757SOL     OW 8559   2.366   0.050   5.464
 2757SOL    HW1 8560   2.324  -0.007   5.394
 2757SOL    HW2 8561   2.300   0.119   5.496
 2758SOL     OW 8562   2.435   0.870   4.753
 2758SOL    HW1 8563   2.479   0.959   4.744
 2758SOL    HW2 8564   2.372   0.870   4.830
 2759SOL     OW 8565   3.222   0.862   4.769
 2759SOL    HW1 8566   3.147   0.862   4.703
 2759SOL    HW2 8567   3.259   0.770   4.778
 2760SOL     OW 8568   3.071   0.525   3.999
 2760SOL    HW1 8569   3.084   0.441   4.053
 2760SOL    HW2 8570   3.042   0.599   4.059
 2761SOL     OW 8571   2.169   0.213   4.955
 2761SOL    HW1 8572   2.146   0.250   5.045
 2761SOL    HW2 8573   2.139   0.118   4.949
 2762SOL     OW 8574   1.899   1.310   5.006
 2762SOL    HW1 8575   1.952   1.261   5.074
 2762SOL    HW2 8576   1.921   1.408   5.011
 2763SOL     OW 8577   2.594   0.634   4.788
 2763SOL    HW1 8578   2.653   0.608   4.712
 2763SOL    HW2 8579   2.566   0.730   4.777
 2764SOL     OW 8580   3.590   0.935   5.578
 2764SOL    HW1 8581   3.544   0.928   5.489
 2764SOL    HW2 8582   3.528   0.979   5.644
 2765SOL     OW 8583   2.169   0.063   4.342
 2765SOL    HW1 8584   2.158   0.157   4.375
 2765SOL    HW2 8585   2.164   0.000   4.419
 2766SOL     OW 8586   3.484   0.367   4.098
 2766SOL    HW1 8587   3.486   0.291   4.162
 2766SOL    HW2 8588   3.436   0.444   4.138
 2767SOL     OW 8589   2.885   0.766   4.690
 2767SOL    HW1 8590   2.900   0.787   4.786
 2767SOL    HW2 8591   2.855   0.671   4.681
 2768SOL     OW 8592   2.842   1.573   5.424
 2768SOL    HW1 8593   2.822   1.617   5.336
 2768SOL    HW2 8594   2.881   1.482   5.408
 2769SOL     OW 8595   3.721   1.518   5.329
 2769SOL    HW1 8596   3.735   1.545   5.234
 2769SOL    HW2 8597   3.804   1.540   5.382
 2770SOL     OW 8598   2.212   0.898   5.528
 2770SOL    HW1 8599   2.288   0.942   5.576
 2770SOL    HW2 8600   2.247   0.851   5.446
 2771SOL     OW 8601   3.402   0.274   3.849
 2771SOL    HW1 8602   3.341   0.199   3.872
 2771SOL    HW2 8603   3.424   0.326   3.932
 2772SOL     OW 8604   3.165   0.838   3.766
 2772SOL    HW1 8605   3.199   0.745   3.781
 2772SOL    HW2 8606   3.183   0.865   3.671
 2773SOL     OW 8607   2.930   1.333   4.573
 2773SOL    HW1 8608   2.937   1.249   4.518
 2773SOL    HW2 8609   2.992   1.402   4.537
 2774SOL     OW 8610   2.181   0.810   4.673
 2774SOL    HW1 8611   2.274   0.846   4.678
 2774SOL    HW2 8612   2.175   0.725   4.725
 2775SOL     OW 8613   2.201   0.509   4.730
 2775SOL    HW1 8614   2.149   0.426   4.713
 2775SOL    HW2 8615   2.278   0.514   4.666
 2776SOL     OW 8616   3.000   0.380   5.402
 2776SOL    HW1 8617   2.955   0.443   5.466
 2776SOL    HW2 8618   3.093   0.411   5.385
 2777SOL     OW 8619   3.022   0.207   5.201
 2777SOL    HW1 8620   3.022   0.271   5.278
 2777SOL    HW2 8621   3.050   0.255   5.118
 2778SOL     OW 8622   1.870   1.326   3.924
 2778SOL    HW1 8623   1.777   1.347   3.893
 2778SOL    HW2 8624   1.880   1.227   3.937
 2779SOL     OW 8625   1.950   1.801   4.651
 2779SOL    HW1 8626   1.908   1.715   4.624
 2779SOL    HW2 8627   2.044   1.804   4.617
 2780SOL     OW 8628   2.366   1.568   4.634
 2780SOL    HW1 8629   2.432   1.642   4.643
 2780SOL    HW2 8630   2.410   1.489   4.592
 2781SOL     OW 8631   2.864   0.796   4.962
 2781SOL    HW1 8632   2.905   0.764   5.048
 2781SOL    HW2 8633   2.768   0.769   4.959
 2782SOL     OW 8634   1.902   0.544   4.838
 2782SOL    HW1 8635   1.987   0.511   4.797
 2782SOL    HW2 8636   1.915   0.559   4.936
 2783SOL     OW 8637   2.051   0.520   5.446
 2783SOL    HW1 8638   2.110   0.480   5.376
 2783SOL    HW2 8639   1.993   0.591   5.405
 2784SOL     OW 8640   3.231   0.950   5.384
 2784SOL    HW1 8641   3.270   1.039   5.404
 2784SOL    HW2 8642   3.241   0.930   5.287
 2785SOL     OW 8643   2.677   0.572   4.049
 2785SOL    HW1 8644   2.684   0.483   4.003
 2785SOL    HW2 8645   2.583   0.606   4.041
 2786SOL     OW 8646   3.519   0.604   4.930
 2786SOL    HW1 8647   3.481   0.535   4.992
 2786SOL    HW2 8648   3.601   0.568   4.886
 2787SOL     OW 8649   2.114   1.564   5.468
 2787SOL    HW1 8650   2.084   1.621   5.544
 2787SOL    HW2 8651   2.107   1.467   5.494
 2788SOL     OW 8652   2.533   0.464   4.993
 2788SOL    HW1 8653   2.499   0.375   4.963
 2788SOL    HW2 8654   2.559   0.518   4.913
 2789SOL     OW 8655   2.792   1.678   5.189
 2789SOL    HW1 8656   2.768   1.660   5.094
 2789SOL    HW2 8657   2.822   1.772   5.199
 2790SOL     OW 8658   2.335   0.500   3.915
 2790SOL    HW1 8659   2.396   0.580   3.919
 2790SOL    HW2 8660   2.240   0.531   3.922
 2791SOL     OW 8661   2.021   1.137   5.190
 2791SOL    HW1 8662   2.043   1.076   5.266
 2791SOL    HW2 8663   2.031   1.088   5.104
 2792SOL     OW 8664   3.209   1.059   4.958
 2792SOL    HW1 8665   3.233   0.996   4.884
 2792SOL    HW2 8666   3.119   1.099   4.940
 2793SOL     OW 8667   3.164   0.855   4.033
 2793SOL    HW1 8668   3.078   0.824   4.075
 2793SOL    HW2 8669   3.160   0.841   3.934
 2794SOL     OW 8670   3.621   1.747   4.878
 2794SOL    HW1 8671   3.682   1.777   4.805
 2794SOL    HW2 8672   3.583   1.658   4.856
 2795SOL     OW 8673   3.114   1.731   4.852
 2795SOL    HW1 8674   3.198   1.736   4.798
 2795SOL    HW2 8675   3.091   1.635   4.870
 2796SOL     OW 8676   1.945   1.258   4.746
 2796SOL    HW1 8677   1.940   1.257   4.846
 2796SOL    HW2 8678   1.862   1.217   4.708
 2797SOL     OW 8679   2.550   1.662   5.440
 2797SOL    HW1 8680   2.494   1.743   5.449
 2797SOL    HW2 8681   2.602   1.666   5.354
 2798SOL     OW 8682   3.588   0.135   4.247
 2798SOL    HW1 8683   3.661   0.118   4.180
 2798SOL    HW2 8684   3.557   0.048   4.285
 2799SOL     OW 8685   3.250   1.573   4.201
 2799SOL    HW1 8686   3.317   1.585   4.127
 2799SOL    HW2 8687   3.210   1.662   4.224
 2800SOL     OW 8688   1.992   1.794   5.575
 2800SOL    HW1 8689   1.951   1.720   5.628
 2800SOL    HW2 8690   2.056   1.845   5.633
 2801SOL     OW 8691   3.142   0.927   4.396
 2801SOL    HW1 8692   3.202   0.846   4.398
 2801SOL    HW2 8693   3.182   0.996   4.336
 2802SOL     OW 8694   2.692   1.273   5.146
 2802SOL    HW1 8695   2.687   1.306   5.241
 2802SOL    HW2 8696   2.606   1.292   5.100
 2803SOL     OW 8697   2.534   1.616   3.878
 2803SOL    HW1 8698   2.543   1.626   3.779
 2803SOL    HW2 8699   2.494   1.527   3.899
 2804SOL     OW 8700   3.512   1.720   5.118
 2804SOL    HW1 8701   3.565   1.730   5.034
 2804SOL    HW2 8702   3.485   1.810   5.152
 2805SOL     OW 8703   3.703   0.175   4.687
 2805SOL    HW1 8704   3.742   0.090   4.651
 2805SOL    HW2 8705   3.605   0.177   4.668
 2806SOL     OW 8706   2.125   0.326   4.444
 2806SOL    HW1 8707   2.046   0.377   4.410
 2806SOL    HW2 8708   2.116   0.311   4.542
 2807SOL     OW 8709   3.056   1.612   3.755
 2807SOL    HW1 8710   3.062   1.519   3.792
 2807SOL    HW2 8711   2.997   1.612   3.675
 2808SOL     OW 8712   2.684   1.002   5.096
 2808SOL    HW1 8713   2.724   1.001   5.004
 2808SOL    HW2 8714   2.694   1.094   5.136
 2809SOL     OW 8715   2.778   0.910   4.015
 2809SOL    HW1 8716   2.841   0.948   3.947
 2809SOL    HW2 8717   2.818   0.827   4.054
 2810SOL     OW 8718   3.366   1.607   3.768
 2810SOL    HW1 8719   3.274   1.644   3.775
 2810SOL    HW2 8720   3.404   1.627   3.678
 2811SOL     OW 8721   2.234   1.288   5.214
 2811SOL    HW1 8722   2.221   1.381   5.180
 2811SOL    HW2 8723   2.150   1.236   5.201
 2812SOL     OW 8724   3.476   1.292   5.013
 2812SOL    HW1 8725   3.536   1.295   5.093
 2812SOL    HW2 8726   3.401   1.356   5.026
 2813SOL     OW 8727   2.901   1.098   4.420
 2813SOL    HW1 8728   2.831   1.051   4.474
 2813SOL    HW2 8729   2.960   1.030   4.377
 2814SOL     OW 8730   2.876   0.236   4.695
 2814SOL    HW1 8731   2.868   0.200   4.602
 2814SOL    HW2 8732   2.874   0.160   4.760
 2815SOL     OW 8733   2.452   1.487   4.215
 2815SOL    HW1 8734   2.494   1.429   4.145
 2815SOL    HW2 8735   2.408   1.566   4.171
 2816SOL     OW 8736   3.571   0.385   5.105
 2816SOL    HW1 8737   3.644   0.454   5.109
 2816SOL    HW2 8738   3.599   0.310   5.046
 2817SOL     OW 8739   2.117   1.348   4.014
 2817SOL    HW1 8740   2.021   1.349   3.987
 2817SOL    HW2 8741   2.129   1.401   4.098
 2818SOL     OW 8742   1.967   1.013   5.450
 2818SOL    HW1 8743   1.890   0.980   5.504
 2818SOL    HW2 8744   2.052   0.983   5.492
 2819SOL     OW 8745   2.534   0.203   5.213
 2819SOL    HW1 8746   2.624   0.187   5.173
 2819SOL    HW2 8747   2.542   0.208   5.312
 2820SOL     OW 8748   1.937   0.345   3.757
 2820SOL    HW1 8749   1.845   0.317   3.728
 2820SOL    HW2 8750   1.968   0.422   3.701
 2821SOL     OW 8751   3.302   0.856   5.122
 2821SOL    HW1 8752   3.245   0.908   5.059
 2821SOL    HW2 8753   3.398   0.868   5.098
 2822SOL     OW 8754   1.934   0.166   4.042
 2822SOL    HW1 8755   1.917   0.249   3.988
 2822SOL    HW2 8756   2.024   0.129   4.020
 2823SOL     OW 8757   3.045   1.335   3.843
 2823SOL    HW1 8758   2.946   1.324   3.845
 2823SOL    HW2 8759   3.079   1.350   3.936
 2824SOL     OW 8760   2.475   0.842   5.155
 2824SOL    HW1 8761   2.531   0.923   5.138
 2824SOL    HW2 8762   2.534   0.762   5.158
 2825SOL     OW 8763   3.355   1.767   4.683
 2825SOL    HW1 8764   3.388   1.831   4.614
 2825SOL    HW2 8765   3.421   1.761   4.758
 2826SOL     OW 8766   2.578   0.565   5.432
 2826SOL    HW1 8767   2.597   0.630   5.506
 2826SOL    HW2 8768   2.638   0.485   5.441
 2827SOL     OW 8769   3.312   1.220   5.357
 2827SOL    HW1 8770   3.303   1.210   5.456
 2827SOL    HW2 8771   3.408   1.213   5.331
 2828SOL     OW 8772   2.252   1.741   5.284
 2828SOL    HW1 8773   2.161   1.782   5.282
 2828SOL    HW2 8774   2.245   1.647   5.316
 2829SOL     OW 8775   3.536   0.883   4.978
 2829SOL    HW1 8776   3.509   0.794   4.941
 2829SOL    HW2 8777   3.537   0.951   4.905
 2830SOL     OW 8778   3.087   0.325   4.173
 2830SOL    HW1 8779   3.152   0.251   4.162
 2830SOL    HW2 8780   3.107   0.375   4.257
 2831SOL     OW 8781   2.456   0.745   4.376
 2831SOL    HW1 8782   2.506   0.830   4.357
 2831SOL    HW2 8783   2.368   0.747   4.328
 2832SOL     OW 8784   3.639   0.342   5.366
 2832SOL    HW1 8785   3.622   0.373   5.272
 2832SOL    HW2 8786   3.555   0.305   5.404
 2833SOL     OW 8787   3.592   0.934   5.241
 2833SOL    HW1 8788   3.630   1.025   5.256
 2833SOL    HW2 8789   3.584   0.917   5.142
 2834SOL     OW 8790   2.721   1.374   3.740
 2834SOL    HW1 8791   2.675   1.389   3.828
 2834SOL    HW2 8792   2.765   1.459   3.710
 2835SOL     OW 8793   2.523   1.790   4.677
 2835SOL    HW1 8794   2.477   1.878   4.664
 2835SOL    HW2 8795   2.622   1.802   4.670
 2836SOL     OW 8796   2.721   0.956   4.585
 2836SOL    HW1 8797   2.775   0.887   4.633
 2836SOL    HW2 8798   2.689   1.025   4.651
 2837SOL     OW 8799   2.945   0.984   3.811
 2837SOL    HW1 8800   2.922   1.037   3.729
 2837SOL    HW2 8801   3.026   0.928   3.792
 2838SOL     OW 8802   3.723   1.569   4.575
 2838SOL    HW1 8803   3.652   1.557   4.505
 2838SOL    HW2 8804   3.724   1.490   4.635
 2839SOL     OW 8805   2.083   1.314   5.568
 2839SOL    HW1 8806   2.018   1.241   5.547
 2839SOL    HW2 8807   2.087   1.328   5.666
 2840SOL     OW 8808   1.941   1.240   4.377
 2840SOL    HW1 8809   1.940   1.193   4.465
 2840SOL    HW2 8810   2.023   1.212   4.326
 2841SOL     OW 8811   2.534   1.391   5.348
 2841SOL    HW1 8812   2.456   1.341   5.386
 2841SOL    HW2 8813   2.531   1.486   5.379
 2842SOL     OW 8814   3.686   0.192   4.951
 2842SOL    HW1 8815   3.682   0.102   4.995
 2842SOL    HW2 8816   3.689   0.181   4.852
 2843SOL     OW 8817   2.290   0.424   4.244
 2843SOL    HW1 8818   2.320   0.352   4.182
 2843SOL    HW2 8819   2.251   0.384   4.327
 2844SOL     OW 8820   3.567   1.487   4.828
 2844SOL    HW1 8821   3.474   1.462   4.801
 2844SOL    HW2 8822   3.593   1.437   4.910
 2845SOL     OW 8823   2.179   0.547   5.004
 2845SOL    HW1 8824   2.217   0.488   5.076
 2845SOL    HW2 8825   2.219   0.521   4.916
 2846SOL     OW 8826   2.674   1.586   4.411
 2846SOL    HW1 8827   2.706   1.596   4.317
 2846SOL    HW2 8828   2.595   1.524   4.413
 2847SOL     OW 8829   3.286   0.214   4.836
 2847SOL    HW1 8830   3.338   0.149   4.891
 2847SOL    HW2 8831   3.237   0.277   4.897
 2848SOL     OW 8832   2.863   0.034   4.878
 2848SOL    HW1 8833   2.800  -0.038   4.847
 2848SOL    HW2 8834   2.956  -0.002   4.878
 2849SOL     OW 8835   2.632   1.330   4.025
 2849SOL    HW1 8836   2.586   1.243   4.042
 2849SOL    HW2 8837   2.723   1.327   4.066
 2850SOL     OW 8838   2.480   1.567   5.008
 2850SOL    HW1 8839   2.475   1.649   5.065
 2850SOL    HW2 8840   2.569   1.564   4.963
 2851SOL     OW 8841   3.214   0.052   3.892
 2851SOL    HW1 8842   3.249   0.011   3.808
 2851SOL    HW2 8843   3.124   0.014   3.912
 2852SOL     OW 8844   3.162   0.453   4.415
 2852SOL    HW1 8845   3.103   0.533   4.419
 2852SOL    HW2 8846   3.177   0.418   4.508
 2853SOL     OW 8847   3.455   0.221   4.606
 2853SOL    HW1 8848   3.371   0.220   4.660
 2853SOL    HW2 8849   3.457   0.304   4.550
 2854SOL     OW 8850   1.901   1.077   4.024
 2854SOL    HW1 8851   2.000   1.066   4.015
 2854SOL    HW2 8852   1.861   0.991   4.056
 2855SOL     OW 8853   2.737   1.646   4.061
 2855SOL    HW1 8854   2.660   1.611   4.007
 2855SOL    HW2 8855   2.705   1.717   4.123
 2856SOL     OW 8856   2.092   0.628   5.699
 2856SOL    HW1 8857   1.999   0.626   5.736
 2856SOL    HW2 8858   2.093   0.589   5.607
 2857SOL     OW 8859   3.617   0.607   5.817
 2857SOL    HW1 8860   3.605   0.594   5.718
 2857SOL    HW2 8861   3.587   0.526   5.866
 2858SOL     OW 8862   2.093   1.713   6.069
 2858SOL    HW1 8863   2.127   1.790   6.123
 2858SOL    HW2 8864   2.137   1.713   5.979
 2859SOL     OW 8865   2.468   0.964   5.709
 2859SOL    HW1 8866   2.475   1.048   5.655
 2859SOL    HW2 8867   2.514   0.977   5.797
 2860SOL     OW 8868   3.704   1.767   5.945
 2860SOL    HW1 8869   3.758   1.738   6.025
 2860SOL    HW2 8870   3.734   1.857   5.916
 2861SOL     OW 8871   1.889   1.596   5.703
 2861SOL    HW1 8872   1.870   1.500   5.724
 2861SOL    HW2 8873   1.856   1.654   5.778
 2862SOL     OW 8874   3.551   0.922   6.198
 2862SOL    HW1 8875   3.646   0.893   6.206
 2862SOL    HW2 8876   3.543   0.987   6.123
 2863SOL     OW 8877   3.503   1.108   6.018
 2863SOL    HW1 8878   3.589   1.110   5.966
 2863SOL    HW2 8879   3.517   1.155   6.106
 2864SOL     OW 8880   3.387   0.999   5.776
 2864SOL    HW1 8881   3.324   0.923   5.789
 2864SOL    HW2 8882   3.435   1.017   5.862
 2865SOL     OW 8883   2.460   0.729   5.856
 2865SOL    HW1 8884   2.484   0.798   5.788
 2865SOL    HW2 8885   2.382   0.762   5.910
 2866SOL     OW 8886   2.727   0.348   5.781
 2866SOL    HW1 8887   2.786   0.411   5.732
 2866SOL    HW2 8888   2.746   0.254   5.752
 2867SOL     OW 8889   2.183   0.943   5.828
 2867SOL    HW1 8890   2.265   0.982   5.786
 2867SOL    HW2 8891   2.156   0.861   5.779
 2868SOL     OW 8892   2.973   1.776   5.823
 2868SOL    HW1 8893   2.913   1.714   5.873
 2868SOL    HW2 8894   3.004   1.732   5.738
 2869SOL     OW 8895   3.494   1.377   5.667
 2869SOL    HW1 8896   3.462   1.471   5.657
 2869SOL    HW2 8897   3.418   1.314   5.655
 2870SOL     OW 8898   2.326   1.743   5.909
 2870SOL    HW1 8899   2.359   1.782   5.995
 2870SOL    HW2 8900   2.402   1.736   5.844
 2871SOL     OW 8901   2.476   0.122   5.703
 2871SOL    HW1 8902   2.574   0.100   5.710
 2871SOL    HW2 8903   2.445   0.105   5.610
 2872SOL     OW 8904   3.296   1.188   5.627
 2872SOL    HW1 8905   3.328   1.112   5.684
 2872SOL    HW2 8906   3.204   1.215   5.657
 2873SOL     OW 8907   2.159   0.035   5.757
 2873SOL    HW1 8908   2.208   0.119   5.736
 2873SOL    HW2 8909   2.221  -0.030   5.802
 2874SOL     OW 8910   2.894   0.549   5.602
 2874SOL    HW1 8911   2.853   0.631   5.563
 2874SOL    HW2 8912   2.958   0.575   5.675
 2875SOL     OW 8913   3.719   0.833   5.963
 2875SOL    HW1 8914   3.761   0.769   6.027
 2875SOL    HW2 8915   3.681   0.782   5.885
 2876SOL     OW 8916   2.350   1.385   5.760
 2876SOL    HW1 8917   2.263   1.370   5.807
 2876SOL    HW2 8918   2.333   1.411   5.665
 2877SOL     OW 8919   3.526   1.280   6.243
 2877SOL    HW1 8920   3.625   1.288   6.257
 2877SOL    HW2 8921   3.481   1.364   6.274
 2878SOL     OW 8922   3.252   0.575   5.664
 2878SOL    HW1 8923   3.198   0.554   5.745
 2878SOL    HW2 8924   3.343   0.534   5.673
 2879SOL     OW 8925   2.389   0.256   5.914
 2879SOL    HW1 8926   2.416   0.197   5.839
 2879SOL    HW2 8927   2.389   0.351   5.883
 2880SOL     OW 8928   2.229   1.100   6.087
 2880SOL    HW1 8929   2.222   1.183   6.031
 2880SOL    HW2 8930   2.233   1.020   6.027
 2881SOL     OW 8931   3.071   0.525   5.861
 2881SOL    HW1 8932   3.084   0.441   5.915
 2881SOL    HW2 8933   3.042   0.599   5.921
 2882SOL     OW 8934   3.402   0.274   5.711
 2882SOL    HW1 8935   3.341   0.199   5.734
 2882SOL    HW2 8936   3.424   0.326   5.794
 2883SOL     OW 8937   3.165   0.838   5.628
 2883SOL    HW1 8938   3.199   0.745   5.643
 2883SOL    HW2 8939   3.183   0.865   5.533
 2884SOL     OW 8940   1.870   1.326   5.786
 2884SOL    HW1 8941   1.777   1.347   5.755
 2884SOL    HW2 8942   1.880   1.227   5.799
 2885SOL     OW 8943   2.677   0.572   5.911
 2885SOL    HW1 8944   2.684   0.483   5.865
 2885SOL    HW2 8945   2.583   0.606   5.903
 2886SOL     OW 8946   2.335   0.500   5.777
 2886SOL    HW1 8947   2.396   0.580   5.781
 2886SOL    HW2 8948   2.240   0.531   5.784
 2887SOL     OW 8949   3.588   0.135   6.109
 2887SOL    HW1 8950   3.661   0.118   6.042
 2887SOL    HW2 8951   3.557   0.048   6.147
 2888SOL     OW 8952   2.534   1.616   5.740
 2888SOL    HW1 8953   2.543   1.626   5.641
 2888SOL    HW2 8954   2.494   1.527   5.761
 2889SOL     OW 8955   3.056   1.612   5.617
 2889SOL    HW1 8956   3.062   1.519   5.654
 2889SOL    HW2 8957   2.997   1.612   5.537
 2890SOL     OW 8958   2.778   0.910   5.877
 2890SOL    HW1 8959   2.841   0.948   5.809
 2890SOL    HW2 8960   2.818   0.827   5.916
 2891SOL     OW 8961   3.366   1.607   5.630
 2891SOL    HW1 8962   3.274   1.644   5.637
 2891SOL    HW2 8963   3.404   1.627   5.540
 2892SOL     OW 8964   2.901   1.098   6.282
 2892SOL    HW1 8965   2.831   1.051   6.336
 2892SOL    HW2 8966   2.960   1.030   6.239
 2893SOL     OW 8967   2.117   1.348   5.876
 2893SOL    HW1 8968   2.021   1.349   5.849
 2893SOL    HW2 8969   2.129   1.401   5.960
 2894SOL     OW 8970   1.937   0.345   5.619
 2894SOL    HW1 8971   1.845   0.317   5.590
 2894SOL    HW2 8972   1.968   0.422   5.563
 2895SOL     OW 8973   1.934   0.166   5.904
 2895SOL    HW1 8974   1.917   0.249   5.850
 2895SOL    HW2 8975   2.024   0.129   5.882
 2896SOL     OW 8976   3.045   1.335   5.705
 2896SOL    HW1 8977   2.946   1.324   5.707
 2896SOL    HW2 8978   3.079   1.350   5.798
 2897SOL     OW 8979   3.087   0.325   6.035
 2897SOL    HW1 8980   3.152   0.251   6.024
 2897SOL    HW2 8981   3.107   0.375   6.119
 2898SOL     OW 8982   2.721   1.374   5.602
 2898SOL    HW1 8983   2.675   1.389   5.690
 2898SOL    HW2 8984   2.765   1.459   5.572
 2899SOL     OW 8985   2.945   0.984   5.673
 2899SOL    HW1 8986   2.922   1.037   5.591
 2899SOL    HW2 8987   3.026   0.928   5.654
 2900SOL     OW 8988   3.214   0.052   5.754
 2900SOL    HW1 8989   3.249   0.011   5.670
 2900SOL    HW2 8990   3.124   0.014   5.774
 2901SOL     OW 8991   1.901   1.077   5.886
 2901SOL    HW1 8992   2.000   1.066   5.877
 2901SOL    HW2 8993   1.861   0.991   5.918
 2902SOL     OW 8994   2.737   1.646   5.923
 2902SOL    HW1 8995   2.660   1.611   5.869
 2902SOL    HW2 8996   2.705   1.717   5.985
 2903SOL     OW 8997   2.092   2.490   0.113
 2903SOL    HW1 8998   1.999   2.488   0.150
 2903SOL    HW2 8999   2.093   2.451   0.021
 2904SOL     OW 9000   2.087   2.137   0.996
 2904SOL    HW1 9001   2.122   2.120   1.088
 2904SOL    HW2 9002   1.999   2.092   0.984
 2905SOL     OW 9003   1.881   2.230   0.647
 2905SOL    HW1 9004   1.799   2.273   0.686
 2905SOL    HW2 9005   1.853   2.157   0.584
 2906SOL     OW 9006   2.431   3.137   1.165
 2906SOL    HW1 9007   2.338   3.130   1.128
 2906SOL    HW2 9008   2.442   3.226   1.209
 2907SOL     OW 9009   3.417   3.373   0.703
 2907SOL    HW1 9010   3.360   3.357   0.784
 2907SOL    HW2 9011   3.358   3.383   0.623
 2908SOL     OW 9012   2.997   2.565   0.717
 2908SOL    HW1 9013   3.054   2.643   0.692
 2908SOL    HW2 9014   2.937   2.591   0.793
 2909SOL     OW 9015   3.617   2.469   0.231
 2909SOL    HW1 9016   3.605   2.456   0.132
 2909SOL    HW2 9017   3.587   2.388   0.280
 2910SOL     OW 9018   2.630   3.006   1.023
 2910SOL    HW1 9019   2.552   3.023   1.083
 2910SOL    HW2 9020   2.664   3.093   0.987
 2911SOL     OW 9021   2.712   2.660   1.823
 2911SOL    HW1 9022   2.708   2.736   1.888
 2911SOL    HW2 9023   2.734   2.696   1.732
 2912SOL     OW 9024   2.547   2.874   0.665
 2912SOL    HW1 9025   2.616   2.858   0.735
 2912SOL    HW2 9026   2.474   2.931   0.703
 2913SOL     OW 9027   2.548   3.023   1.803
 2913SOL    HW1 9028   2.608   3.102   1.817
 2913SOL    HW2 9029   2.462   3.054   1.762
 2914SOL     OW 9030   2.197   3.297   1.061
 2914SOL    HW1 9031   2.119   3.266   1.008
 2914SOL    HW2 9032   2.255   3.355   1.004
 2915SOL     OW 9033   3.322   3.367   1.339
 2915SOL    HW1 9034   3.346   3.461   1.365
 2915SOL    HW2 9035   3.306   3.313   1.421
 2916SOL     OW 9036   2.300   2.254   1.499
 2916SOL    HW1 9037   2.382   2.198   1.508
 2916SOL    HW2 9038   2.219   2.196   1.503
 2917SOL     OW 9039   3.465   2.309   0.737
 2917SOL    HW1 9040   3.391   2.355   0.687
 2917SOL    HW2 9041   3.516   2.377   0.790
 2918SOL     OW 9042   2.093   3.575   0.483
 2918SOL    HW1 9043   2.127   3.652   0.537
 2918SOL    HW2 9044   2.137   3.575   0.393
 2919SOL     OW 9045   2.989   3.203   1.690
 2919SOL    HW1 9046   3.036   3.203   1.778
 2919SOL    HW2 9047   2.941   3.116   1.679
 2920SOL     OW 9048   2.092   3.296   0.538
 2920SOL    HW1 9049   2.066   3.392   0.538
 2920SOL    HW2 9050   2.021   3.242   0.583
 2921SOL     OW 9051   2.102   2.953   0.886
 2921SOL    HW1 9052   2.116   2.869   0.938
 2921SOL    HW2 9053   2.047   3.017   0.941
 2922SOL     OW 9054   2.482   3.648   1.439
 2922SOL    HW1 9055   2.390   3.631   1.474
 2922SOL    HW2 9056   2.510   3.740   1.465
 2923SOL     OW 9057   2.468   2.826   0.123
 2923SOL    HW1 9058   2.475   2.910   0.069
 2923SOL    HW2 9059   2.514   2.839   0.211
 2924SOL     OW 9060   3.456   1.976   1.480
 2924SOL    HW1 9061   3.438   2.043   1.408
 2924SOL    HW2 9062   3.453   2.022   1.569
 2925SOL     OW 9063   1.984   2.505   0.563
 2925SOL    HW1 9064   1.939   2.417   0.580
 2925SOL    HW2 9065   1.983   2.559   0.647
 2926SOL     OW 9066   3.704   3.629   0.359
 2926SOL    HW1 9067   3.758   3.600   0.439
 2926SOL    HW2 9068   3.734   3.719   0.330
 2927SOL     OW 9069   1.889   3.458   0.117
 2927SOL    HW1 9070   1.870   3.362   0.138
 2927SOL    HW2 9071   1.856   3.516   0.192
 2928SOL     OW 9072   3.551   2.784   0.612
 2928SOL    HW1 9073   3.646   2.755   0.620
 2928SOL    HW2 9074   3.543   2.849   0.537
 2929SOL     OW 9075   3.503   2.970   0.432
 2929SOL    HW1 9076   3.589   2.972   0.380
 2929SOL    HW2 9077   3.517   3.017   0.520
 2930SOL     OW 9078   1.975   2.599   1.597
 2930SOL    HW1 9079   2.063   2.586   1.642
 2930SOL    HW2 9080   1.962   2.696   1.575
 2931SOL     OW 9081   2.475   3.227   0.726
 2931SOL    HW1 9082   2.426   3.140   0.735
 2931SOL    HW2 9083   2.452   3.270   0.639
 2932SOL     OW 9084   3.155   3.090   1.423
 2932SOL    HW1 9085   3.192   3.017   1.365
 2932SOL    HW2 9086   3.207   3.095   1.508
 2933SOL     OW 9087   2.671   1.866   0.502
 2933SOL    HW1 9088   2.711   1.957   0.493
 2933SOL    HW2 9089   2.571   1.874   0.508
 2934SOL     OW 9090   2.059   2.838   1.264
 2934SOL    HW1 9091   2.148   2.793   1.250
 2934SOL    HW2 9092   1.986   2.773   1.245
 2935SOL     OW 9093   3.387   2.861   0.190
 2935SOL    HW1 9094   3.324   2.785   0.203
 2935SOL    HW2 9095   3.435   2.879   0.276
 2936SOL     OW 9096   3.049   3.654   1.616
 2936SOL    HW1 9097   3.073   3.714   1.540
 2936SOL    HW2 9098   3.056   3.559   1.586
 2937SOL     OW 9099   2.179   2.113   1.801
 2937SOL    HW1 9100   2.250   2.184   1.807
 2937SOL    HW2 9101   2.091   2.152   1.829
 2938SOL     OW 9102   3.328   3.279   0.953
 2938SOL    HW1 9103   3.269   3.285   1.033
 2938SOL    HW2 9104   3.313   3.191   0.907
 2939SOL     OW 9105   3.529   3.576   0.572
 2939SOL    HW1 9106   3.488   3.553   0.484
 2939SOL    HW2 9107   3.511   3.502   0.637
 2940SOL     OW 9108   2.460   2.591   0.270
 2940SOL    HW1 9109   2.484   2.660   0.202
 2940SOL    HW2 9110   2.382   2.624   0.324
 2941SOL     OW 9111   3.143   2.207   0.944
 2941SOL    HW1 9112   3.057   2.157   0.931
 2941SOL    HW2 9113   3.205   2.153   1.000
 2942SOL     OW 9114   3.438   3.524   0.307
 2942SOL    HW1 9115   3.527   3.570   0.310
 2942SOL    HW2 9116   3.417   3.500   0.212
 2943SOL     OW 9117   2.669   2.467   1.465
 2943SOL    HW1 9118   2.622   2.464   1.554
 2943SOL    HW2 9119   2.618   2.412   1.399
 2944SOL     OW 9120   3.256   2.331   1.674
 2944SOL    HW1 9121   3.236   2.374   1.762
 2944SOL    HW2 9122   3.334   2.269   1.683
 2945SOL     OW 9123   2.835   2.752   1.572
 2945SOL    HW1 9124   2.881   2.668   1.543
 2945SOL    HW2 9125   2.779   2.786   1.497
 2946SOL     OW 9126   2.853   2.272   1.242
 2946SOL    HW1 9127   2.776   2.306   1.296
 2946SOL    HW2 9128   2.819   2.221   1.163
 2947SOL     OW 9129   2.903   2.563   0.429
 2947SOL    HW1 9130   2.929   2.559   0.525
 2947SOL    HW2 9131   2.818   2.512   0.415
 2948SOL     OW 9132   1.938   2.673   0.789
 2948SOL    HW1 9133   2.037   2.661   0.798
 2948SOL    HW2 9134   1.914   2.768   0.810
 2949SOL     OW 9135   1.992   3.683   1.571
 2949SOL    HW1 9136   1.982   3.668   1.670
 2949SOL    HW2 9137   1.906   3.719   1.535
 2950SOL     OW 9138   2.727   2.210   0.195
 2950SOL    HW1 9139   2.786   2.273   0.146
 2950SOL    HW2 9140   2.746   2.116   0.166
 2951SOL     OW 9141   3.581   2.447   1.831
 2951SOL    HW1 9142   3.555   2.536   1.795
 2951SOL    HW2 9143   3.579   2.379   1.758
 2952SOL     OW 9144   3.224   3.006   0.545
 2952SOL    HW1 9145   3.307   2.977   0.497
 2952SOL    HW2 9146   3.175   3.073   0.489
 2953SOL     OW 9147   2.412   2.058   0.885
 2953SOL    HW1 9148   2.407   2.053   0.985
 2953SOL    HW2 9149   2.414   2.154   0.856
 2954SOL     OW 9150   2.870   3.318   0.477
 2954SOL    HW1 9151   2.824   3.390   0.425
 2954SOL    HW2 9152   2.866   3.338   0.575
 2955SOL     OW 9153   2.213   3.663   0.853
 2955SOL    HW1 9154   2.263   3.577   0.859
 2955SOL    HW2 9155   2.278   3.740   0.850
 2956SOL     OW 9156   3.657   2.928   0.873
 2956SOL    HW1 9157   3.595   2.913   0.797
 2956SOL    HW2 9158   3.605   2.939   0.958
 2957SOL     OW 9159   3.089   3.412   1.506
 2957SOL    HW1 9160   3.095   3.335   1.570
 2957SOL    HW2 9161   3.037   3.386   1.426
 2958SOL     OW 9162   2.183   2.805   0.242
 2958SOL    HW1 9163   2.265   2.844   0.200
 2958SOL    HW2 9164   2.156   2.723   0.193
 2959SOL     OW 9165   3.320   2.597   0.728
 2959SOL    HW1 9166   3.315   2.532   0.803
 2959SOL    HW2 9167   3.400   2.656   0.741
 2960SOL     OW 9168   2.323   3.128   1.727
 2960SOL    HW1 9169   2.273   3.129   1.641
 2960SOL    HW2 9170   2.260   3.110   1.803
 2961SOL     OW 9171   2.973   3.638   0.237
 2961SOL    HW1 9172   2.913   3.576   0.287
 2961SOL    HW2 9173   3.004   3.594   0.152
 2962SOL     OW 9174   2.064   2.147   1.498
 2962SOL    HW1 9175   1.984   2.207   1.485
 2962SOL    HW2 9176   2.054   2.098   1.584
 2963SOL     OW 9177   3.494   3.239   0.081
 2963SOL    HW1 9178   3.462   3.333   0.071
 2963SOL    HW2 9179   3.418   3.176   0.069
 2964SOL     OW 9180   2.326   3.605   0.323
 2964SOL    HW1 9181   2.359   3.644   0.409
 2964SOL    HW2 9182   2.402   3.598   0.258
 2965SOL     OW 9183   3.262   1.969   0.426
 2965SOL    HW1 9184   3.238   1.932   0.336
 2965SOL    HW2 9185   3.361   1.985   0.430
 2966SOL     OW 9186   2.111   3.647   1.241
 2966SOL    HW1 9187   2.168   3.582   1.291
 2966SOL    HW2 9188   2.095   3.614   1.148
 2967SOL     OW 9189   2.802   3.560   0.904
 2967SOL    HW1 9190   2.882   3.503   0.925
 2967SOL    HW2 9191   2.753   3.520   0.827
 2968SOL     OW 9192   2.244   2.562   0.480
 2968SOL    HW1 9193   2.289   2.472   0.477
 2968SOL    HW2 9194   2.150   2.551   0.513
 2969SOL     OW 9195   3.409   2.084   1.729
 2969SOL    HW1 9196   3.404   2.121   1.821
 2969SOL    HW2 9197   3.337   2.015   1.717
 2970SOL     OW 9198   2.476   1.984   0.117
 2970SOL    HW1 9199   2.574   1.962   0.124
 2970SOL    HW2 9200   2.445   1.967   0.024
 2971SOL     OW 9201   2.643   2.126   1.749
 2971SOL    HW1 9202   2.710   2.065   1.792
 2971SOL    HW2 9203   2.570   2.145   1.814
 2972SOL     OW 9204   2.750   3.376   1.195
 2972SOL    HW1 9205   2.727   3.351   1.101
 2972SOL    HW2 9206   2.811   3.307   1.234
 2973SOL     OW 9207   3.213   2.452   1.433
 2973SOL    HW1 9208   3.241   2.409   1.518
 2973SOL    HW2 9209   3.238   2.548   1.434
 2974SOL     OW 9210   2.665   3.264   0.924
 2974SOL    HW1 9211   2.755   3.278   0.882
 2974SOL    HW2 9212   2.594   3.266   0.853
 2975SOL     OW 9213   2.784   2.365   0.899
 2975SOL    HW1 9214   2.759   2.356   0.803
 2975SOL    HW2 9215   2.832   2.283   0.930
 2976SOL     OW 9216   2.401   1.926   0.512
 2976SOL    HW1 9217   2.320   1.927   0.570
 2976SOL    HW2 9218   2.404   2.009   0.457
 2977SOL     OW 9219   3.296   3.050   0.041
 2977SOL    HW1 9220   3.328   2.974   0.098
 2977SOL    HW2 9221   3.204   3.077   0.071
 2978SOL     OW 9222   2.797   2.098   0.480
 2978SOL    HW1 9223   2.749   2.139   0.402
 2978SOL    HW2 9224   2.896   2.096   0.461
 2979SOL     OW 9225   2.938   2.545   1.464
 2979SOL    HW1 9226   2.858   2.484   1.467
 2979SOL    HW2 9227   3.019   2.492   1.440
 2980SOL     OW 9228   3.089   3.432   0.793
 2980SOL    HW1 9229   3.110   3.506   0.728
 2980SOL    HW2 9230   3.157   3.432   0.866
 2981SOL     OW 9231   2.321   3.014   0.741
 2981SOL    HW1 9232   2.250   2.987   0.806
 2981SOL    HW2 9233   2.295   2.986   0.648
 2982SOL     OW 9234   3.133   3.659   0.591
 2982SOL    HW1 9235   3.177   3.723   0.527
 2982SOL    HW2 9236   3.083   3.711   0.661
 2983SOL     OW 9237   2.894   2.411   0.016
 2983SOL    HW1 9238   2.853   2.493  -0.023
 2983SOL    HW2 9239   2.958   2.437   0.089
 2984SOL     OW 9240   1.940   2.418   1.386
 2984SOL    HW1 9241   2.032   2.417   1.345
 2984SOL    HW2 9242   1.934   2.492   1.453
 2985SOL     OW 9243   2.423   2.084   1.147
 2985SOL    HW1 9244   2.461   2.000   1.184
 2985SOL    HW2 9245   2.335   2.103   1.191
 2986SOL     OW 9246   2.728   2.316   0.642
 2986SOL    HW1 9247   2.696   2.388   0.580
 2986SOL    HW2 9248   2.752   2.235   0.589
 2987SOL     OW 9249   2.879   1.901   0.753
 2987SOL    HW1 9250   2.807   1.906   0.684
 2987SOL    HW2 9251   2.855   1.832   0.822
 2988SOL     OW 9252   3.291   3.035   0.867
 2988SOL    HW1 9253   3.236   2.951   0.860
 2988SOL    HW2 9254   3.317   3.064   0.775
 2989SOL     OW 9255   3.328   2.452   0.992
 2989SOL    HW1 9256   3.298   2.357   0.999
 2989SOL    HW2 9257   3.401   2.468   1.058
 2990SOL     OW 9258   3.719   2.695   0.377
 2990SOL    HW1 9259   3.761   2.631   0.441
 2990SOL    HW2 9260   3.681   2.644   0.299
 2991SOL     OW 9261   2.350   3.247   0.174
 2991SOL    HW1 9262   2.263   3.232   0.221
 2991SOL    HW2 9263   2.333   3.273   0.079
 2992SOL     OW 9264   3.526   3.142   0.657
 2992SOL    HW1 9265   3.625   3.150   0.671
 2992SOL    HW2 9266   3.481   3.226   0.688
 2993SOL     OW 9267   3.252   2.437   0.078
 2993SOL    HW1 9268   3.198   2.416   0.159
 2993SOL    HW2 9269   3.343   2.396   0.087
 2994SOL     OW 9270   2.389   2.118   0.328
 2994SOL    HW1 9271   2.416   2.059   0.253
 2994SOL    HW2 9272   2.389   2.213   0.297
 2995SOL     OW 9273   3.616   3.085   1.588
 2995SOL    HW1 9274   3.707   3.046   1.575
 2995SOL    HW2 9275   3.624   3.181   1.612
 2996SOL     OW 9276   2.926   3.209   1.340
 2996SOL    HW1 9277   2.846   3.186   1.395
 2996SOL    HW2 9278   3.009   3.183   1.389
 2997SOL     OW 9279   3.454   3.491   1.625
 2997SOL    HW1 9280   3.481   3.525   1.535
 2997SOL    HW2 9281   3.533   3.453   1.671
 2998SOL     OW 9282   2.973   3.057   1.100
 2998SOL    HW1 9283   2.933   3.101   1.181
 2998SOL    HW2 9284   2.932   3.094   1.017
 2999SOL     OW 9285   3.500   2.961   1.079
 2999SOL    HW1 9286   3.505   3.042   1.138
 2999SOL    HW2 9287   3.414   2.963   1.028
 3000SOL     OW 9288   2.777   1.951   1.402
 3000SOL    HW1 9289   2.802   1.931   1.307
 3000SOL    HW2 9290   2.849   2.007   1.444
 3001SOL     OW 9291   2.842   2.978   1.719
 3001SOL    HW1 9292   2.743   2.984   1.729
 3001SOL    HW2 9293   2.865   2.898   1.663
 3002SOL     OW 9294   2.567   2.912   0.368
 3002SOL    HW1 9295   2.553   2.919   0.467
 3002SOL    HW2 9296   2.651   2.861   0.350
 3003SOL     OW 9297   2.272   2.675   1.251
 3003SOL    HW1 9298   2.358   2.687   1.301
 3003SOL    HW2 9299   2.230   2.588   1.278
 3004SOL     OW 9300   3.136   2.248   1.262
 3004SOL    HW1 9301   3.157   2.322   1.326
 3004SOL    HW2 9302   3.047   2.265   1.219
 3005SOL     OW 9303   1.926   3.426   1.331
 3005SOL    HW1 9304   1.880   3.508   1.297
 3005SOL    HW2 9305   2.024   3.445   1.340
 3006SOL     OW 9306   2.229   2.962   0.501
 3006SOL    HW1 9307   2.222   3.045   0.445
 3006SOL    HW2 9308   2.233   2.882   0.441
 3007SOL     OW 9309   2.428   2.399   0.865
 3007SOL    HW1 9310   2.440   2.465   0.791
 3007SOL    HW2 9311   2.474   2.433   0.948
 3008SOL     OW 9312   3.114   3.210   0.388
 3008SOL    HW1 9313   3.164   3.287   0.428
 3008SOL    HW2 9314   3.019   3.212   0.420
 3009SOL     OW 9315   3.134   3.307   1.142
 3009SOL    HW1 9316   3.181   3.320   1.229
 3009SOL    HW2 9317   3.068   3.233   1.151
 3010SOL     OW 9318   3.444   2.501   0.472
 3010SOL    HW1 9319   3.413   2.562   0.545
 3010SOL    HW2 9320   3.494   2.553   0.403
 3011SOL     OW 9321   2.216   3.372   1.329
 3011SOL    HW1 9322   2.195   3.328   1.242
 3011SOL    HW2 9323   2.313   3.398   1.332
 3012SOL     OW 9324   2.264   2.613   1.598
 3012SOL    HW1 9325   2.332   2.668   1.551
 3012SOL    HW2 9326   2.304   2.525   1.625
 3013SOL     OW 9327   3.449   2.641   1.670
 3013SOL    HW1 9328   3.357   2.679   1.665
 3013SOL    HW2 9329   3.509   2.688   1.605
 3014SOL     OW 9330   2.875   1.967   1.770
 3014SOL    HW1 9331   2.881   2.052   1.718
 3014SOL    HW2 9332   2.907   1.891   1.713
 3015SOL     OW 9333   2.366   1.912   1.740
 3015SOL    HW1 9334   2.324   1.855   1.670
 3015SOL    HW2 9335   2.300   1.981   1.772
 3016SOL     OW 9336   2.435   2.732   1.029
 3016SOL    HW1 9337   2.479   2.821   1.020
 3016SOL    HW2 9338   2.372   2.732   1.106
 3017SOL     OW 9339   3.222   2.724   1.045
 3017SOL    HW1 9340   3.147   2.724   0.979
 3017SOL    HW2 9341   3.259   2.632   1.054
 3018SOL     OW 9342   3.071   2.387   0.275
 3018SOL    HW1 9343   3.084   2.303   0.329
 3018SOL    HW2 9344   3.042   2.461   0.335
 3019SOL     OW 9345   2.169   2.075   1.231
 3019SOL    HW1 9346   2.146   2.112   1.321
 3019SOL    HW2 9347   2.139   1.980   1.225
 3020SOL     OW 9348   1.899   3.172   1.282
 3020SOL    HW1 9349   1.952   3.123   1.350
 3020SOL    HW2 9350   1.921   3.270   1.287
 3021SOL     OW 9351   2.594   2.496   1.064
 3021SOL    HW1 9352   2.653   2.470   0.988
 3021SOL    HW2 9353   2.566   2.592   1.053
 3022SOL     OW 9354   3.590   2.797   1.854
 3022SOL    HW1 9355   3.544   2.790   1.765
 3022SOL    HW2 9356   3.528   2.841   1.920
 3023SOL     OW 9357   2.169   1.925   0.618
 3023SOL    HW1 9358   2.158   2.019   0.651
 3023SOL    HW2 9359   2.164   1.862   0.695
 3024SOL     OW 9360   3.484   2.229   0.374
 3024SOL    HW1 9361   3.486   2.153   0.438
 3024SOL    HW2 9362   3.436   2.306   0.414
 3025SOL     OW 9363   2.885   2.628   0.966
 3025SOL    HW1 9364   2.900   2.649   1.062
 3025SOL    HW2 9365   2.855   2.533   0.957
 3026SOL     OW 9366   2.842   3.435   1.700
 3026SOL    HW1 9367   2.822   3.479   1.612
 3026SOL    HW2 9368   2.881   3.344   1.684
 3027SOL     OW 9369   3.721   3.380   1.605
 3027SOL    HW1 9370   3.735   3.407   1.510
 3027SOL    HW2 9371   3.804   3.402   1.658
 3028SOL     OW 9372   2.212   2.760   1.804
 3028SOL    HW1 9373   2.288   2.804   1.852
 3028SOL    HW2 9374   2.247   2.713   1.722
 3029SOL     OW 9375   3.402   2.136   0.125
 3029SOL    HW1 9376   3.341   2.061   0.148
 3029SOL    HW2 9377   3.424   2.188   0.208
 3030SOL     OW 9378   3.165   2.700   0.042
 3030SOL    HW1 9379   3.199   2.607   0.057
 3030SOL    HW2 9380   3.183   2.727  -0.053
 3031SOL     OW 9381   2.930   3.195   0.849
 3031SOL    HW1 9382   2.937   3.111   0.794
 3031SOL    HW2 9383   2.992   3.264   0.813
 3032SOL     OW 9384   2.181   2.672   0.949
 3032SOL    HW1 9385   2.274   2.708   0.954
 3032SOL    HW2 9386   2.175   2.587   1.001
 3033SOL     OW 9387   2.201   2.371   1.006
 3033SOL    HW1 9388   2.149   2.288   0.989
 3033SOL    HW2 9389   2.278   2.376   0.942
 3034SOL     OW 9390   3.000   2.242   1.678
 3034SOL    HW1 9391   2.955   2.305   1.742
 3034SOL    HW2 9392   3.093   2.273   1.661
 3035SOL     OW 9393   3.022   2.069   1.477
 3035SOL    HW1 9394   3.022   2.133   1.554
 3035SOL    HW2 9395   3.050   2.117   1.394
 3036SOL     OW 9396   1.950   3.663   0.927
 3036SOL    HW1 9397   1.908   3.577   0.900
 3036SOL    HW2 9398   2.044   3.666   0.893
 3037SOL     OW 9399   2.366   3.430   0.910
 3037SOL    HW1 9400   2.432   3.504   0.919
 3037SOL    HW2 9401   2.410   3.351   0.868
 3038SOL     OW 9402   2.864   2.658   1.238
 3038SOL    HW1 9403   2.905   2.626   1.324
 3038SOL    HW2 9404   2.768   2.631   1.235
 3039SOL     OW 9405   1.902   2.406   1.114
 3039SOL    HW1 9406   1.987   2.373   1.073
 3039SOL    HW2 9407   1.915   2.421   1.212
 3040SOL     OW 9408   2.051   2.382   1.722
 3040SOL    HW1 9409   2.110   2.342   1.652
 3040SOL    HW2 9410   1.993   2.453   1.681
 3041SOL     OW 9411   3.231   2.812   1.660
 3041SOL    HW1 9412   3.270   2.901   1.680
 3041SOL    HW2 9413   3.241   2.792   1.563
 3042SOL     OW 9414   2.677   2.434   0.325
 3042SOL    HW1 9415   2.684   2.345   0.279
 3042SOL    HW2 9416   2.583   2.468   0.317
 3043SOL     OW 9417   3.519   2.466   1.206
 3043SOL    HW1 9418   3.481   2.397   1.268
 3043SOL    HW2 9419   3.601   2.430   1.162
 3044SOL     OW 9420   2.114   3.426   1.744
 3044SOL    HW1 9421   2.084   3.483   1.820
 3044SOL    HW2 9422   2.107   3.329   1.770
 3045SOL     OW 9423   2.533   2.326   1.269
 3045SOL    HW1 9424   2.499   2.237   1.239
 3045SOL    HW2 9425   2.559   2.380   1.189
 3046SOL     OW 9426   2.792   3.540   1.465
 3046SOL    HW1 9427   2.768   3.522   1.370
 3046SOL    HW2 9428   2.822   3.634   1.475
 3047SOL     OW 9429   2.335   2.362   0.191
 3047SOL    HW1 9430   2.396   2.442   0.195
 3047SOL    HW2 9431   2.240   2.393   0.198
 3048SOL     OW 9432   2.021   2.999   1.466
 3048SOL    HW1 9433   2.043   2.938   1.542
 3048SOL    HW2 9434   2.031   2.950   1.380
 3049SOL     OW 9435   3.209   2.921   1.234
 3049SOL    HW1 9436   3.233   2.858   1.160
 3049SOL    HW2 9437   3.119   2.961   1.216
 3050SOL     OW 9438   3.164   2.717   0.309
 3050SOL    HW1 9439   3.078   2.686   0.351
 3050SOL    HW2 9440   3.160   2.703   0.210
 3051SOL     OW 9441   3.621   3.609   1.154
 3051SOL    HW1 9442   3.682   3.639   1.081
 3051SOL    HW2 9443   3.583   3.520   1.132
 3052SOL     OW 9444   3.114   3.593   1.128
 3052SOL    HW1 9445   3.198   3.598   1.074
 3052SOL    HW2 9446   3.091   3.497   1.146
 3053SOL     OW 9447   1.945   3.120   1.022
 3053SOL    HW1 9448   1.940   3.119   1.122
 3053SOL    HW2 9449   1.862   3.079   0.984
 3054SOL     OW 9450   2.550   3.524   1.716
 3054SOL    HW1 9451   2.494   3.605   1.725
 3054SOL    HW2 9452   2.602   3.528   1.630
 3055SOL     OW 9453   2.765   1.948   0.133
 3055SOL    HW1 9454   2.816   1.949   0.047
 3055SOL    HW2 9455   2.821   1.906   0.204
 3056SOL     OW 9456   3.588   1.997   0.523
 3056SOL    HW1 9457   3.661   1.980   0.456
 3056SOL    HW2 9458   3.557   1.910   0.561
 3057SOL     OW 9459   3.250   3.435   0.477
 3057SOL    HW1 9460   3.317   3.447   0.403
 3057SOL    HW2 9461   3.210   3.524   0.500
 3058SOL     OW 9462   1.992   3.656   1.851
 3058SOL    HW1 9463   1.951   3.582   1.904
 3058SOL    HW2 9464   2.056   3.707   1.909
 3059SOL     OW 9465   3.142   2.789   0.672
 3059SOL    HW1 9466   3.202   2.708   0.674
 3059SOL    HW2 9467   3.182   2.858   0.612
 3060SOL     OW 9468   2.692   3.135   1.422
 3060SOL    HW1 9469   2.687   3.168   1.517
 3060SOL    HW2 9470   2.606   3.154   1.376
 3061SOL     OW 9471   2.534   3.478   0.154
 3061SOL    HW1 9472   2.543   3.488   0.055
 3061SOL    HW2 9473   2.494   3.389   0.175
 3062SOL     OW 9474   3.512   3.582   1.394
 3062SOL    HW1 9475   3.565   3.592   1.310
 3062SOL    HW2 9476   3.485   3.672   1.428
 3063SOL     OW 9477   3.703   2.037   0.963
 3063SOL    HW1 9478   3.742   1.952   0.927
 3063SOL    HW2 9479   3.605   2.039   0.944
 3064SOL     OW 9480   2.125   2.188   0.720
 3064SOL    HW1 9481   2.046   2.239   0.686
 3064SOL    HW2 9482   2.116   2.173   0.818
 3065SOL     OW 9483   3.056   3.474   0.031
 3065SOL    HW1 9484   3.062   3.381   0.068
 3065SOL    HW2 9485   2.997   3.474  -0.049
 3066SOL     OW 9486   2.684   2.864   1.372
 3066SOL    HW1 9487   2.724   2.863   1.280
 3066SOL    HW2 9488   2.694   2.956   1.412
 3067SOL     OW 9489   2.778   2.772   0.291
 3067SOL    HW1 9490   2.841   2.810   0.223
 3067SOL    HW2 9491   2.818   2.689   0.330
 3068SOL     OW 9492   3.366   3.469   0.044
 3068SOL    HW1 9493   3.274   3.506   0.051
 3068SOL    HW2 9494   3.404   3.489  -0.046
 3069SOL     OW 9495   2.234   3.150   1.490
 3069SOL    HW1 9496   2.221   3.243   1.456
 3069SOL    HW2 9497   2.150   3.098   1.477
 3070SOL     OW 9498   3.476   3.154   1.289
 3070SOL    HW1 9499   3.536   3.157   1.369
 3070SOL    HW2 9500   3.401   3.218   1.302
 3071SOL     OW 9501   2.901   2.960   0.696
 3071SOL    HW1 9502   2.831   2.913   0.750
 3071SOL    HW2 9503   2.960   2.892   0.653
 3072SOL     OW 9504   2.876   2.098   0.971
 3072SOL    HW1 9505   2.868   2.062   0.878
 3072SOL    HW2 9506   2.874   2.022   1.036
 3073SOL     OW 9507   2.452   3.349   0.491
 3073SOL    HW1 9508   2.494   3.291   0.421
 3073SOL    HW2 9509   2.408   3.428   0.447
 3074SOL     OW 9510   3.571   2.247   1.381
 3074SOL    HW1 9511   3.644   2.316   1.385
 3074SOL    HW2 9512   3.599   2.172   1.322
 3075SOL     OW 9513   2.117   3.210   0.290
 3075SOL    HW1 9514   2.021   3.211   0.263
 3075SOL    HW2 9515   2.129   3.263   0.374
 3076SOL     OW 9516   1.967   2.875   1.726
 3076SOL    HW1 9517   1.890   2.842   1.780
 3076SOL    HW2 9518   2.052   2.845   1.768
 3077SOL     OW 9519   2.534   2.065   1.489
 3077SOL    HW1 9520   2.624   2.049   1.449
 3077SOL    HW2 9521   2.542   2.070   1.588
 3078SOL     OW 9522   1.937   2.207   0.033
 3078SOL    HW1 9523   1.845   2.179   0.004
 3078SOL    HW2 9524   1.968   2.284  -0.023
 3079SOL     OW 9525   3.302   2.718   1.398
 3079SOL    HW1 9526   3.245   2.770   1.335
 3079SOL    HW2 9527   3.398   2.730   1.374
 3080SOL     OW 9528   1.934   2.028   0.318
 3080SOL    HW1 9529   1.917   2.111   0.264
 3080SOL    HW2 9530   2.024   1.991   0.296
 3081SOL     OW 9531   3.045   3.197   0.119
 3081SOL    HW1 9532   2.946   3.186   0.121
 3081SOL    HW2 9533   3.079   3.212   0.212
 3082SOL     OW 9534   2.475   2.704   1.431
 3082SOL    HW1 9535   2.531   2.785   1.414
 3082SOL    HW2 9536   2.534   2.624   1.434
 3083SOL     OW 9537   3.355   3.629   0.959
 3083SOL    HW1 9538   3.388   3.693   0.890
 3083SOL    HW2 9539   3.421   3.623   1.034
 3084SOL     OW 9540   2.578   2.427   1.708
 3084SOL    HW1 9541   2.597   2.492   1.782
 3084SOL    HW2 9542   2.638   2.347   1.717
 3085SOL     OW 9543   3.312   3.082   1.633
 3085SOL    HW1 9544   3.303   3.072   1.732
 3085SOL    HW2 9545   3.408   3.075   1.607
 3086SOL     OW 9546   2.252   3.603   1.560
 3086SOL    HW1 9547   2.161   3.644   1.558
 3086SOL    HW2 9548   2.245   3.509   1.592
 3087SOL     OW 9549   3.536   2.745   1.254
 3087SOL    HW1 9550   3.509   2.656   1.217
 3087SOL    HW2 9551   3.537   2.813   1.181
 3088SOL     OW 9552   3.087   2.187   0.449
 3088SOL    HW1 9553   3.152   2.113   0.438
 3088SOL    HW2 9554   3.107   2.237   0.533
 3089SOL     OW 9555   2.456   2.607   0.652
 3089SOL    HW1 9556   2.506   2.692   0.633
 3089SOL    HW2 9557   2.368   2.609   0.604
 3090SOL     OW 9558   3.639   2.204   1.642
 3090SOL    HW1 9559   3.622   2.235   1.548
 3090SOL    HW2 9560   3.555   2.167   1.680
 3091SOL     OW 9561   3.592   2.796   1.517
 3091SOL    HW1 9562   3.630   2.887   1.532
 3091SOL    HW2 9563   3.584   2.779   1.418
 3092SOL     OW 9564   2.721   3.236   0.016
 3092SOL    HW1 9565   2.675   3.251   0.104
 3092SOL    HW2 9566   2.765   3.321  -0.014
 3093SOL     OW 9567   2.523   3.652   0.953
 3093SOL    HW1 9568   2.477   3.740   0.940
 3093SOL    HW2 9569   2.622   3.664   0.946
 3094SOL     OW 9570   2.721   2.818   0.861
 3094SOL    HW1 9571   2.775   2.749   0.909
 3094SOL    HW2 9572   2.689   2.887   0.927
 3095SOL     OW 9573   2.945   2.846   0.087
 3095SOL    HW1 9574   2.922   2.899   0.005
 3095SOL    HW2 9575   3.026   2.790   0.068
 3096SOL     OW 9576   3.723   3.431   0.851
 3096SOL    HW1 9577   3.652   3.419   0.781
 3096SOL    HW2 9578   3.724   3.352   0.911
 3097SOL     OW 9579   2.083   3.176   1.844
 3097SOL    HW1 9580   2.018   3.103   1.823
 3097SOL    HW2 9581   2.087   3.190   1.942
 3098SOL     OW 9582   1.941   3.102   0.653
 3098SOL    HW1 9583   1.940   3.055   0.741
 3098SOL    HW2 9584   2.023   3.074   0.602
 3099SOL     OW 9585   2.534   3.253   1.624
 3099SOL    HW1 9586   2.456   3.203   1.662
 3099SOL    HW2 9587   2.531   3.348   1.655
 3100SOL     OW 9588   3.686   2.054   1.227
 3100SOL    HW1 9589   3.682   1.964   1.271
 3100SOL    HW2 9590   3.689   2.043   1.128
 3101SOL     OW 9591   2.290   2.286   0.520
 3101SOL    HW1 9592   2.320   2.214   0.458
 3101SOL    HW2 9593   2.251   2.246   0.603
 3102SOL     OW 9594   3.567   3.349   1.104
 3102SOL    HW1 9595   3.474   3.324   1.077
 3102SOL    HW2 9596   3.593   3.299   1.186
 3103SOL     OW 9597   2.179   2.409   1.280
 3103SOL    HW1 9598   2.217   2.350   1.352
 3103SOL    HW2 9599   2.219   2.383   1.192
 3104SOL     OW 9600   2.674   3.448   0.687
 3104SOL    HW1 9601   2.706   3.458   0.593
 3104SOL    HW2 9602   2.595   3.386   0.689
 3105SOL     OW 9603   3.286   2.076   1.112
 3105SOL    HW1 9604   3.338   2.011   1.167
 3105SOL    HW2 9605   3.237   2.139   1.173
 3106SOL     OW 9606   2.863   1.896   1.154
 3106SOL    HW1 9607   2.800   1.824   1.123
 3106SOL    HW2 9608   2.956   1.860   1.154
 3107SOL     OW 9609   2.632   3.192   0.301
 3107SOL    HW1 9610   2.586   3.105   0.318
 3107SOL    HW2 9611   2.723   3.189   0.342
 3108SOL     OW 9612   2.480   3.429   1.284
 3108SOL    HW1 9613   2.475   3.511   1.341
 3108SOL    HW2 9614   2.569   3.426   1.239
 3109SOL     OW 9615   3.214   1.914   0.168
 3109SOL    HW1 9616   3.249   1.873   0.084
 3109SOL    HW2 9617   3.124   1.876   0.188
 3110SOL     OW 9618   3.162   2.315   0.691
 3110SOL    HW1 9619   3.103   2.395   0.695
 3110SOL    HW2 9620   3.177   2.280   0.784
 3111SOL     OW 9621   3.455   2.083   0.882
 3111SOL    HW1 9622   3.371   2.082   0.936
 3111SOL    HW2 9623   3.457   2.166   0.826
 3112SOL     OW 9624   1.901   2.939   0.300
 3112SOL    HW1 9625   2.000   2.928   0.291
 3112SOL    HW2 9626   1.861   2.853   0.332
 3113SOL     OW 9627   2.737   3.508   0.337
 3113SOL    HW1 9628   2.660   3.473   0.283
 3113SOL    HW2 9629   2.705   3.579   0.399
 3114SOL     OW 9630   2.092   2.490   1.975
 3114SOL    HW1 9631   1.999   2.488   2.012
 3114SOL    HW2 9632   2.093   2.451   1.883
 3115SOL     OW 9633   2.087   2.137   2.858
 3115SOL    HW1 9634   2.122   2.120   2.950
 3115SOL    HW2 9635   1.999   2.092   2.846
 3116SOL     OW 9636   1.881   2.230   2.509
 3116SOL    HW1 9637   1.799   2.273   2.548
 3116SOL    HW2 9638   1.853   2.157   2.446
 3117SOL     OW 9639   2.997   2.565   2.579
 3117SOL    HW1 9640   3.054   2.643   2.554
 3117SOL    HW2 9641   2.937   2.591   2.655
 3118SOL     OW 9642   3.617   2.469   2.093
 3118SOL    HW1 9643   3.605   2.456   1.994
 3118SOL    HW2 9644   3.587   2.388   2.142
 3119SOL     OW 9645   2.547   2.874   2.527
 3119SOL    HW1 9646   2.616   2.858   2.597
 3119SOL    HW2 9647   2.474   2.931   2.565
 3120SOL     OW 9648   2.197   3.297   2.923
 3120SOL    HW1 9649   2.119   3.266   2.870
 3120SOL    HW2 9650   2.255   3.355   2.866
 3121SOL     OW 9651   3.322   3.367   3.201
 3121SOL    HW1 9652   3.346   3.461   3.227
 3121SOL    HW2 9653   3.306   3.313   3.283
 3122SOL     OW 9654   3.465   2.309   2.599
 3122SOL    HW1 9655   3.391   2.355   2.549
 3122SOL    HW2 9656   3.516   2.377   2.652
 3123SOL     OW 9657   2.093   3.575   2.345
 3123SOL    HW1 9658   2.127   3.652   2.399
 3123SOL    HW2 9659   2.137   3.575   2.255
 3124SOL     OW 9660   2.092   3.296   2.400
 3124SOL    HW1 9661   2.066   3.392   2.400
 3124SOL    HW2 9662   2.021   3.242   2.445
 3125SOL     OW 9663   2.102   2.953   2.748
 3125SOL    HW1 9664   2.116   2.869   2.800
 3125SOL    HW2 9665   2.047   3.017   2.803
 3126SOL     OW 9666   2.482   3.648   3.301
 3126SOL    HW1 9667   2.390   3.631   3.336
 3126SOL    HW2 9668   2.510   3.740   3.327
 3127SOL     OW 9669   2.468   2.826   1.985
 3127SOL    HW1 9670   2.475   2.910   1.931
 3127SOL    HW2 9671   2.514   2.839   2.073
 3128SOL     OW 9672   3.456   1.976   3.342
 3128SOL    HW1 9673   3.438   2.043   3.270
 3128SOL    HW2 9674   3.453   2.022   3.431
 3129SOL     OW 9675   1.984   2.505   2.425
 3129SOL    HW1 9676   1.939   2.417   2.442
 3129SOL    HW2 9677   1.983   2.559   2.509
 3130SOL     OW 9678   1.889   3.458   1.979
 3130SOL    HW1 9679   1.870   3.362   2.000
 3130SOL    HW2 9680   1.856   3.516   2.054
 3131SOL     OW 9681   2.475   3.227   2.588
 3131SOL    HW1 9682   2.426   3.140   2.597
 3131SOL    HW2 9683   2.452   3.270   2.501
 3132SOL     OW 9684   2.671   1.866   2.364
 3132SOL    HW1 9685   2.711   1.957   2.355
 3132SOL    HW2 9686   2.571   1.874   2.370
 3133SOL     OW 9687   3.387   2.861   2.052
 3133SOL    HW1 9688   3.324   2.785   2.065
 3133SOL    HW2 9689   3.435   2.879   2.138
 3134SOL     OW 9690   3.049   3.654   3.478
 3134SOL    HW1 9691   3.073   3.714   3.402
 3134SOL    HW2 9692   3.056   3.559   3.448
 3135SOL     OW 9693   2.460   2.591   2.132
 3135SOL    HW1 9694   2.484   2.660   2.064
 3135SOL    HW2 9695   2.382   2.624   2.186
 3136SOL     OW 9696   3.143   2.207   2.806
 3136SOL    HW1 9697   3.057   2.157   2.793
 3136SOL    HW2 9698   3.205   2.153   2.862
 3137SOL     OW 9699   3.438   3.524   2.169
 3137SOL    HW1 9700   3.527   3.570   2.172
 3137SOL    HW2 9701   3.417   3.500   2.074
 3138SOL     OW 9702   3.256   2.331   3.536
 3138SOL    HW1 9703   3.236   2.374   3.624
 3138SOL    HW2 9704   3.334   2.269   3.545
 3139SOL     OW 9705   2.853   2.272   3.104
 3139SOL    HW1 9706   2.776   2.306   3.158
 3139SOL    HW2 9707   2.819   2.221   3.025
 3140SOL     OW 9708   2.903   2.563   2.291
 3140SOL    HW1 9709   2.929   2.559   2.387
 3140SOL    HW2 9710   2.818   2.512   2.277
 3141SOL     OW 9711   1.938   2.673   2.651
 3141SOL    HW1 9712   2.037   2.661   2.660
 3141SOL    HW2 9713   1.914   2.768   2.672
 3142SOL     OW 9714   1.992   3.683   3.433
 3142SOL    HW1 9715   1.982   3.668   3.532
 3142SOL    HW2 9716   1.906   3.719   3.397
 3143SOL     OW 9717   2.727   2.210   2.057
 3143SOL    HW1 9718   2.786   2.273   2.008
 3143SOL    HW2 9719   2.746   2.116   2.028
 3144SOL     OW 9720   3.581   2.447   3.693
 3144SOL    HW1 9721   3.555   2.536   3.657
 3144SOL    HW2 9722   3.579   2.379   3.620
 3145SOL     OW 9723   3.224   3.006   2.407
 3145SOL    HW1 9724   3.307   2.977   2.359
 3145SOL    HW2 9725   3.175   3.073   2.351
 3146SOL     OW 9726   2.412   2.058   2.747
 3146SOL    HW1 9727   2.407   2.053   2.847
 3146SOL    HW2 9728   2.414   2.154   2.718
 3147SOL     OW 9729   2.870   3.318   2.339
 3147SOL    HW1 9730   2.824   3.390   2.287
 3147SOL    HW2 9731   2.866   3.338   2.437
 3148SOL     OW 9732   2.213   3.663   2.715
 3148SOL    HW1 9733   2.263   3.577   2.721
 3148SOL    HW2 9734   2.278   3.740   2.712
 3149SOL     OW 9735   3.089   3.412   3.368
 3149SOL    HW1 9736   3.095   3.335   3.432
 3149SOL    HW2 9737   3.037   3.386   3.288
 3150SOL     OW 9738   2.183   2.805   2.104
 3150SOL    HW1 9739   2.265   2.844   2.062
 3150SOL    HW2 9740   2.156   2.723   2.055
 3151SOL     OW 9741   3.320   2.597   2.590
 3151SOL    HW1 9742   3.315   2.532   2.665
 3151SOL    HW2 9743   3.400   2.656   2.603
 3152SOL     OW 9744   2.973   3.638   2.099
 3152SOL    HW1 9745   2.913   3.576   2.149
 3152SOL    HW2 9746   3.004   3.594   2.014
 3153SOL     OW 9747   2.064   2.147   3.360
 3153SOL    HW1 9748   1.984   2.207   3.347
 3153SOL    HW2 9749   2.054   2.098   3.446
 3154SOL     OW 9750   2.326   3.605   2.185
 3154SOL    HW1 9751   2.359   3.644   2.271
 3154SOL    HW2 9752   2.402   3.598   2.120
 3155SOL     OW 9753   3.262   1.969   2.288
 3155SOL    HW1 9754   3.238   1.932   2.198
 3155SOL    HW2 9755   3.361   1.985   2.292
 3156SOL     OW 9756   2.111   3.647   3.103
 3156SOL    HW1 9757   2.168   3.582   3.153
 3156SOL    HW2 9758   2.095   3.614   3.010
 3157SOL     OW 9759   2.802   3.560   2.766
 3157SOL    HW1 9760   2.882   3.503   2.787
 3157SOL    HW2 9761   2.753   3.520   2.689
 3158SOL     OW 9762   2.244   2.562   2.342
 3158SOL    HW1 9763   2.289   2.472   2.339
 3158SOL    HW2 9764   2.150   2.551   2.375
 3159SOL     OW 9765   3.409   2.084   3.591
 3159SOL    HW1 9766   3.404   2.121   3.683
 3159SOL    HW2 9767   3.337   2.015   3.579
 3160SOL     OW 9768   2.476   1.984   1.979
 3160SOL    HW1 9769   2.574   1.962   1.986
 3160SOL    HW2 9770   2.445   1.967   1.886
 3161SOL     OW 9771   2.643   2.126   3.611
 3161SOL    HW1 9772   2.710   2.065   3.654
 3161SOL    HW2 9773   2.570   2.145   3.676
 3162SOL     OW 9774   2.750   3.376   3.057
 3162SOL    HW1 9775   2.727   3.351   2.963
 3162SOL    HW2 9776   2.811   3.307   3.096
 3163SOL     OW 9777   3.213   2.452   3.295
 3163SOL    HW1 9778   3.241   2.409   3.380
 3163SOL    HW2 9779   3.238   2.548   3.296
 3164SOL     OW 9780   2.665   3.264   2.786
 3164SOL    HW1 9781   2.755   3.278   2.744
 3164SOL    HW2 9782   2.594   3.266   2.715
 3165SOL     OW 9783   2.401   1.926   2.374
 3165SOL    HW1 9784   2.320   1.927   2.432
 3165SOL    HW2 9785   2.404   2.009   2.319
 3166SOL     OW 9786   3.296   3.050   1.903
 3166SOL    HW1 9787   3.328   2.974   1.960
 3166SOL    HW2 9788   3.204   3.077   1.933
 3167SOL     OW 9789   2.159   1.897   2.033
 3167SOL    HW1 9790   2.208   1.981   2.012
 3167SOL    HW2 9791   2.221   1.832   2.078
 3168SOL     OW 9792   2.797   2.098   2.342
 3168SOL    HW1 9793   2.749   2.139   2.264
 3168SOL    HW2 9794   2.896   2.096   2.323
 3169SOL     OW 9795   2.321   3.014   2.603
 3169SOL    HW1 9796   2.250   2.987   2.668
 3169SOL    HW2 9797   2.295   2.986   2.510
 3170SOL     OW 9798   3.133   3.659   2.453
 3170SOL    HW1 9799   3.177   3.723   2.389
 3170SOL    HW2 9800   3.083   3.711   2.523
 3171SOL     OW 9801   2.894   2.411   1.878
 3171SOL    HW1 9802   2.853   2.493   1.839
 3171SOL    HW2 9803   2.958   2.437   1.951
 3172SOL     OW 9804   2.728   2.316   2.504
 3172SOL    HW1 9805   2.696   2.388   2.442
 3172SOL    HW2 9806   2.752   2.235   2.451
 3173SOL     OW 9807   2.879   1.901   2.615
 3173SOL    HW1 9808   2.807   1.906   2.546
 3173SOL    HW2 9809   2.855   1.832   2.684
 3174SOL     OW 9810   3.719   2.695   2.239
 3174SOL    HW1 9811   3.761   2.631   2.303
 3174SOL    HW2 9812   3.681   2.644   2.161
 3175SOL     OW 9813   2.350   3.247   2.036
 3175SOL    HW1 9814   2.263   3.232   2.083
 3175SOL    HW2 9815   2.333   3.273   1.941
 3176SOL     OW 9816   3.252   2.437   1.940
 3176SOL    HW1 9817   3.198   2.416   2.021
 3176SOL    HW2 9818   3.343   2.396   1.949
 3177SOL     OW 9819   2.389   2.118   2.190
 3177SOL    HW1 9820   2.416   2.059   2.115
 3177SOL    HW2 9821   2.389   2.213   2.159
 3178SOL     OW 9822   3.454   3.491   3.487
 3178SOL    HW1 9823   3.481   3.525   3.397
 3178SOL    HW2 9824   3.533   3.453   3.533
 3179SOL     OW 9825   2.777   1.951   3.264
 3179SOL    HW1 9826   2.802   1.931   3.169
 3179SOL    HW2 9827   2.849   2.007   3.306
 3180SOL     OW 9828   2.567   2.912   2.230
 3180SOL    HW1 9829   2.553   2.919   2.329
 3180SOL    HW2 9830   2.651   2.861   2.212
 3181SOL     OW 9831   3.136   2.248   3.124
 3181SOL    HW1 9832   3.157   2.322   3.188
 3181SOL    HW2 9833   3.047   2.265   3.081
 3182SOL     OW 9834   1.926   3.426   3.193
 3182SOL    HW1 9835   1.880   3.508   3.159
 3182SOL    HW2 9836   2.024   3.445   3.202
 3183SOL     OW 9837   2.229   2.962   2.363
 3183SOL    HW1 9838   2.222   3.045   2.307
 3183SOL    HW2 9839   2.233   2.882   2.303
 3184SOL     OW 9840   3.444   2.501   2.334
 3184SOL    HW1 9841   3.413   2.562   2.407
 3184SOL    HW2 9842   3.494   2.553   2.265
 3185SOL     OW 9843   2.216   3.372   3.191
 3185SOL    HW1 9844   2.195   3.328   3.104
 3185SOL    HW2 9845   2.313   3.398   3.194
 3186SOL     OW 9846   3.449   2.641   3.532
 3186SOL    HW1 9847   3.357   2.679   3.527
 3186SOL    HW2 9848   3.509   2.688   3.467
 3187SOL     OW 9849   2.875   1.967   3.632
 3187SOL    HW1 9850   2.881   2.052   3.580
 3187SOL    HW2 9851   2.907   1.891   3.575
 3188SOL     OW 9852   2.435   2.732   2.891
 3188SOL    HW1 9853   2.479   2.821   2.882
 3188SOL    HW2 9854   2.372   2.732   2.968
 3189SOL     OW 9855   3.071   2.387   2.137
 3189SOL    HW1 9856   3.084   2.303   2.191
 3189SOL    HW2 9857   3.042   2.461   2.197
 3190SOL     OW 9858   2.169   2.075   3.093
 3190SOL    HW1 9859   2.146   2.112   3.183
 3190SOL    HW2 9860   2.139   1.980   3.087
 3191SOL     OW 9861   1.899   3.172   3.144
 3191SOL    HW1 9862   1.952   3.123   3.212
 3191SOL    HW2 9863   1.921   3.270   3.149
 3192SOL     OW 9864   3.590   2.797   3.716
 3192SOL    HW1 9865   3.544   2.790   3.627
 3192SOL    HW2 9866   3.528   2.841   3.782
 3193SOL     OW 9867   2.169   1.925   2.480
 3193SOL    HW1 9868   2.158   2.019   2.513
 3193SOL    HW2 9869   2.164   1.862   2.557
 3194SOL     OW 9870   3.484   2.229   2.236
 3194SOL    HW1 9871   3.486   2.153   2.300
 3194SOL    HW2 9872   3.436   2.306   2.276
 3195SOL     OW 9873   2.842   3.435   3.562
 3195SOL    HW1 9874   2.822   3.479   3.474
 3195SOL    HW2 9875   2.881   3.344   3.546
 3196SOL     OW 9876   3.721   3.380   3.467
 3196SOL    HW1 9877   3.735   3.407   3.372
 3196SOL    HW2 9878   3.804   3.402   3.520
 3197SOL     OW 9879   3.402   2.136   1.987
 3197SOL    HW1 9880   3.341   2.061   2.010
 3197SOL    HW2 9881   3.424   2.188   2.070
 3198SOL     OW 9882   3.165   2.700   1.904
 3198SOL    HW1 9883   3.199   2.607   1.919
 3198SOL    HW2 9884   3.183   2.727   1.809
 3199SOL     OW 9885   2.181   2.672   2.811
 3199SOL    HW1 9886   2.274   2.708   2.816
 3199SOL    HW2 9887   2.175   2.587   2.863
 3200SOL     OW 9888   2.201   2.371   2.868
 3200SOL    HW1 9889   2.149   2.288   2.851
 3200SOL    HW2 9890   2.278   2.376   2.804
 3201SOL     OW 9891   3.000   2.242   3.540
 3201SOL    HW1 9892   2.955   2.305   3.604
 3201SOL    HW2 9893   3.093   2.273   3.523
 3202SOL     OW 9894   3.022   2.069   3.339
 3202SOL    HW1 9895   3.022   2.133   3.416
 3202SOL    HW2 9896   3.050   2.117   3.256
 3203SOL     OW 9897   1.870   3.188   2.062
 3203SOL    HW1 9898   1.777   3.209   2.031
 3203SOL    HW2 9899   1.880   3.089   2.075
 3204SOL     OW 9900   1.950   3.663   2.789
 3204SOL    HW1 9901   1.908   3.577   2.762
 3204SOL    HW2 9902   2.044   3.666   2.755
 3205SOL     OW 9903   2.366   3.430   2.772
 3205SOL    HW1 9904   2.432   3.504   2.781
 3205SOL    HW2 9905   2.410   3.351   2.730
 3206SOL     OW 9906   3.231   2.812   3.522
 3206SOL    HW1 9907   3.270   2.901   3.542
 3206SOL    HW2 9908   3.241   2.792   3.425
 3207SOL     OW 9909   2.677   2.434   2.187
 3207SOL    HW1 9910   2.684   2.345   2.141
 3207SOL    HW2 9911   2.583   2.468   2.179
 3208SOL     OW 9912   3.519   2.466   3.068
 3208SOL    HW1 9913   3.481   2.397   3.130
 3208SOL    HW2 9914   3.601   2.430   3.024
 3209SOL     OW 9915   2.114   3.426   3.606
 3209SOL    HW1 9916   2.084   3.483   3.682
 3209SOL    HW2 9917   2.107   3.329   3.632
 3210SOL     OW 9918   2.792   3.540   3.327
 3210SOL    HW1 9919   2.768   3.522   3.232
 3210SOL    HW2 9920   2.822   3.634   3.337
 3211SOL     OW 9921   2.335   2.362   2.053
 3211SOL    HW1 9922   2.396   2.442   2.057
 3211SOL    HW2 9923   2.240   2.393   2.060
 3212SOL     OW 9924   2.021   2.999   3.328
 3212SOL    HW1 9925   2.043   2.938   3.404
 3212SOL    HW2 9926   2.031   2.950   3.242
 3213SOL     OW 9927   3.164   2.717   2.171
 3213SOL    HW1 9928   3.078   2.686   2.213
 3213SOL    HW2 9929   3.160   2.703   2.072
 3214SOL     OW 9930   1.945   3.120   2.884
 3214SOL    HW1 9931   1.940   3.119   2.984
 3214SOL    HW2 9932   1.862   3.079   2.846
 3215SOL     OW 9933   2.550   3.524   3.578
 3215SOL    HW1 9934   2.494   3.605   3.587
 3215SOL    HW2 9935   2.602   3.528   3.492
 3216SOL     OW 9936   3.588   1.997   2.385
 3216SOL    HW1 9937   3.661   1.980   2.318
 3216SOL    HW2 9938   3.557   1.910   2.423
 3217SOL     OW 9939   1.992   3.656   3.713
 3217SOL    HW1 9940   1.951   3.582   3.766
 3217SOL    HW2 9941   2.056   3.707   3.771
 3218SOL     OW 9942   2.692   3.135   3.284
 3218SOL    HW1 9943   2.687   3.168   3.379
 3218SOL    HW2 9944   2.606   3.154   3.238
 3219SOL     OW 9945   2.534   3.478   2.016
 3219SOL    HW1 9946   2.543   3.488   1.917
 3219SOL    HW2 9947   2.494   3.389   2.037
 3220SOL     OW 9948   3.512   3.582   3.256
 3220SOL    HW1 9949   3.565   3.592   3.172
 3220SOL    HW2 9950   3.485   3.672   3.290
 3221SOL     OW 9951   3.703   2.037   2.825
 3221SOL    HW1 9952   3.742   1.952   2.789
 3221SOL    HW2 9953   3.605   2.039   2.806
 3222SOL     OW 9954   2.125   2.188   2.582
 3222SOL    HW1 9955   2.046   2.239   2.548
 3222SOL    HW2 9956   2.116   2.173   2.680
 3223SOL     OW 9957   3.056   3.474   1.893
 3223SOL    HW1 9958   3.062   3.381   1.930
 3223SOL    HW2 9959   2.997   3.474   1.813
 3224SOL     OW 9960   2.778   2.772   2.153
 3224SOL    HW1 9961   2.841   2.810   2.085
 3224SOL    HW2 9962   2.818   2.689   2.192
 3225SOL     OW 9963   3.366   3.469   1.906
 3225SOL    HW1 9964   3.274   3.506   1.913
 3225SOL    HW2 9965   3.404   3.489   1.816
 3226SOL     OW 9966   2.234   3.150   3.352
 3226SOL    HW1 9967   2.221   3.243   3.318
 3226SOL    HW2 9968   2.150   3.098   3.339
 3227SOL     OW 9969   2.876   2.098   2.833
 3227SOL    HW1 9970   2.868   2.062   2.740
 3227SOL    HW2 9971   2.874   2.022   2.898
 3228SOL     OW 9972   2.452   3.349   2.353
 3228SOL    HW1 9973   2.494   3.291   2.283
 3228SOL    HW2 9974   2.408   3.428   2.309
 3229SOL     OW 9975   3.571   2.247   3.243
 3229SOL    HW1 9976   3.644   2.316   3.247
 3229SOL    HW2 9977   3.599   2.172   3.184
 3230SOL     OW 9978   2.117   3.210   2.152
 3230SOL    HW1 9979   2.021   3.211   2.125
 3230SOL    HW2 9980   2.129   3.263   2.236
 3231SOL     OW 9981   1.967   2.875   3.588
 3231SOL    HW1 9982   1.890   2.842   3.642
 3231SOL    HW2 9983   2.052   2.845   3.630
 3232SOL     OW 9984   2.534   2.065   3.351
 3232SOL    HW1 9985   2.624   2.049   3.311
 3232SOL    HW2 9986   2.542   2.070   3.450
 3233SOL     OW 9987   1.937   2.207   1.895
 3233SOL    HW1 9988   1.845   2.179   1.866
 3233SOL    HW2 9989   1.968   2.284   1.839
 3234SOL     OW 9990   1.934   2.028   2.180
 3234SOL    HW1 9991   1.917   2.111   2.126
 3234SOL    HW2 9992   2.024   1.991   2.158
 3235SOL     OW 9993   3.045   3.197   1.981
 3235SOL    HW1 9994   2.946   3.186   1.983
 3235SOL    HW2 9995   3.079   3.212   2.074
 3236SOL     OW 9996   3.355   3.629   2.821
 3236SOL    HW1 9997   3.388   3.693   2.752
 3236SOL    HW2 9998   3.421   3.623   2.896
 3237SOL     OW 9999   2.578   2.427   3.570
 3237SOL    HW110000   2.597   2.492   3.644
 3237SOL    HW210001   2.638   2.347   3.579
 3238SOL     OW10002   2.252   3.603   3.422
 3238SOL    HW110003   2.161   3.644   3.420
 3238SOL    HW210004   2.245   3.509   3.454
 3239SOL     OW10005   3.536   2.745   3.116
 3239SOL    HW110006   3.509   2.656   3.079
 3239SOL    HW210007   3.537   2.813   3.043
 3240SOL     OW10008   3.087   2.187   2.311
 3240SOL    HW110009   3.152   2.113   2.300
 3240SOL    HW210010   3.107   2.237   2.395
 3241SOL     OW10011   2.456   2.607   2.514
 3241SOL    HW110012   2.506   2.692   2.495
 3241SOL    HW210013   2.368   2.609   2.466
 3242SOL     OW10014   3.639   2.204   3.504
 3242SOL    HW110015   3.622   2.235   3.410
 3242SOL    HW210016   3.555   2.167   3.542
 3243SOL     OW10017   3.592   2.796   3.379
 3243SOL    HW110018   3.630   2.887   3.394
 3243SOL    HW210019   3.584   2.779   3.280
 3244SOL     OW10020   2.721   3.236   1.878
 3244SOL    HW110021   2.675   3.251   1.966
 3244SOL    HW210022   2.765   3.321   1.848
 3245SOL     OW10023   2.523   3.652   2.815
 3245SOL    HW110024   2.477   3.740   2.802
 3245SOL    HW210025   2.622   3.664   2.808
 3246SOL     OW10026   2.945   2.846   1.949
 3246SOL    HW110027   2.922   2.899   1.867
 3246SOL    HW210028   3.026   2.790   1.930
 3247SOL     OW10029   2.083   3.176   3.706
 3247SOL    HW110030   2.018   3.103   3.685
 3247SOL    HW210031   2.087   3.190   3.804
 3248SOL     OW10032   1.941   3.102   2.515
 3248SOL    HW110033   1.940   3.055   2.603
 3248SOL    HW210034   2.023   3.074   2.464
 3249SOL     OW10035   2.534   3.253   3.486
 3249SOL    HW110036   2.456   3.203   3.524
 3249SOL    HW210037   2.531   3.348   3.517
 3250SOL     OW10038   3.686   2.054   3.089
 3250SOL    HW110039   3.682   1.964   3.133
 3250SOL    HW210040   3.689   2.043   2.990
 3251SOL     OW10041   2.290   2.286   2.382
 3251SOL    HW110042   2.320   2.214   2.320
 3251SOL    HW210043   2.251   2.246   2.465
 3252SOL     OW10044   2.674   3.448   2.549
 3252SOL    HW110045   2.706   3.458   2.455
 3252SOL    HW210046   2.595   3.386   2.551
 3253SOL     OW10047   3.286   2.076   2.974
 3253SOL    HW110048   3.338   2.011   3.029
 3253SOL    HW210049   3.237   2.139   3.035
 3254SOL     OW10050   2.863   1.896   3.016
 3254SOL    HW110051   2.800   1.824   2.985
 3254SOL    HW210052   2.956   1.860   3.016
 3255SOL     OW10053   2.480   3.429   3.146
 3255SOL    HW110054   2.475   3.511   3.203
 3255SOL    HW210055   2.569   3.426   3.101
 3256SOL     OW10056   3.214   1.914   2.030
 3256SOL    HW110057   3.249   1.873   1.946
 3256SOL    HW210058   3.124   1.876   2.050
 3257SOL     OW10059   3.162   2.315   2.553
 3257SOL    HW110060   3.103   2.395   2.557
 3257SOL    HW210061   3.177   2.280   2.646
 3258SOL     OW10062   3.455   2.083   2.744
 3258SOL    HW110063   3.371   2.082   2.798
 3258SOL    HW210064   3.457   2.166   2.688
 3259SOL     OW10065   1.901   2.939   2.162
 3259SOL    HW110066   2.000   2.928   2.153
 3259SOL    HW210067   1.861   2.853   2.194
 3260SOL     OW10068   2.737   3.508   2.199
 3260SOL    HW110069   2.660   3.473   2.145
 3260SOL    HW210070   2.705   3.579   2.261
 3261SOL     OW10071   2.087   2.137   4.720
 3261SOL    HW110072   2.122   2.120   4.812
 3261SOL    HW210073   1.999   2.092   4.708
 3262SOL     OW10074   2.431   3.137   4.889
 3262SOL    HW110075   2.338   3.130   4.852
 3262SOL    HW210076   2.442   3.226   4.933
 3263SOL     OW10077   3.417   3.373   4.427
 3263SOL    HW110078   3.360   3.357   4.508
 3263SOL    HW210079   3.358   3.383   4.347
 3264SOL     OW10080   2.997   2.565   4.441
 3264SOL    HW110081   3.054   2.643   4.416
 3264SOL    HW210082   2.937   2.591   4.517
 3265SOL     OW10083   3.617   2.469   3.955
 3265SOL    HW110084   3.605   2.456   3.856
 3265SOL    HW210085   3.587   2.388   4.004
 3266SOL     OW10086   2.630   3.006   4.747
 3266SOL    HW110087   2.552   3.023   4.807
 3266SOL    HW210088   2.664   3.093   4.711
 3267SOL     OW10089   2.712   2.660   5.547
 3267SOL    HW110090   2.708   2.736   5.612
 3267SOL    HW210091   2.734   2.696   5.456
 3268SOL     OW10092   2.547   2.874   4.389
 3268SOL    HW110093   2.616   2.858   4.459
 3268SOL    HW210094   2.474   2.931   4.427
 3269SOL     OW10095   2.548   3.023   5.527
 3269SOL    HW110096   2.608   3.102   5.541
 3269SOL    HW210097   2.462   3.054   5.486
 3270SOL     OW10098   2.197   3.297   4.785
 3270SOL    HW110099   2.119   3.266   4.732
 3270SOL    HW210100   2.255   3.355   4.728
 3271SOL     OW10101   3.322   3.367   5.063
 3271SOL    HW110102   3.346   3.461   5.089
 3271SOL    HW210103   3.306   3.313   5.145
 3272SOL     OW10104   2.300   2.254   5.223
 3272SOL    HW110105   2.382   2.198   5.232
 3272SOL    HW210106   2.219   2.196   5.227
 3273SOL     OW10107   3.465   2.309   4.461
 3273SOL    HW110108   3.391   2.355   4.411
 3273SOL    HW210109   3.516   2.377   4.514
 3274SOL     OW10110   2.093   3.575   4.207
 3274SOL    HW110111   2.127   3.652   4.261
 3274SOL    HW210112   2.137   3.575   4.117
 3275SOL     OW10113   2.989   3.203   5.414
 3275SOL    HW110114   3.036   3.203   5.502
 3275SOL    HW210115   2.941   3.116   5.403
 3276SOL     OW10116   2.092   3.296   4.262
 3276SOL    HW110117   2.066   3.392   4.262
 3276SOL    HW210118   2.021   3.242   4.307
 3277SOL     OW10119   2.102   2.953   4.610
 3277SOL    HW110120   2.116   2.869   4.662
 3277SOL    HW210121   2.047   3.017   4.665
 3278SOL     OW10122   2.482   3.648   5.163
 3278SOL    HW110123   2.390   3.631   5.198
 3278SOL    HW210124   2.510   3.740   5.189
 3279SOL     OW10125   2.468   2.826   3.847
 3279SOL    HW110126   2.475   2.910   3.793
 3279SOL    HW210127   2.514   2.839   3.935
 3280SOL     OW10128   3.456   1.976   5.204
 3280SOL    HW110129   3.438   2.043   5.132
 3280SOL    HW210130   3.453   2.022   5.293
 3281SOL     OW10131   1.984   2.505   4.287
 3281SOL    HW110132   1.939   2.417   4.304
 3281SOL    HW210133   1.983   2.559   4.371
 3282SOL     OW10134   3.704   3.629   4.083
 3282SOL    HW110135   3.758   3.600   4.163
 3282SOL    HW210136   3.734   3.719   4.054
 3283SOL     OW10137   1.889   3.458   3.841
 3283SOL    HW110138   1.870   3.362   3.862
 3283SOL    HW210139   1.856   3.516   3.916
 3284SOL     OW10140   3.551   2.784   4.336
 3284SOL    HW110141   3.646   2.755   4.344
 3284SOL    HW210142   3.543   2.849   4.261
 3285SOL     OW10143   3.503   2.970   4.156
 3285SOL    HW110144   3.589   2.972   4.104
 3285SOL    HW210145   3.517   3.017   4.244
 3286SOL     OW10146   1.975   2.599   5.321
 3286SOL    HW110147   2.063   2.586   5.366
 3286SOL    HW210148   1.962   2.696   5.299
 3287SOL     OW10149   2.475   3.227   4.450
 3287SOL    HW110150   2.426   3.140   4.459
 3287SOL    HW210151   2.452   3.270   4.363
 3288SOL     OW10152   3.155   3.090   5.147
 3288SOL    HW110153   3.192   3.017   5.089
 3288SOL    HW210154   3.207   3.095   5.232
 3289SOL     OW10155   2.671   1.866   4.226
 3289SOL    HW110156   2.711   1.957   4.217
 3289SOL    HW210157   2.571   1.874   4.232
 3290SOL     OW10158   2.059   2.838   4.988
 3290SOL    HW110159   2.148   2.793   4.974
 3290SOL    HW210160   1.986   2.773   4.969
 3291SOL     OW10161   3.387   2.861   3.914
 3291SOL    HW110162   3.324   2.785   3.927
 3291SOL    HW210163   3.435   2.879   4.000
 3292SOL     OW10164   3.049   3.654   5.340
 3292SOL    HW110165   3.073   3.714   5.264
 3292SOL    HW210166   3.056   3.559   5.310
 3293SOL     OW10167   2.179   2.113   5.525
 3293SOL    HW110168   2.250   2.184   5.531
 3293SOL    HW210169   2.091   2.152   5.553
 3294SOL     OW10170   3.328   3.279   4.677
 3294SOL    HW110171   3.269   3.285   4.757
 3294SOL    HW210172   3.313   3.191   4.631
 3295SOL     OW10173   3.529   3.576   4.296
 3295SOL    HW110174   3.488   3.553   4.208
 3295SOL    HW210175   3.511   3.502   4.361
 3296SOL     OW10176   3.143   2.207   4.668
 3296SOL    HW110177   3.057   2.157   4.655
 3296SOL    HW210178   3.205   2.153   4.724
 3297SOL     OW10179   3.438   3.524   4.031
 3297SOL    HW110180   3.527   3.570   4.034
 3297SOL    HW210181   3.417   3.500   3.936
 3298SOL     OW10182   2.669   2.467   5.189
 3298SOL    HW110183   2.622   2.464   5.278
 3298SOL    HW210184   2.618   2.412   5.123
 3299SOL     OW10185   3.256   2.331   5.398
 3299SOL    HW110186   3.236   2.374   5.486
 3299SOL    HW210187   3.334   2.269   5.407
 3300SOL     OW10188   2.835   2.752   5.296
 3300SOL    HW110189   2.881   2.668   5.267
 3300SOL    HW210190   2.779   2.786   5.221
 3301SOL     OW10191   2.853   2.272   4.966
 3301SOL    HW110192   2.776   2.306   5.020
 3301SOL    HW210193   2.819   2.221   4.887
 3302SOL     OW10194   2.903   2.563   4.153
 3302SOL    HW110195   2.929   2.559   4.249
 3302SOL    HW210196   2.818   2.512   4.139
 3303SOL     OW10197   1.938   2.673   4.513
 3303SOL    HW110198   2.037   2.661   4.522
 3303SOL    HW210199   1.914   2.768   4.534
 3304SOL     OW10200   1.992   3.683   5.295
 3304SOL    HW110201   1.982   3.668   5.394
 3304SOL    HW210202   1.906   3.719   5.259
 3305SOL     OW10203   2.727   2.210   3.919
 3305SOL    HW110204   2.786   2.273   3.870
 3305SOL    HW210205   2.746   2.116   3.890
 3306SOL     OW10206   3.581   2.447   5.555
 3306SOL    HW110207   3.555   2.536   5.519
 3306SOL    HW210208   3.579   2.379   5.482
 3307SOL     OW10209   3.224   3.006   4.269
 3307SOL    HW110210   3.307   2.977   4.221
 3307SOL    HW210211   3.175   3.073   4.213
 3308SOL     OW10212   2.412   2.058   4.609
 3308SOL    HW110213   2.407   2.053   4.709
 3308SOL    HW210214   2.414   2.154   4.580
 3309SOL     OW10215   2.870   3.318   4.201
 3309SOL    HW110216   2.824   3.390   4.149
 3309SOL    HW210217   2.866   3.338   4.299
 3310SOL     OW10218   2.213   3.663   4.577
 3310SOL    HW110219   2.263   3.577   4.583
 3310SOL    HW210220   2.278   3.740   4.574
 3311SOL     OW10221   3.657   2.928   4.597
 3311SOL    HW110222   3.595   2.913   4.521
 3311SOL    HW210223   3.605   2.939   4.682
 3312SOL     OW10224   3.089   3.412   5.230
 3312SOL    HW110225   3.095   3.335   5.294
 3312SOL    HW210226   3.037   3.386   5.150
 3313SOL     OW10227   2.183   2.805   3.966
 3313SOL    HW110228   2.265   2.844   3.924
 3313SOL    HW210229   2.156   2.723   3.917
 3314SOL     OW10230   3.320   2.597   4.452
 3314SOL    HW110231   3.315   2.532   4.527
 3314SOL    HW210232   3.400   2.656   4.465
 3315SOL     OW10233   2.323   3.128   5.451
 3315SOL    HW110234   2.273   3.129   5.365
 3315SOL    HW210235   2.260   3.110   5.527
 3316SOL     OW10236   2.973   3.638   3.961
 3316SOL    HW110237   2.913   3.576   4.011
 3316SOL    HW210238   3.004   3.594   3.876
 3317SOL     OW10239   2.064   2.147   5.222
 3317SOL    HW110240   1.984   2.207   5.209
 3317SOL    HW210241   2.054   2.098   5.308
 3318SOL     OW10242   3.494   3.239   3.805
 3318SOL    HW110243   3.462   3.333   3.795
 3318SOL    HW210244   3.418   3.176   3.793
 3319SOL     OW10245   2.326   3.605   4.047
 3319SOL    HW110246   2.359   3.644   4.133
 3319SOL    HW210247   2.402   3.598   3.982
 3320SOL     OW10248   3.262   1.969   4.150
 3320SOL    HW110249   3.238   1.932   4.060
 3320SOL    HW210250   3.361   1.985   4.154
 3321SOL     OW10251   2.111   3.647   4.965
 3321SOL    HW110252   2.168   3.582   5.015
 3321SOL    HW210253   2.095   3.614   4.872
 3322SOL     OW10254   2.802   3.560   4.628
 3322SOL    HW110255   2.882   3.503   4.649
 3322SOL    HW210256   2.753   3.520   4.551
 3323SOL     OW10257   3.409   2.084   5.453
 3323SOL    HW110258   3.404   2.121   5.545
 3323SOL    HW210259   3.337   2.015   5.441
 3324SOL     OW10260   2.476   1.984   3.841
 3324SOL    HW110261   2.574   1.962   3.848
 3324SOL    HW210262   2.445   1.967   3.748
 3325SOL     OW10263   2.643   2.126   5.473
 3325SOL    HW110264   2.710   2.065   5.516
 3325SOL    HW210265   2.570   2.145   5.538
 3326SOL     OW10266   2.750   3.376   4.919
 3326SOL    HW110267   2.727   3.351   4.825
 3326SOL    HW210268   2.811   3.307   4.958
 3327SOL     OW10269   3.213   2.452   5.157
 3327SOL    HW110270   3.241   2.409   5.242
 3327SOL    HW210271   3.238   2.548   5.158
 3328SOL     OW10272   2.665   3.264   4.648
 3328SOL    HW110273   2.755   3.278   4.606
 3328SOL    HW210274   2.594   3.266   4.577
 3329SOL     OW10275   2.784   2.365   4.623
 3329SOL    HW110276   2.759   2.356   4.527
 3329SOL    HW210277   2.832   2.283   4.654
 3330SOL     OW10278   2.401   1.926   4.236
 3330SOL    HW110279   2.320   1.927   4.294
 3330SOL    HW210280   2.404   2.009   4.181
 3331SOL     OW10281   3.296   3.050   3.765
 3331SOL    HW110282   3.328   2.974   3.822
 3331SOL    HW210283   3.204   3.077   3.795
 3332SOL     OW10284   2.159   1.897   3.895
 3332SOL    HW110285   2.208   1.981   3.874
 3332SOL    HW210286   2.221   1.832   3.940
 3333SOL     OW10287   2.797   2.098   4.204
 3333SOL    HW110288   2.749   2.139   4.126
 3333SOL    HW210289   2.896   2.096   4.185
 3334SOL     OW10290   2.938   2.545   5.188
 3334SOL    HW110291   2.858   2.484   5.191
 3334SOL    HW210292   3.019   2.492   5.164
 3335SOL     OW10293   3.089   3.432   4.517
 3335SOL    HW110294   3.110   3.506   4.452
 3335SOL    HW210295   3.157   3.432   4.590
 3336SOL     OW10296   2.321   3.014   4.465
 3336SOL    HW110297   2.250   2.987   4.530
 3336SOL    HW210298   2.295   2.986   4.372
 3337SOL     OW10299   3.133   3.659   4.315
 3337SOL    HW110300   3.177   3.723   4.251
 3337SOL    HW210301   3.083   3.711   4.385
 3338SOL     OW10302   2.894   2.411   3.740
 3338SOL    HW110303   2.853   2.493   3.701
 3338SOL    HW210304   2.958   2.437   3.813
 3339SOL     OW10305   1.940   2.418   5.110
 3339SOL    HW110306   2.032   2.417   5.069
 3339SOL    HW210307   1.934   2.492   5.177
 3340SOL     OW10308   2.423   2.084   4.871
 3340SOL    HW110309   2.461   2.000   4.908
 3340SOL    HW210310   2.335   2.103   4.915
 3341SOL     OW10311   2.728   2.316   4.366
 3341SOL    HW110312   2.696   2.388   4.304
 3341SOL    HW210313   2.752   2.235   4.313
 3342SOL     OW10314   2.879   1.901   4.477
 3342SOL    HW110315   2.807   1.906   4.408
 3342SOL    HW210316   2.855   1.832   4.546
 3343SOL     OW10317   3.291   3.035   4.591
 3343SOL    HW110318   3.236   2.951   4.584
 3343SOL    HW210319   3.317   3.064   4.499
 3344SOL     OW10320   3.328   2.452   4.716
 3344SOL    HW110321   3.298   2.357   4.723
 3344SOL    HW210322   3.401   2.468   4.782
 3345SOL     OW10323   3.719   2.695   4.101
 3345SOL    HW110324   3.761   2.631   4.165
 3345SOL    HW210325   3.681   2.644   4.023
 3346SOL     OW10326   2.350   3.247   3.898
 3346SOL    HW110327   2.263   3.232   3.945
 3346SOL    HW210328   2.333   3.273   3.803
 3347SOL     OW10329   3.526   3.142   4.381
 3347SOL    HW110330   3.625   3.150   4.395
 3347SOL    HW210331   3.481   3.226   4.412
 3348SOL     OW10332   3.252   2.437   3.802
 3348SOL    HW110333   3.198   2.416   3.883
 3348SOL    HW210334   3.343   2.396   3.811
 3349SOL     OW10335   2.389   2.118   4.052
 3349SOL    HW110336   2.416   2.059   3.977
 3349SOL    HW210337   2.389   2.213   4.021
 3350SOL     OW10338   3.616   3.085   5.312
 3350SOL    HW110339   3.707   3.046   5.299
 3350SOL    HW210340   3.624   3.181   5.336
 3351SOL     OW10341   2.926   3.209   5.064
 3351SOL    HW110342   2.846   3.186   5.119
 3351SOL    HW210343   3.009   3.183   5.113
 3352SOL     OW10344   3.454   3.491   5.349
 3352SOL    HW110345   3.481   3.525   5.259
 3352SOL    HW210346   3.533   3.453   5.395
 3353SOL     OW10347   2.973   3.057   4.824
 3353SOL    HW110348   2.933   3.101   4.905
 3353SOL    HW210349   2.932   3.094   4.741
 3354SOL     OW10350   3.500   2.961   4.803
 3354SOL    HW110351   3.505   3.042   4.862
 3354SOL    HW210352   3.414   2.963   4.752
 3355SOL     OW10353   2.777   1.951   5.126
 3355SOL    HW110354   2.802   1.931   5.031
 3355SOL    HW210355   2.849   2.007   5.168
 3356SOL     OW10356   2.842   2.978   5.443
 3356SOL    HW110357   2.743   2.984   5.453
 3356SOL    HW210358   2.865   2.898   5.387
 3357SOL     OW10359   2.567   2.912   4.092
 3357SOL    HW110360   2.553   2.919   4.191
 3357SOL    HW210361   2.651   2.861   4.074
 3358SOL     OW10362   2.272   2.675   4.975
 3358SOL    HW110363   2.358   2.687   5.025
 3358SOL    HW210364   2.230   2.588   5.002
 3359SOL     OW10365   3.136   2.248   4.986
 3359SOL    HW110366   3.157   2.322   5.050
 3359SOL    HW210367   3.047   2.265   4.943
 3360SOL     OW10368   1.926   3.426   5.055
 3360SOL    HW110369   1.880   3.508   5.021
 3360SOL    HW210370   2.024   3.445   5.064
 3361SOL     OW10371   2.229   2.962   4.225
 3361SOL    HW110372   2.222   3.045   4.169
 3361SOL    HW210373   2.233   2.882   4.165
 3362SOL     OW10374   2.428   2.399   4.589
 3362SOL    HW110375   2.440   2.465   4.515
 3362SOL    HW210376   2.474   2.433   4.672
 3363SOL     OW10377   3.114   3.210   4.112
 3363SOL    HW110378   3.164   3.287   4.152
 3363SOL    HW210379   3.019   3.212   4.144
 3364SOL     OW10380   3.134   3.307   4.866
 3364SOL    HW110381   3.181   3.320   4.953
 3364SOL    HW210382   3.068   3.233   4.875
 3365SOL     OW10383   3.444   2.501   4.196
 3365SOL    HW110384   3.413   2.562   4.269
 3365SOL    HW210385   3.494   2.553   4.127
 3366SOL     OW10386   2.216   3.372   5.053
 3366SOL    HW110387   2.195   3.328   4.966
 3366SOL    HW210388   2.313   3.398   5.056
 3367SOL     OW10389   2.264   2.613   5.322
 3367SOL    HW110390   2.332   2.668   5.275
 3367SOL    HW210391   2.304   2.525   5.349
 3368SOL     OW10392   3.449   2.641   5.394
 3368SOL    HW110393   3.357   2.679   5.389
 3368SOL    HW210394   3.509   2.688   5.329
 3369SOL     OW10395   2.875   1.967   5.494
 3369SOL    HW110396   2.881   2.052   5.442
 3369SOL    HW210397   2.907   1.891   5.437
 3370SOL     OW10398   2.366   1.912   5.464
 3370SOL    HW110399   2.324   1.855   5.394
 3370SOL    HW210400   2.300   1.981   5.496
 3371SOL     OW10401   2.435   2.732   4.753
 3371SOL    HW110402   2.479   2.821   4.744
 3371SOL    HW210403   2.372   2.732   4.830
 3372SOL     OW10404   3.222   2.724   4.769
 3372SOL    HW110405   3.147   2.724   4.703
 3372SOL    HW210406   3.259   2.632   4.778
 3373SOL     OW10407   3.071   2.387   3.999
 3373SOL    HW110408   3.084   2.303   4.053
 3373SOL    HW210409   3.042   2.461   4.059
 3374SOL     OW10410   2.169   2.075   4.955
 3374SOL    HW110411   2.146   2.112   5.045
 3374SOL    HW210412   2.139   1.980   4.949
 3375SOL     OW10413   1.899   3.172   5.006
 3375SOL    HW110414   1.952   3.123   5.074
 3375SOL    HW210415   1.921   3.270   5.011
 3376SOL     OW10416   2.594   2.496   4.788
 3376SOL    HW110417   2.653   2.470   4.712
 3376SOL    HW210418   2.566   2.592   4.777
 3377SOL     OW10419   3.590   2.797   5.578
 3377SOL    HW110420   3.544   2.790   5.489
 3377SOL    HW210421   3.528   2.841   5.644
 3378SOL     OW10422   2.169   1.925   4.342
 3378SOL    HW110423   2.158   2.019   4.375
 3378SOL    HW210424   2.164   1.862   4.419
 3379SOL     OW10425   3.484   2.229   4.098
 3379SOL    HW110426   3.486   2.153   4.162
 3379SOL    HW210427   3.436   2.306   4.138
 3380SOL     OW10428   2.885   2.628   4.690
 3380SOL    HW110429   2.900   2.649   4.786
 3380SOL    HW210430   2.855   2.533   4.681
 3381SOL     OW10431   2.842   3.435   5.424
 3381SOL    HW110432   2.822   3.479   5.336
 3381SOL    HW210433   2.881   3.344   5.408
 3382SOL     OW10434   3.721   3.380   5.329
 3382SOL    HW110435   3.735   3.407   5.234
 3382SOL    HW210436   3.804   3.402   5.382
 3383SOL     OW10437   2.212   2.760   5.528
 3383SOL    HW110438   2.288   2.804   5.576
 3383SOL    HW210439   2.247   2.713   5.446
 3384SOL     OW10440   3.402   2.136   3.849
 3384SOL    HW110441   3.341   2.061   3.872
 3384SOL    HW210442   3.424   2.188   3.932
 3385SOL     OW10443   3.165   2.700   3.766
 3385SOL    HW110444   3.199   2.607   3.781
 3385SOL    HW210445   3.183   2.727   3.671
 3386SOL     OW10446   2.930   3.195   4.573
 3386SOL    HW110447   2.937   3.111   4.518
 3386SOL    HW210448   2.992   3.264   4.537
 3387SOL     OW10449   2.181   2.672   4.673
 3387SOL    HW110450   2.274   2.708   4.678
 3387SOL    HW210451   2.175   2.587   4.725
 3388SOL     OW10452   2.201   2.371   4.730
 3388SOL    HW110453   2.149   2.288   4.713
 3388SOL    HW210454   2.278   2.376   4.666
 3389SOL     OW10455   3.000   2.242   5.402
 3389SOL    HW110456   2.955   2.305   5.466
 3389SOL    HW210457   3.093   2.273   5.385
 3390SOL     OW10458   3.022   2.069   5.201
 3390SOL    HW110459   3.022   2.133   5.278
 3390SOL    HW210460   3.050   2.117   5.118
 3391SOL     OW10461   1.870   3.188   3.924
 3391SOL    HW110462   1.777   3.209   3.893
 3391SOL    HW210463   1.880   3.089   3.937
 3392SOL     OW10464   1.950   3.663   4.651
 3392SOL    HW110465   1.908   3.577   4.624
 3392SOL    HW210466   2.044   3.666   4.617
 3393SOL     OW10467   2.366   3.430   4.634
 3393SOL    HW110468   2.432   3.504   4.643
 3393SOL    HW210469   2.410   3.351   4.592
 3394SOL     OW10470   2.864   2.658   4.962
 3394SOL    HW110471   2.905   2.626   5.048
 3394SOL    HW210472   2.768   2.631   4.959
 3395SOL     OW10473   1.902   2.406   4.838
 3395SOL    HW110474   1.987   2.373   4.797
 3395SOL    HW210475   1.915   2.421   4.936
 3396SOL     OW10476   2.051   2.382   5.446
 3396SOL    HW110477   2.110   2.342   5.376
 3396SOL    HW210478   1.993   2.453   5.405
 3397SOL     OW10479   3.231   2.812   5.384
 3397SOL    HW110480   3.270   2.901   5.404
 3397SOL    HW210481   3.241   2.792   5.287
 3398SOL     OW10482   2.677   2.434   4.049
 3398SOL    HW110483   2.684   2.345   4.003
 3398SOL    HW210484   2.583   2.468   4.041
 3399SOL     OW10485   3.519   2.466   4.930
 3399SOL    HW110486   3.481   2.397   4.992
 3399SOL    HW210487   3.601   2.430   4.886
 3400SOL     OW10488   2.114   3.426   5.468
 3400SOL    HW110489   2.084   3.483   5.544
 3400SOL    HW210490   2.107   3.329   5.494
 3401SOL     OW10491   2.533   2.326   4.993
 3401SOL    HW110492   2.499   2.237   4.963
 3401SOL    HW210493   2.559   2.380   4.913
 3402SOL     OW10494   2.792   3.540   5.189
 3402SOL    HW110495   2.768   3.522   5.094
 3402SOL    HW210496   2.822   3.634   5.199
 3403SOL     OW10497   2.021   2.999   5.190
 3403SOL    HW110498   2.043   2.938   5.266
 3403SOL    HW210499   2.031   2.950   5.104
 3404SOL     OW10500   3.209   2.921   4.958
 3404SOL    HW110501   3.233   2.858   4.884
 3404SOL    HW210502   3.119   2.961   4.940
 3405SOL     OW10503   3.164   2.717   4.033
 3405SOL    HW110504   3.078   2.686   4.075
 3405SOL    HW210505   3.160   2.703   3.934
 3406SOL     OW10506   3.621   3.609   4.878
 3406SOL    HW110507   3.682   3.639   4.805
 3406SOL    HW210508   3.583   3.520   4.856
 3407SOL     OW10509   3.114   3.593   4.852
 3407SOL    HW110510   3.198   3.598   4.798
 3407SOL    HW210511   3.091   3.497   4.870
 3408SOL     OW10512   1.945   3.120   4.746
 3408SOL    HW110513   1.940   3.119   4.846
 3408SOL    HW210514   1.862   3.079   4.708
 3409SOL     OW10515   2.550   3.524   5.440
 3409SOL    HW110516   2.494   3.605   5.449
 3409SOL    HW210517   2.602   3.528   5.354
 3410SOL     OW10518   3.588   1.997   4.247
 3410SOL    HW110519   3.661   1.980   4.180
 3410SOL    HW210520   3.557   1.910   4.285
 3411SOL     OW10521   3.250   3.435   4.201
 3411SOL    HW110522   3.317   3.447   4.127
 3411SOL    HW210523   3.210   3.524   4.224
 3412SOL     OW10524   1.992   3.656   5.575
 3412SOL    HW110525   1.951   3.582   5.628
 3412SOL    HW210526   2.056   3.707   5.633
 3413SOL     OW10527   3.142   2.789   4.396
 3413SOL    HW110528   3.202   2.708   4.398
 3413SOL    HW210529   3.182   2.858   4.336
 3414SOL     OW10530   2.692   3.135   5.146
 3414SOL    HW110531   2.687   3.168   5.241
 3414SOL    HW210532   2.606   3.154   5.100
 3415SOL     OW10533   2.534   3.478   3.878
 3415SOL    HW110534   2.543   3.488   3.779
 3415SOL    HW210535   2.494   3.389   3.899
 3416SOL     OW10536   3.512   3.582   5.118
 3416SOL    HW110537   3.565   3.592   5.034
 3416SOL    HW210538   3.485   3.672   5.152
 3417SOL     OW10539   3.703   2.037   4.687
 3417SOL    HW110540   3.742   1.952   4.651
 3417SOL    HW210541   3.605   2.039   4.668
 3418SOL     OW10542   2.125   2.188   4.444
 3418SOL    HW110543   2.046   2.239   4.410
 3418SOL    HW210544   2.116   2.173   4.542
 3419SOL     OW10545   2.684   2.864   5.096
 3419SOL    HW110546   2.724   2.863   5.004
 3419SOL    HW210547   2.694   2.956   5.136
 3420SOL     OW10548   2.778   2.772   4.015
 3420SOL    HW110549   2.841   2.810   3.947
 3420SOL    HW210550   2.818   2.689   4.054
 3421SOL     OW10551   3.366   3.469   3.768
 3421SOL    HW110552   3.274   3.506   3.775
 3421SOL    HW210553   3.404   3.489   3.678
 3422SOL     OW10554   2.234   3.150   5.214
 3422SOL    HW110555   2.221   3.243   5.180
 3422SOL    HW210556   2.150   3.098   5.201
 3423SOL     OW10557   3.476   3.154   5.013
 3423SOL    HW110558   3.536   3.157   5.093
 3423SOL    HW210559   3.401   3.218   5.026
 3424SOL     OW10560   2.901   2.960   4.420
 3424SOL    HW110561   2.831   2.913   4.474
 3424SOL    HW210562   2.960   2.892   4.377
 3425SOL     OW10563   2.876   2.098   4.695
 3425SOL    HW110564   2.868   2.062   4.602
 3425SOL    HW210565   2.874   2.022   4.760
 3426SOL     OW10566   2.452   3.349   4.215
 3426SOL    HW110567   2.494   3.291   4.145
 3426SOL    HW210568   2.408   3.428   4.171
 3427SOL     OW10569   3.571   2.247   5.105
 3427SOL    HW110570   3.644   2.316   5.109
 3427SOL    HW210571   3.599   2.172   5.046
 3428SOL     OW10572   2.117   3.210   4.014
 3428SOL    HW110573   2.021   3.211   3.987
 3428SOL    HW210574   2.129   3.263   4.098
 3429SOL     OW10575   1.967   2.875   5.450
 3429SOL    HW110576   1.890   2.842   5.504
 3429SOL    HW210577   2.052   2.845   5.492
 3430SOL     OW10578   2.534   2.065   5.213
 3430SOL    HW110579   2.624   2.049   5.173
 3430SOL    HW210580   2.542   2.070   5.312
 3431SOL     OW10581   3.302   2.718   5.122
 3431SOL    HW110582   3.245   2.770   5.059
 3431SOL    HW210583   3.398   2.730   5.098
 3432SOL     OW10584   2.475   2.704   5.155
 3432SOL    HW110585   2.531   2.785   5.138
 3432SOL    HW210586   2.534   2.624   5.158
 3433SOL     OW10587   3.355   3.629   4.683
 3433SOL    HW110588   3.388   3.693   4.614
 3433SOL    HW210589   3.421   3.623   4.758
 3434SOL     OW10590   2.578   2.427   5.432
 3434SOL    HW110591   2.597   2.492   5.506
 3434SOL    HW210592   2.638   2.347   5.441
 3435SOL     OW10593   3.312   3.082   5.357
 3435SOL    HW110594   3.303   3.072   5.456
 3435SOL    HW210595   3.408   3.075   5.331
 3436SOL     OW10596   2.252   3.603   5.284
 3436SOL    HW110597   2.161   3.644   5.282
 3436SOL    HW210598   2.245   3.509   5.316
 3437SOL     OW10599   3.536   2.745   4.978
 3437SOL    HW110600   3.509   2.656   4.941
 3437SOL    HW210601   3.537   2.813   4.905
 3438SOL     OW10602   3.087   2.187   4.173
 3438SOL    HW110603   3.152   2.113   4.162
 3438SOL    HW210604   3.107   2.237   4.257
 3439SOL     OW10605   2.456   2.607   4.376
 3439SOL    HW110606   2.506   2.692   4.357
 3439SOL    HW210607   2.368   2.609   4.328
 3440SOL     OW10608   3.639   2.204   5.366
 3440SOL    HW110609   3.622   2.235   5.272
 3440SOL    HW210610   3.555   2.167   5.404
 3441SOL     OW10611   3.592   2.796   5.241
 3441SOL    HW110612   3.630   2.887   5.256
 3441SOL    HW210613   3.584   2.779   5.142
 3442SOL     OW10614   2.721   3.236   3.740
 3442SOL    HW110615   2.675   3.251   3.828
 3442SOL    HW210616   2.765   3.321   3.710
 3443SOL     OW10617   2.523   3.652   4.677
 3443SOL    HW110618   2.477   3.740   4.664
 3443SOL    HW210619   2.622   3.664   4.670
 3444SOL     OW10620   2.721   2.818   4.585
 3444SOL    HW110621   2.775   2.749   4.633
 3444SOL    HW210622   2.689   2.887   4.651
 3445SOL     OW10623   2.945   2.846   3.811
 3445SOL    HW110624   2.922   2.899   3.729
 3445SOL    HW210625   3.026   2.790   3.792
 3446SOL     OW10626   3.723   3.431   4.575
 3446SOL    HW110627   3.652   3.419   4.505
 3446SOL    HW210628   3.724   3.352   4.635
 3447SOL     OW10629   2.083   3.176   5.568
 3447SOL    HW110630   2.018   3.103   5.547
 3447SOL    HW210631   2.087   3.190   5.666
 3448SOL     OW10632   1.941   3.102   4.377
 3448SOL    HW110633   1.940   3.055   4.465
 3448SOL    HW210634   2.023   3.074   4.326
 3449SOL     OW10635   2.534   3.253   5.348
 3449SOL    HW110636   2.456   3.203   5.386
 3449SOL    HW210637   2.531   3.348   5.379
 3450SOL     OW10638   3.686   2.054   4.951
 3450SOL    HW110639   3.682   1.964   4.995
 3450SOL    HW210640   3.689   2.043   4.852
 3451SOL     OW10641   3.567   3.349   4.828
 3451SOL    HW110642   3.474   3.324   4.801
 3451SOL    HW210643   3.593   3.299   4.910
 3452SOL     OW10644   2.179   2.409   5.004
 3452SOL    HW110645   2.217   2.350   5.076
 3452SOL    HW210646   2.219   2.383   4.916
 3453SOL     OW10647   2.674   3.448   4.411
 3453SOL    HW110648   2.706   3.458   4.317
 3453SOL    HW210649   2.595   3.386   4.413
 3454SOL     OW10650   3.286   2.076   4.836
 3454SOL    HW110651   3.338   2.011   4.891
 3454SOL    HW210652   3.237   2.139   4.897
 3455SOL     OW10653   2.863   1.896   4.878
 3455SOL    HW110654   2.800   1.824   4.847
 3455SOL    HW210655   2.956   1.860   4.878
 3456SOL     OW10656   2.632   3.192   4.025
 3456SOL    HW110657   2.586   3.105   4.042
 3456SOL    HW210658   2.723   3.189   4.066
 3457SOL     OW10659   2.480   3.429   5.008
 3457SOL    HW110660   2.475   3.511   5.065
 3457SOL    HW210661   2.569   3.426   4.963
 3458SOL     OW10662   3.214   1.914   3.892
 3458SOL    HW110663   3.249   1.873   3.808
 3458SOL    HW210664   3.124   1.876   3.912
 3459SOL     OW10665   3.162   2.315   4.415
 3459SOL    HW110666   3.103   2.395   4.419
 3459SOL    HW210667   3.177   2.280   4.508
 3460SOL     OW10668   3.455   2.083   4.606
 3460SOL    HW110669   3.371   2.082   4.660
 3460SOL    HW210670   3.457   2.166   4.550
 3461SOL     OW10671   2.737   3.508   4.061
 3461SOL    HW110672   2.660   3.473   4.007
 3461SOL    HW210673   2.705   3.579   4.123
 3462SOL     OW10674   2.092   2.490   5.699
 3462SOL    HW110675   1.999   2.488   5.736
 3462SOL    HW210676   2.093   2.451   5.607
 3463SOL     OW10677   3.617   2.469   5.817
 3463SOL    HW110678   3.605   2.456   5.718
 3463SOL    HW210679   3.587   2.388   5.866
 3464SOL     OW10680   2.093   3.575   6.069
 3464SOL    HW110681   2.127   3.652   6.123
 3464SOL    HW210682   2.137   3.575   5.979
 3465SOL     OW10683   2.468   2.826   5.709
 3465SOL    HW110684   2.475   2.910   5.655
 3465SOL    HW210685   2.514   2.839   5.797
 3466SOL     OW10686   3.704   3.629   5.945
 3466SOL    HW110687   3.758   3.600   6.025
 3466SOL    HW210688   3.734   3.719   5.916
 3467SOL     OW10689   1.889   3.458   5.703
 3467SOL    HW110690   1.870   3.362   5.724
 3467SOL    HW210691   1.856   3.516   5.778
 3468SOL     OW10692   3.551   2.784   6.198
 3468SOL    HW110693   3.646   2.755   6.206
 3468SOL    HW210694   3.543   2.849   6.123
 3469SOL     OW10695   3.503   2.970   6.018
 3469SOL    HW110696   3.589   2.972   5.966
 3469SOL    HW210697   3.517   3.017   6.106
 3470SOL     OW10698   3.387   2.861   5.776
 3470SOL    HW110699   3.324   2.785   5.789
 3470SOL    HW210700   3.435   2.879   5.862
 3471SOL     OW10701   2.460   2.591   5.856
 3471SOL    HW110702   2.484   2.660   5.788
 3471SOL    HW210703   2.382   2.624   5.910
 3472SOL     OW10704   2.727   2.210   5.781
 3472SOL    HW110705   2.786   2.273   5.732
 3472SOL    HW210706   2.746   2.116   5.752
 3473SOL     OW10707   2.183   2.805   5.828
 3473SOL    HW110708   2.265   2.844   5.786
 3473SOL    HW210709   2.156   2.723   5.779
 3474SOL     OW10710   2.973   3.638   5.823
 3474SOL    HW110711   2.913   3.576   5.873
 3474SOL    HW210712   3.004   3.594   5.738
 3475SOL     OW10713   3.494   3.239   5.667
 3475SOL    HW110714   3.462   3.333   5.657
 3475SOL    HW210715   3.418   3.176   5.655
 3476SOL     OW10716   2.326   3.605   5.909
 3476SOL    HW110717   2.359   3.644   5.995
 3476SOL    HW210718   2.402   3.598   5.844
 3477SOL     OW10719   2.476   1.984   5.703
 3477SOL    HW110720   2.574   1.962   5.710
 3477SOL    HW210721   2.445   1.967   5.610
 3478SOL     OW10722   3.296   3.050   5.627
 3478SOL    HW110723   3.328   2.974   5.684
 3478SOL    HW210724   3.204   3.077   5.657
 3479SOL     OW10725   2.159   1.897   5.757
 3479SOL    HW110726   2.208   1.981   5.736
 3479SOL    HW210727   2.221   1.832   5.802
 3480SOL     OW10728   2.894   2.411   5.602
 3480SOL    HW110729   2.853   2.493   5.563
 3480SOL    HW210730   2.958   2.437   5.675
 3481SOL     OW10731   3.719   2.695   5.963
 3481SOL    HW110732   3.761   2.631   6.027
 3481SOL    HW210733   3.681   2.644   5.885
 3482SOL     OW10734   2.350   3.247   5.760
 3482SOL    HW110735   2.263   3.232   5.807
 3482SOL    HW210736   2.333   3.273   5.665
 3483SOL     OW10737   3.526   3.142   6.243
 3483SOL    HW110738   3.625   3.150   6.257
 3483SOL    HW210739   3.481   3.226   6.274
 3484SOL     OW10740   3.252   2.437   5.664
 3484SOL    HW110741   3.198   2.416   5.745
 3484SOL    HW210742   3.343   2.396   5.673
 3485SOL     OW10743   2.389   2.118   5.914
 3485SOL    HW110744   2.416   2.059   5.839
 3485SOL    HW210745   2.389   2.213   5.883
 3486SOL     OW10746   2.229   2.962   6.087
 3486SOL    HW110747   2.222   3.045   6.031
 3486SOL    HW210748   2.233   2.882   6.027
 3487SOL     OW10749   3.071   2.387   5.861
 3487SOL    HW110750   3.084   2.303   5.915
 3487SOL    HW210751   3.042   2.461   5.921
 3488SOL     OW10752   2.169   1.925   6.204
 3488SOL    HW110753   2.158   2.019   6.237
 3488SOL    HW210754   2.164   1.862   6.281
 3489SOL     OW10755   3.402   2.136   5.711
 3489SOL    HW110756   3.341   2.061   5.734
 3489SOL    HW210757   3.424   2.188   5.794
 3490SOL     OW10758   3.165   2.700   5.628
 3490SOL    HW110759   3.199   2.607   5.643
 3490SOL    HW210760   3.183   2.727   5.533
 3491SOL     OW10761   1.870   3.188   5.786
 3491SOL    HW110762   1.777   3.209   5.755
 3491SOL    HW210763   1.880   3.089   5.799
 3492SOL     OW10764   2.677   2.434   5.911
 3492SOL    HW110765   2.684   2.345   5.865
 3492SOL    HW210766   2.583   2.468   5.903
 3493SOL     OW10767   2.335   2.362   5.777
 3493SOL    HW110768   2.396   2.442   5.781
 3493SOL    HW210769   2.240   2.393   5.784
 3494SOL     OW10770   3.588   1.997   6.109
 3494SOL    HW110771   3.661   1.980   6.042
 3494SOL    HW210772   3.557   1.910   6.147
 3495SOL     OW10773   2.534   3.478   5.740
 3495SOL    HW110774   2.543   3.488   5.641
 3495SOL    HW210775   2.494   3.389   5.761
 3496SOL     OW10776   3.056   3.474   5.617
 3496SOL    HW110777   3.062   3.381   5.654
 3496SOL    HW210778   2.997   3.474   5.537
 3497SOL     OW10779   2.778   2.772   5.877
 3497SOL    HW110780   2.841   2.810   5.809
 3497SOL    HW210781   2.818   2.689   5.916
 3498SOL     OW10782   3.366   3.469   5.630
 3498SOL    HW110783   3.274   3.506   5.637
 3498SOL    HW210784   3.404   3.489   5.540
 3499SOL     OW10785   2.901   2.960   6.282
 3499SOL    HW110786   2.831   2.913   6.336
 3499SOL    HW210787   2.960   2.892   6.239
 3500SOL     OW10788   2.117   3.210   5.876
 3500SOL    HW110789   2.021   3.211   5.849
 3500SOL    HW210790   2.129   3.263   5.960
 3501SOL     OW10791   1.937   2.207   5.619
 3501SOL    HW110792   1.845   2.179   5.590
 3501SOL    HW210793   1.968   2.284   5.563
 3502SOL     OW10794   1.934   2.028   5.904
 3502SOL    HW110795   1.917   2.111   5.850
 3502SOL    HW210796   2.024   1.991   5.882
 3503SOL     OW10797   3.045   3.197   5.705
 3503SOL    HW110798   2.946   3.186   5.707
 3503SOL    HW210799   3.079   3.212   5.798
 3504SOL     OW10800   3.087   2.187   6.035
 3504SOL    HW110801   3.152   2.113   6.024
 3504SOL    HW210802   3.107   2.237   6.119
 3505SOL     OW10803   2.721   3.236   5.602
 3505SOL    HW110804   2.675   3.251   5.690
 3505SOL    HW210805   2.765   3.321   5.572
 3506SOL     OW10806   2.945   2.846   5.673
 3506SOL    HW110807   2.922   2.899   5.591
 3506SOL    HW210808   3.026   2.790   5.654
 3507SOL     OW10809   3.214   1.914   5.754
 3507SOL    HW110810   3.249   1.873   5.670
 3507SOL    HW210811   3.124   1.876   5.774
 3508SOL     OW10812   1.901   2.939   5.886
 3508SOL    HW110813   2.000   2.928   5.877
 3508SOL    HW210814   1.861   2.853   5.918
 3509SOL     OW10815   2.737   3.508   5.923
 3509SOL    HW110816   2.660   3.473   5.869
 3509SOL    HW210817   2.705   3.579   5.985
 3510SOL     OW10818   2.092   4.352   0.113
 3510SOL    HW110819   1.999   4.350   0.150
 3510SOL    HW210820   2.093   4.313   0.021
 3511SOL     OW10821   2.087   3.999   0.996
 3511SOL    HW110822   2.122   3.982   1.088
 3511SOL    HW210823   1.999   3.954   0.984
 3512SOL     OW10824   1.881   4.092   0.647
 3512SOL    HW110825   1.799   4.135   0.686
 3512SOL    HW210826   1.853   4.019   0.584
 3513SOL     OW10827   2.431   4.999   1.165
 3513SOL    HW110828   2.338   4.992   1.128
 3513SOL    HW210829   2.442   5.088   1.209
 3514SOL     OW10830   3.417   5.235   0.703
 3514SOL    HW110831   3.360   5.219   0.784
 3514SOL    HW210832   3.358   5.245   0.623
 3515SOL     OW10833   2.997   4.427   0.717
 3515SOL    HW110834   3.054   4.505   0.692
 3515SOL    HW210835   2.937   4.453   0.793
 3516SOL     OW10836   3.617   4.331   0.231
 3516SOL    HW110837   3.605   4.318   0.132
 3516SOL    HW210838   3.587   4.250   0.280
 3517SOL     OW10839   2.630   4.868   1.023
 3517SOL    HW110840   2.552   4.885   1.083
 3517SOL    HW210841   2.664   4.955   0.987
 3518SOL     OW10842   2.712   4.522   1.823
 3518SOL    HW110843   2.708   4.598   1.888
 3518SOL    HW210844   2.734   4.558   1.732
 3519SOL     OW10845   2.547   4.736   0.665
 3519SOL    HW110846   2.616   4.720   0.735
 3519SOL    HW210847   2.474   4.793   0.703
 3520SOL     OW10848   2.548   4.885   1.803
 3520SOL    HW110849   2.608   4.964   1.817
 3520SOL    HW210850   2.462   4.916   1.762
 3521SOL     OW10851   2.197   5.159   1.061
 3521SOL    HW110852   2.119   5.128   1.008
 3521SOL    HW210853   2.255   5.217   1.004
 3522SOL     OW10854   3.322   5.229   1.339
 3522SOL    HW110855   3.346   5.323   1.365
 3522SOL    HW210856   3.306   5.175   1.421
 3523SOL     OW10857   2.300   4.116   1.499
 3523SOL    HW110858   2.382   4.060   1.508
 3523SOL    HW210859   2.219   4.058   1.503
 3524SOL     OW10860   3.465   4.171   0.737
 3524SOL    HW110861   3.391   4.217   0.687
 3524SOL    HW210862   3.516   4.239   0.790
 3525SOL     OW10863   2.093   5.437   0.483
 3525SOL    HW110864   2.127   5.514   0.537
 3525SOL    HW210865   2.137   5.437   0.393
 3526SOL     OW10866   2.989   5.065   1.690
 3526SOL    HW110867   3.036   5.065   1.778
 3526SOL    HW210868   2.941   4.978   1.679
 3527SOL     OW10869   2.092   5.158   0.538
 3527SOL    HW110870   2.066   5.254   0.538
 3527SOL    HW210871   2.021   5.104   0.583
 3528SOL     OW10872   2.102   4.815   0.886
 3528SOL    HW110873   2.116   4.731   0.938
 3528SOL    HW210874   2.047   4.879   0.941
 3529SOL     OW10875   2.482   5.510   1.439
 3529SOL    HW110876   2.390   5.493   1.474
 3529SOL    HW210877   2.510   5.602   1.465
 3530SOL     OW10878   2.468   4.688   0.123
 3530SOL    HW110879   2.475   4.772   0.069
 3530SOL    HW210880   2.514   4.701   0.211
 3531SOL     OW10881   3.456   3.838   1.480
 3531SOL    HW110882   3.438   3.905   1.408
 3531SOL    HW210883   3.453   3.884   1.569
 3532SOL     OW10884   1.984   4.367   0.563
 3532SOL    HW110885   1.939   4.279   0.580
 3532SOL    HW210886   1.983   4.421   0.647
 3533SOL     OW10887   3.704   5.491   0.359
 3533SOL    HW110888   3.758   5.462   0.439
 3533SOL    HW210889   3.734   5.581   0.330
 3534SOL     OW10890   1.889   5.320   0.117
 3534SOL    HW110891   1.870   5.224   0.138
 3534SOL    HW210892   1.856   5.378   0.192
 3535SOL     OW10893   3.551   4.646   0.612
 3535SOL    HW110894   3.646   4.617   0.620
 3535SOL    HW210895   3.543   4.711   0.537
 3536SOL     OW10896   3.503   4.832   0.432
 3536SOL    HW110897   3.589   4.834   0.380
 3536SOL    HW210898   3.517   4.879   0.520
 3537SOL     OW10899   1.975   4.461   1.597
 3537SOL    HW110900   2.063   4.448   1.642
 3537SOL    HW210901   1.962   4.558   1.575
 3538SOL     OW10902   2.475   5.089   0.726
 3538SOL    HW110903   2.426   5.002   0.735
 3538SOL    HW210904   2.452   5.132   0.639
 3539SOL     OW10905   3.155   4.952   1.423
 3539SOL    HW110906   3.192   4.879   1.365
 3539SOL    HW210907   3.207   4.957   1.508
 3540SOL     OW10908   2.671   3.728   0.502
 3540SOL    HW110909   2.711   3.819   0.493
 3540SOL    HW210910   2.571   3.736   0.508
 3541SOL     OW10911   2.059   4.700   1.264
 3541SOL    HW110912   2.148   4.655   1.250
 3541SOL    HW210913   1.986   4.635   1.245
 3542SOL     OW10914   3.387   4.723   0.190
 3542SOL    HW110915   3.324   4.647   0.203
 3542SOL    HW210916   3.435   4.741   0.276
 3543SOL     OW10917   3.049   5.516   1.616
 3543SOL    HW110918   3.073   5.576   1.540
 3543SOL    HW210919   3.056   5.421   1.586
 3544SOL     OW10920   2.179   3.975   1.801
 3544SOL    HW110921   2.250   4.046   1.807
 3544SOL    HW210922   2.091   4.014   1.829
 3545SOL     OW10923   3.328   5.141   0.953
 3545SOL    HW110924   3.269   5.147   1.033
 3545SOL    HW210925   3.313   5.053   0.907
 3546SOL     OW10926   3.529   5.438   0.572
 3546SOL    HW110927   3.488   5.415   0.484
 3546SOL    HW210928   3.511   5.364   0.637
 3547SOL     OW10929   2.460   4.453   0.270
 3547SOL    HW110930   2.484   4.522   0.202
 3547SOL    HW210931   2.382   4.486   0.324
 3548SOL     OW10932   3.143   4.069   0.944
 3548SOL    HW110933   3.057   4.019   0.931
 3548SOL    HW210934   3.205   4.015   1.000
 3549SOL     OW10935   3.438   5.386   0.307
 3549SOL    HW110936   3.527   5.432   0.310
 3549SOL    HW210937   3.417   5.362   0.212
 3550SOL     OW10938   2.669   4.329   1.465
 3550SOL    HW110939   2.622   4.326   1.554
 3550SOL    HW210940   2.618   4.274   1.399
 3551SOL     OW10941   3.256   4.193   1.674
 3551SOL    HW110942   3.236   4.236   1.762
 3551SOL    HW210943   3.334   4.131   1.683
 3552SOL     OW10944   2.835   4.614   1.572
 3552SOL    HW110945   2.881   4.530   1.543
 3552SOL    HW210946   2.779   4.648   1.497
 3553SOL     OW10947   2.853   4.134   1.242
 3553SOL    HW110948   2.776   4.168   1.296
 3553SOL    HW210949   2.819   4.083   1.163
 3554SOL     OW10950   2.903   4.425   0.429
 3554SOL    HW110951   2.929   4.421   0.525
 3554SOL    HW210952   2.818   4.374   0.415
 3555SOL     OW10953   1.938   4.535   0.789
 3555SOL    HW110954   2.037   4.523   0.798
 3555SOL    HW210955   1.914   4.630   0.810
 3556SOL     OW10956   1.992   5.545   1.571
 3556SOL    HW110957   1.982   5.530   1.670
 3556SOL    HW210958   1.906   5.581   1.535
 3557SOL     OW10959   2.727   4.072   0.195
 3557SOL    HW110960   2.786   4.135   0.146
 3557SOL    HW210961   2.746   3.978   0.166
 3558SOL     OW10962   3.581   4.309   1.831
 3558SOL    HW110963   3.555   4.398   1.795
 3558SOL    HW210964   3.579   4.241   1.758
 3559SOL     OW10965   3.224   4.868   0.545
 3559SOL    HW110966   3.307   4.839   0.497
 3559SOL    HW210967   3.175   4.935   0.489
 3560SOL     OW10968   2.412   3.920   0.885
 3560SOL    HW110969   2.407   3.915   0.985
 3560SOL    HW210970   2.414   4.016   0.856
 3561SOL     OW10971   2.870   5.180   0.477
 3561SOL    HW110972   2.824   5.252   0.425
 3561SOL    HW210973   2.866   5.200   0.575
 3562SOL     OW10974   2.213   5.525   0.853
 3562SOL    HW110975   2.263   5.439   0.859
 3562SOL    HW210976   2.278   5.602   0.850
 3563SOL     OW10977   3.657   4.790   0.873
 3563SOL    HW110978   3.595   4.775   0.797
 3563SOL    HW210979   3.605   4.801   0.958
 3564SOL     OW10980   3.089   5.274   1.506
 3564SOL    HW110981   3.095   5.197   1.570
 3564SOL    HW210982   3.037   5.248   1.426
 3565SOL     OW10983   2.183   4.667   0.242
 3565SOL    HW110984   2.265   4.706   0.200
 3565SOL    HW210985   2.156   4.585   0.193
 3566SOL     OW10986   3.320   4.459   0.728
 3566SOL    HW110987   3.315   4.394   0.803
 3566SOL    HW210988   3.400   4.518   0.741
 3567SOL     OW10989   2.323   4.990   1.727
 3567SOL    HW110990   2.273   4.991   1.641
 3567SOL    HW210991   2.260   4.972   1.803
 3568SOL     OW10992   2.973   5.500   0.237
 3568SOL    HW110993   2.913   5.438   0.287
 3568SOL    HW210994   3.004   5.456   0.152
 3569SOL     OW10995   2.064   4.009   1.498
 3569SOL    HW110996   1.984   4.069   1.485
 3569SOL    HW210997   2.054   3.960   1.584
 3570SOL     OW10998   3.494   5.101   0.081
 3570SOL    HW110999   3.462   5.195   0.071
 3570SOL    HW211000   3.418   5.038   0.069
 3571SOL     OW11001   2.326   5.467   0.323
 3571SOL    HW111002   2.359   5.506   0.409
 3571SOL    HW211003   2.402   5.460   0.258
 3572SOL     OW11004   3.262   3.831   0.426
 3572SOL    HW111005   3.238   3.794   0.336
 3572SOL    HW211006   3.361   3.847   0.430
 3573SOL     OW11007   2.111   5.509   1.241
 3573SOL    HW111008   2.168   5.444   1.291
 3573SOL    HW211009   2.095   5.476   1.148
 3574SOL     OW11010   2.802   5.422   0.904
 3574SOL    HW111011   2.882   5.365   0.925
 3574SOL    HW211012   2.753   5.382   0.827
 3575SOL     OW11013   2.244   4.424   0.480
 3575SOL    HW111014   2.289   4.334   0.477
 3575SOL    HW211015   2.150   4.413   0.513
 3576SOL     OW11016   3.409   3.946   1.729
 3576SOL    HW111017   3.404   3.983   1.821
 3576SOL    HW211018   3.337   3.877   1.717
 3577SOL     OW11019   2.476   3.846   0.117
 3577SOL    HW111020   2.574   3.824   0.124
 3577SOL    HW211021   2.445   3.829   0.024
 3578SOL     OW11022   2.643   3.988   1.749
 3578SOL    HW111023   2.710   3.927   1.792
 3578SOL    HW211024   2.570   4.007   1.814
 3579SOL     OW11025   2.750   5.238   1.195
 3579SOL    HW111026   2.727   5.213   1.101
 3579SOL    HW211027   2.811   5.169   1.234
 3580SOL     OW11028   3.213   4.314   1.433
 3580SOL    HW111029   3.241   4.271   1.518
 3580SOL    HW211030   3.238   4.410   1.434
 3581SOL     OW11031   2.665   5.126   0.924
 3581SOL    HW111032   2.755   5.140   0.882
 3581SOL    HW211033   2.594   5.128   0.853
 3582SOL     OW11034   2.784   4.227   0.899
 3582SOL    HW111035   2.759   4.218   0.803
 3582SOL    HW211036   2.832   4.145   0.930
 3583SOL     OW11037   2.401   3.788   0.512
 3583SOL    HW111038   2.320   3.789   0.570
 3583SOL    HW211039   2.404   3.871   0.457
 3584SOL     OW11040   3.296   4.912   0.041
 3584SOL    HW111041   3.328   4.836   0.098
 3584SOL    HW211042   3.204   4.939   0.071
 3585SOL     OW11043   2.797   3.960   0.480
 3585SOL    HW111044   2.749   4.001   0.402
 3585SOL    HW211045   2.896   3.958   0.461
 3586SOL     OW11046   2.938   4.407   1.464
 3586SOL    HW111047   2.858   4.346   1.467
 3586SOL    HW211048   3.019   4.354   1.440
 3587SOL     OW11049   3.089   5.294   0.793
 3587SOL    HW111050   3.110   5.368   0.728
 3587SOL    HW211051   3.157   5.294   0.866
 3588SOL     OW11052   2.321   4.876   0.741
 3588SOL    HW111053   2.250   4.849   0.806
 3588SOL    HW211054   2.295   4.848   0.648
 3589SOL     OW11055   3.133   5.521   0.591
 3589SOL    HW111056   3.177   5.585   0.527
 3589SOL    HW211057   3.083   5.573   0.661
 3590SOL     OW11058   2.894   4.273   0.016
 3590SOL    HW111059   2.853   4.355  -0.023
 3590SOL    HW211060   2.958   4.299   0.089
 3591SOL     OW11061   1.940   4.280   1.386
 3591SOL    HW111062   2.032   4.279   1.345
 3591SOL    HW211063   1.934   4.354   1.453
 3592SOL     OW11064   2.423   3.946   1.147
 3592SOL    HW111065   2.461   3.862   1.184
 3592SOL    HW211066   2.335   3.965   1.191
 3593SOL     OW11067   2.728   4.178   0.642
 3593SOL    HW111068   2.696   4.250   0.580
 3593SOL    HW211069   2.752   4.097   0.589
 3594SOL     OW11070   2.879   3.763   0.753
 3594SOL    HW111071   2.807   3.768   0.684
 3594SOL    HW211072   2.855   3.694   0.822
 3595SOL     OW11073   3.291   4.897   0.867
 3595SOL    HW111074   3.236   4.813   0.860
 3595SOL    HW211075   3.317   4.926   0.775
 3596SOL     OW11076   3.328   4.314   0.992
 3596SOL    HW111077   3.298   4.219   0.999
 3596SOL    HW211078   3.401   4.330   1.058
 3597SOL     OW11079   3.719   4.557   0.377
 3597SOL    HW111080   3.761   4.493   0.441
 3597SOL    HW211081   3.681   4.506   0.299
 3598SOL     OW11082   2.350   5.109   0.174
 3598SOL    HW111083   2.263   5.094   0.221
 3598SOL    HW211084   2.333   5.135   0.079
 3599SOL     OW11085   3.526   5.004   0.657
 3599SOL    HW111086   3.625   5.012   0.671
 3599SOL    HW211087   3.481   5.088   0.688
 3600SOL     OW11088   3.252   4.299   0.078
 3600SOL    HW111089   3.198   4.278   0.159
 3600SOL    HW211090   3.343   4.258   0.087
 3601SOL     OW11091   2.389   3.980   0.328
 3601SOL    HW111092   2.416   3.921   0.253
 3601SOL    HW211093   2.389   4.075   0.297
 3602SOL     OW11094   3.616   4.947   1.588
 3602SOL    HW111095   3.707   4.908   1.575
 3602SOL    HW211096   3.624   5.043   1.612
 3603SOL     OW11097   2.926   5.071   1.340
 3603SOL    HW111098   2.846   5.048   1.395
 3603SOL    HW211099   3.009   5.045   1.389
 3604SOL     OW11100   3.454   5.353   1.625
 3604SOL    HW111101   3.481   5.387   1.535
 3604SOL    HW211102   3.533   5.315   1.671
 3605SOL     OW11103   2.973   4.919   1.100
 3605SOL    HW111104   2.933   4.963   1.181
 3605SOL    HW211105   2.932   4.956   1.017
 3606SOL     OW11106   3.500   4.823   1.079
 3606SOL    HW111107   3.505   4.904   1.138
 3606SOL    HW211108   3.414   4.825   1.028
 3607SOL     OW11109   2.777   3.813   1.402
 3607SOL    HW111110   2.802   3.793   1.307
 3607SOL    HW211111   2.849   3.869   1.444
 3608SOL     OW11112   2.842   4.840   1.719
 3608SOL    HW111113   2.743   4.846   1.729
 3608SOL    HW211114   2.865   4.760   1.663
 3609SOL     OW11115   2.567   4.774   0.368
 3609SOL    HW111116   2.553   4.781   0.467
 3609SOL    HW211117   2.651   4.723   0.350
 3610SOL     OW11118   2.272   4.537   1.251
 3610SOL    HW111119   2.358   4.549   1.301
 3610SOL    HW211120   2.230   4.450   1.278
 3611SOL     OW11121   3.136   4.110   1.262
 3611SOL    HW111122   3.157   4.184   1.326
 3611SOL    HW211123   3.047   4.127   1.219
 3612SOL     OW11124   1.926   5.288   1.331
 3612SOL    HW111125   1.880   5.370   1.297
 3612SOL    HW211126   2.024   5.307   1.340
 3613SOL     OW11127   2.229   4.824   0.501
 3613SOL    HW111128   2.222   4.907   0.445
 3613SOL    HW211129   2.233   4.744   0.441
 3614SOL     OW11130   2.428   4.261   0.865
 3614SOL    HW111131   2.440   4.327   0.791
 3614SOL    HW211132   2.474   4.295   0.948
 3615SOL     OW11133   3.114   5.072   0.388
 3615SOL    HW111134   3.164   5.149   0.428
 3615SOL    HW211135   3.019   5.074   0.420
 3616SOL     OW11136   3.134   5.169   1.142
 3616SOL    HW111137   3.181   5.182   1.229
 3616SOL    HW211138   3.068   5.095   1.151
 3617SOL     OW11139   3.444   4.363   0.472
 3617SOL    HW111140   3.413   4.424   0.545
 3617SOL    HW211141   3.494   4.415   0.403
 3618SOL     OW11142   2.216   5.234   1.329
 3618SOL    HW111143   2.195   5.190   1.242
 3618SOL    HW211144   2.313   5.260   1.332
 3619SOL     OW11145   2.264   4.475   1.598
 3619SOL    HW111146   2.332   4.530   1.551
 3619SOL    HW211147   2.304   4.387   1.625
 3620SOL     OW11148   3.449   4.503   1.670
 3620SOL    HW111149   3.357   4.541   1.665
 3620SOL    HW211150   3.509   4.550   1.605
 3621SOL     OW11151   2.875   3.829   1.770
 3621SOL    HW111152   2.881   3.914   1.718
 3621SOL    HW211153   2.907   3.753   1.713
 3622SOL     OW11154   2.366   3.774   1.740
 3622SOL    HW111155   2.324   3.717   1.670
 3622SOL    HW211156   2.300   3.843   1.772
 3623SOL     OW11157   2.435   4.594   1.029
 3623SOL    HW111158   2.479   4.683   1.020
 3623SOL    HW211159   2.372   4.594   1.106
 3624SOL     OW11160   3.222   4.586   1.045
 3624SOL    HW111161   3.147   4.586   0.979
 3624SOL    HW211162   3.259   4.494   1.054
 3625SOL     OW11163   3.071   4.249   0.275
 3625SOL    HW111164   3.084   4.165   0.329
 3625SOL    HW211165   3.042   4.323   0.335
 3626SOL     OW11166   2.169   3.937   1.231
 3626SOL    HW111167   2.146   3.974   1.321
 3626SOL    HW211168   2.139   3.842   1.225
 3627SOL     OW11169   1.899   5.034   1.282
 3627SOL    HW111170   1.952   4.985   1.350
 3627SOL    HW211171   1.921   5.132   1.287
 3628SOL     OW11172   2.594   4.358   1.064
 3628SOL    HW111173   2.653   4.332   0.988
 3628SOL    HW211174   2.566   4.454   1.053
 3629SOL     OW11175   3.590   4.659   1.854
 3629SOL    HW111176   3.544   4.652   1.765
 3629SOL    HW211177   3.528   4.703   1.920
 3630SOL     OW11178   2.169   3.787   0.618
 3630SOL    HW111179   2.158   3.881   0.651
 3630SOL    HW211180   2.164   3.724   0.695
 3631SOL     OW11181   3.484   4.091   0.374
 3631SOL    HW111182   3.486   4.015   0.438
 3631SOL    HW211183   3.436   4.168   0.414
 3632SOL     OW11184   2.885   4.490   0.966
 3632SOL    HW111185   2.900   4.511   1.062
 3632SOL    HW211186   2.855   4.395   0.957
 3633SOL     OW11187   2.842   5.297   1.700
 3633SOL    HW111188   2.822   5.341   1.612
 3633SOL    HW211189   2.881   5.206   1.684
 3634SOL     OW11190   3.721   5.242   1.605
 3634SOL    HW111191   3.735   5.269   1.510
 3634SOL    HW211192   3.804   5.264   1.658
 3635SOL     OW11193   2.212   4.622   1.804
 3635SOL    HW111194   2.288   4.666   1.852
 3635SOL    HW211195   2.247   4.575   1.722
 3636SOL     OW11196   3.402   3.998   0.125
 3636SOL    HW111197   3.341   3.923   0.148
 3636SOL    HW211198   3.424   4.050   0.208
 3637SOL     OW11199   3.165   4.562   0.042
 3637SOL    HW111200   3.199   4.469   0.057
 3637SOL    HW211201   3.183   4.589  -0.053
 3638SOL     OW11202   2.930   5.057   0.849
 3638SOL    HW111203   2.937   4.973   0.794
 3638SOL    HW211204   2.992   5.126   0.813
 3639SOL     OW11205   2.181   4.534   0.949
 3639SOL    HW111206   2.274   4.570   0.954
 3639SOL    HW211207   2.175   4.449   1.001
 3640SOL     OW11208   2.201   4.233   1.006
 3640SOL    HW111209   2.149   4.150   0.989
 3640SOL    HW211210   2.278   4.238   0.942
 3641SOL     OW11211   3.000   4.104   1.678
 3641SOL    HW111212   2.955   4.167   1.742
 3641SOL    HW211213   3.093   4.135   1.661
 3642SOL     OW11214   3.022   3.931   1.477
 3642SOL    HW111215   3.022   3.995   1.554
 3642SOL    HW211216   3.050   3.979   1.394
 3643SOL     OW11217   1.950   5.525   0.927
 3643SOL    HW111218   1.908   5.439   0.900
 3643SOL    HW211219   2.044   5.528   0.893
 3644SOL     OW11220   2.366   5.292   0.910
 3644SOL    HW111221   2.432   5.366   0.919
 3644SOL    HW211222   2.410   5.213   0.868
 3645SOL     OW11223   2.864   4.520   1.238
 3645SOL    HW111224   2.905   4.488   1.324
 3645SOL    HW211225   2.768   4.493   1.235
 3646SOL     OW11226   1.902   4.268   1.114
 3646SOL    HW111227   1.987   4.235   1.073
 3646SOL    HW211228   1.915   4.283   1.212
 3647SOL     OW11229   2.051   4.244   1.722
 3647SOL    HW111230   2.110   4.204   1.652
 3647SOL    HW211231   1.993   4.315   1.681
 3648SOL     OW11232   3.231   4.674   1.660
 3648SOL    HW111233   3.270   4.763   1.680
 3648SOL    HW211234   3.241   4.654   1.563
 3649SOL     OW11235   2.677   4.296   0.325
 3649SOL    HW111236   2.684   4.207   0.279
 3649SOL    HW211237   2.583   4.330   0.317
 3650SOL     OW11238   3.519   4.328   1.206
 3650SOL    HW111239   3.481   4.259   1.268
 3650SOL    HW211240   3.601   4.292   1.162
 3651SOL     OW11241   2.114   5.288   1.744
 3651SOL    HW111242   2.084   5.345   1.820
 3651SOL    HW211243   2.107   5.191   1.770
 3652SOL     OW11244   2.533   4.188   1.269
 3652SOL    HW111245   2.499   4.099   1.239
 3652SOL    HW211246   2.559   4.242   1.189
 3653SOL     OW11247   2.792   5.402   1.465
 3653SOL    HW111248   2.768   5.384   1.370
 3653SOL    HW211249   2.822   5.496   1.475
 3654SOL     OW11250   2.335   4.224   0.191
 3654SOL    HW111251   2.396   4.304   0.195
 3654SOL    HW211252   2.240   4.255   0.198
 3655SOL     OW11253   2.021   4.861   1.466
 3655SOL    HW111254   2.043   4.800   1.542
 3655SOL    HW211255   2.031   4.812   1.380
 3656SOL     OW11256   3.209   4.783   1.234
 3656SOL    HW111257   3.233   4.720   1.160
 3656SOL    HW211258   3.119   4.823   1.216
 3657SOL     OW11259   3.164   4.579   0.309
 3657SOL    HW111260   3.078   4.548   0.351
 3657SOL    HW211261   3.160   4.565   0.210
 3658SOL     OW11262   3.621   5.471   1.154
 3658SOL    HW111263   3.682   5.501   1.081
 3658SOL    HW211264   3.583   5.382   1.132
 3659SOL     OW11265   3.114   5.455   1.128
 3659SOL    HW111266   3.198   5.460   1.074
 3659SOL    HW211267   3.091   5.359   1.146
 3660SOL     OW11268   1.945   4.982   1.022
 3660SOL    HW111269   1.940   4.981   1.122
 3660SOL    HW211270   1.862   4.941   0.984
 3661SOL     OW11271   2.550   5.386   1.716
 3661SOL    HW111272   2.494   5.467   1.725
 3661SOL    HW211273   2.602   5.390   1.630
 3662SOL     OW11274   2.765   3.810   0.133
 3662SOL    HW111275   2.816   3.811   0.047
 3662SOL    HW211276   2.821   3.768   0.204
 3663SOL     OW11277   3.588   3.859   0.523
 3663SOL    HW111278   3.661   3.842   0.456
 3663SOL    HW211279   3.557   3.772   0.561
 3664SOL     OW11280   3.250   5.297   0.477
 3664SOL    HW111281   3.317   5.309   0.403
 3664SOL    HW211282   3.210   5.386   0.500
 3665SOL     OW11283   1.992   5.518   1.851
 3665SOL    HW111284   1.951   5.444   1.904
 3665SOL    HW211285   2.056   5.569   1.909
 3666SOL     OW11286   3.142   4.651   0.672
 3666SOL    HW111287   3.202   4.570   0.674
 3666SOL    HW211288   3.182   4.720   0.612
 3667SOL     OW11289   2.692   4.997   1.422
 3667SOL    HW111290   2.687   5.030   1.517
 3667SOL    HW211291   2.606   5.016   1.376
 3668SOL     OW11292   2.534   5.340   0.154
 3668SOL    HW111293   2.543   5.350   0.055
 3668SOL    HW211294   2.494   5.251   0.175
 3669SOL     OW11295   3.512   5.444   1.394
 3669SOL    HW111296   3.565   5.454   1.310
 3669SOL    HW211297   3.485   5.534   1.428
 3670SOL     OW11298   3.703   3.899   0.963
 3670SOL    HW111299   3.742   3.814   0.927
 3670SOL    HW211300   3.605   3.901   0.944
 3671SOL     OW11301   2.125   4.050   0.720
 3671SOL    HW111302   2.046   4.101   0.686
 3671SOL    HW211303   2.116   4.035   0.818
 3672SOL     OW11304   3.056   5.336   0.031
 3672SOL    HW111305   3.062   5.243   0.068
 3672SOL    HW211306   2.997   5.336  -0.049
 3673SOL     OW11307   2.684   4.726   1.372
 3673SOL    HW111308   2.724   4.725   1.280
 3673SOL    HW211309   2.694   4.818   1.412
 3674SOL     OW11310   2.778   4.634   0.291
 3674SOL    HW111311   2.841   4.672   0.223
 3674SOL    HW211312   2.818   4.551   0.330
 3675SOL     OW11313   3.366   5.331   0.044
 3675SOL    HW111314   3.274   5.368   0.051
 3675SOL    HW211315   3.404   5.351  -0.046
 3676SOL     OW11316   2.234   5.012   1.490
 3676SOL    HW111317   2.221   5.105   1.456
 3676SOL    HW211318   2.150   4.960   1.477
 3677SOL     OW11319   3.476   5.016   1.289
 3677SOL    HW111320   3.536   5.019   1.369
 3677SOL    HW211321   3.401   5.080   1.302
 3678SOL     OW11322   2.901   4.822   0.696
 3678SOL    HW111323   2.831   4.775   0.750
 3678SOL    HW211324   2.960   4.754   0.653
 3679SOL     OW11325   2.876   3.960   0.971
 3679SOL    HW111326   2.868   3.924   0.878
 3679SOL    HW211327   2.874   3.884   1.036
 3680SOL     OW11328   2.452   5.211   0.491
 3680SOL    HW111329   2.494   5.153   0.421
 3680SOL    HW211330   2.408   5.290   0.447
 3681SOL     OW11331   3.571   4.109   1.381
 3681SOL    HW111332   3.644   4.178   1.385
 3681SOL    HW211333   3.599   4.034   1.322
 3682SOL     OW11334   2.117   5.072   0.290
 3682SOL    HW111335   2.021   5.073   0.263
 3682SOL    HW211336   2.129   5.125   0.374
 3683SOL     OW11337   1.967   4.737   1.726
 3683SOL    HW111338   1.890   4.704   1.780
 3683SOL    HW211339   2.052   4.707   1.768
 3684SOL     OW11340   2.534   3.927   1.489
 3684SOL    HW111341   2.624   3.911   1.449
 3684SOL    HW211342   2.542   3.932   1.588
 3685SOL     OW11343   1.937   4.069   0.033
 3685SOL    HW111344   1.845   4.041   0.004
 3685SOL    HW211345   1.968   4.146  -0.023
 3686SOL     OW11346   3.302   4.580   1.398
 3686SOL    HW111347   3.245   4.632   1.335
 3686SOL    HW211348   3.398   4.592   1.374
 3687SOL     OW11349   1.934   3.890   0.318
 3687SOL    HW111350   1.917   3.973   0.264
 3687SOL    HW211351   2.024   3.853   0.296
 3688SOL     OW11352   3.045   5.059   0.119
 3688SOL    HW111353   2.946   5.048   0.121
 3688SOL    HW211354   3.079   5.074   0.212
 3689SOL     OW11355   2.475   4.566   1.431
 3689SOL    HW111356   2.531   4.647   1.414
 3689SOL    HW211357   2.534   4.486   1.434
 3690SOL     OW11358   3.355   5.491   0.959
 3690SOL    HW111359   3.388   5.555   0.890
 3690SOL    HW211360   3.421   5.485   1.034
 3691SOL     OW11361   2.578   4.289   1.708
 3691SOL    HW111362   2.597   4.354   1.782
 3691SOL    HW211363   2.638   4.209   1.717
 3692SOL     OW11364   3.312   4.944   1.633
 3692SOL    HW111365   3.303   4.934   1.732
 3692SOL    HW211366   3.408   4.937   1.607
 3693SOL     OW11367   2.252   5.465   1.560
 3693SOL    HW111368   2.161   5.506   1.558
 3693SOL    HW211369   2.245   5.371   1.592
 3694SOL     OW11370   3.536   4.607   1.254
 3694SOL    HW111371   3.509   4.518   1.217
 3694SOL    HW211372   3.537   4.675   1.181
 3695SOL     OW11373   3.087   4.049   0.449
 3695SOL    HW111374   3.152   3.975   0.438
 3695SOL    HW211375   3.107   4.099   0.533
 3696SOL     OW11376   2.456   4.469   0.652
 3696SOL    HW111377   2.506   4.554   0.633
 3696SOL    HW211378   2.368   4.471   0.604
 3697SOL     OW11379   3.639   4.066   1.642
 3697SOL    HW111380   3.622   4.097   1.548
 3697SOL    HW211381   3.555   4.029   1.680
 3698SOL     OW11382   3.592   4.658   1.517
 3698SOL    HW111383   3.630   4.749   1.532
 3698SOL    HW211384   3.584   4.641   1.418
 3699SOL     OW11385   2.721   5.098   0.016
 3699SOL    HW111386   2.675   5.113   0.104
 3699SOL    HW211387   2.765   5.183  -0.014
 3700SOL     OW11388   2.523   5.514   0.953
 3700SOL    HW111389   2.477   5.602   0.940
 3700SOL    HW211390   2.622   5.526   0.946
 3701SOL     OW11391   2.721   4.680   0.861
 3701SOL    HW111392   2.775   4.611   0.909
 3701SOL    HW211393   2.689   4.749   0.927
 3702SOL     OW11394   2.945   4.708   0.087
 3702SOL    HW111395   2.922   4.761   0.005
 3702SOL    HW211396   3.026   4.652   0.068
 3703SOL     OW11397   3.723   5.293   0.851
 3703SOL    HW111398   3.652   5.281   0.781
 3703SOL    HW211399   3.724   5.214   0.911
 3704SOL     OW11400   2.083   5.038   1.844
 3704SOL    HW111401   2.018   4.965   1.823
 3704SOL    HW211402   2.087   5.052   1.942
 3705SOL     OW11403   1.941   4.964   0.653
 3705SOL    HW111404   1.940   4.917   0.741
 3705SOL    HW211405   2.023   4.936   0.602
 3706SOL     OW11406   2.534   5.115   1.624
 3706SOL    HW111407   2.456   5.065   1.662
 3706SOL    HW211408   2.531   5.210   1.655
 3707SOL     OW11409   3.686   3.916   1.227
 3707SOL    HW111410   3.682   3.826   1.271
 3707SOL    HW211411   3.689   3.905   1.128
 3708SOL     OW11412   2.290   4.148   0.520
 3708SOL    HW111413   2.320   4.076   0.458
 3708SOL    HW211414   2.251   4.108   0.603
 3709SOL     OW11415   3.567   5.211   1.104
 3709SOL    HW111416   3.474   5.186   1.077
 3709SOL    HW211417   3.593   5.161   1.186
 3710SOL     OW11418   2.179   4.271   1.280
 3710SOL    HW111419   2.217   4.212   1.352
 3710SOL    HW211420   2.219   4.245   1.192
 3711SOL     OW11421   2.674   5.310   0.687
 3711SOL    HW111422   2.706   5.320   0.593
 3711SOL    HW211423   2.595   5.248   0.689
 3712SOL     OW11424   3.286   3.938   1.112
 3712SOL    HW111425   3.338   3.873   1.167
 3712SOL    HW211426   3.237   4.001   1.173
 3713SOL     OW11427   2.863   3.758   1.154
 3713SOL    HW111428   2.800   3.686   1.123
 3713SOL    HW211429   2.956   3.722   1.154
 3714SOL     OW11430   2.632   5.054   0.301
 3714SOL    HW111431   2.586   4.967   0.318
 3714SOL    HW211432   2.723   5.051   0.342
 3715SOL     OW11433   2.480   5.291   1.284
 3715SOL    HW111434   2.475   5.373   1.341
 3715SOL    HW211435   2.569   5.288   1.239
 3716SOL     OW11436   3.214   3.776   0.168
 3716SOL    HW111437   3.249   3.735   0.084
 3716SOL    HW211438   3.124   3.738   0.188
 3717SOL     OW11439   3.162   4.177   0.691
 3717SOL    HW111440   3.103   4.257   0.695
 3717SOL    HW211441   3.177   4.142   0.784
 3718SOL     OW11442   3.455   3.945   0.882
 3718SOL    HW111443   3.371   3.944   0.936
 3718SOL    HW211444   3.457   4.028   0.826
 3719SOL     OW11445   1.901   4.801   0.300
 3719SOL    HW111446   2.000   4.790   0.291
 3719SOL    HW211447   1.861   4.715   0.332
 3720SOL     OW11448   2.737   5.370   0.337
 3720SOL    HW111449   2.660   5.335   0.283
 3720SOL    HW211450   2.705   5.441   0.399
 3721SOL     OW11451   2.092   4.352   1.975
 3721SOL    HW111452   1.999   4.350   2.012
 3721SOL    HW211453   2.093   4.313   1.883
 3722SOL     OW11454   2.087   3.999   2.858
 3722SOL    HW111455   2.122   3.982   2.950
 3722SOL    HW211456   1.999   3.954   2.846
 3723SOL     OW11457   1.881   4.092   2.509
 3723SOL    HW111458   1.799   4.135   2.548
 3723SOL    HW211459   1.853   4.019   2.446
 3724SOL     OW11460   2.431   4.999   3.027
 3724SOL    HW111461   2.338   4.992   2.990
 3724SOL    HW211462   2.442   5.088   3.071
 3725SOL     OW11463   3.417   5.235   2.565
 3725SOL    HW111464   3.360   5.219   2.646
 3725SOL    HW211465   3.358   5.245   2.485
 3726SOL     OW11466   2.997   4.427   2.579
 3726SOL    HW111467   3.054   4.505   2.554
 3726SOL    HW211468   2.937   4.453   2.655
 3727SOL     OW11469   3.617   4.331   2.093
 3727SOL    HW111470   3.605   4.318   1.994
 3727SOL    HW211471   3.587   4.250   2.142
 3728SOL     OW11472   2.630   4.868   2.885
 3728SOL    HW111473   2.552   4.885   2.945
 3728SOL    HW211474   2.664   4.955   2.849
 3729SOL     OW11475   2.712   4.522   3.685
 3729SOL    HW111476   2.708   4.598   3.750
 3729SOL    HW211477   2.734   4.558   3.594
 3730SOL     OW11478   2.547   4.736   2.527
 3730SOL    HW111479   2.616   4.720   2.597
 3730SOL    HW211480   2.474   4.793   2.565
 3731SOL     OW11481   2.548   4.885   3.665
 3731SOL    HW111482   2.608   4.964   3.679
 3731SOL    HW211483   2.462   4.916   3.624
 3732SOL     OW11484   2.197   5.159   2.923
 3732SOL    HW111485   2.119   5.128   2.870
 3732SOL    HW211486   2.255   5.217   2.866
 3733SOL     OW11487   3.322   5.229   3.201
 3733SOL    HW111488   3.346   5.323   3.227
 3733SOL    HW211489   3.306   5.175   3.283
 3734SOL     OW11490   2.300   4.116   3.361
 3734SOL    HW111491   2.382   4.060   3.370
 3734SOL    HW211492   2.219   4.058   3.365
 3735SOL     OW11493   3.465   4.171   2.599
 3735SOL    HW111494   3.391   4.217   2.549
 3735SOL    HW211495   3.516   4.239   2.652
 3736SOL     OW11496   2.093   5.437   2.345
 3736SOL    HW111497   2.127   5.514   2.399
 3736SOL    HW211498   2.137   5.437   2.255
 3737SOL     OW11499   2.989   5.065   3.552
 3737SOL    HW111500   3.036   5.065   3.640
 3737SOL    HW211501   2.941   4.978   3.541
 3738SOL     OW11502   2.092   5.158   2.400
 3738SOL    HW111503   2.066   5.254   2.400
 3738SOL    HW211504   2.021   5.104   2.445
 3739SOL     OW11505   2.102   4.815   2.748
 3739SOL    HW111506   2.116   4.731   2.800
 3739SOL    HW211507   2.047   4.879   2.803
 3740SOL     OW11508   2.482   5.510   3.301
 3740SOL    HW111509   2.390   5.493   3.336
 3740SOL    HW211510   2.510   5.602   3.327
 3741SOL     OW11511   2.468   4.688   1.985
 3741SOL    HW111512   2.475   4.772   1.931
 3741SOL    HW211513   2.514   4.701   2.073
 3742SOL     OW11514   3.456   3.838   3.342
 3742SOL    HW111515   3.438   3.905   3.270
 3742SOL    HW211516   3.453   3.884   3.431
 3743SOL     OW11517   1.984   4.367   2.425
 3743SOL    HW111518   1.939   4.279   2.442
 3743SOL    HW211519   1.983   4.421   2.509
 3744SOL     OW11520   3.704   5.491   2.221
 3744SOL    HW111521   3.758   5.462   2.301
 3744SOL    HW211522   3.734   5.581   2.192
 3745SOL     OW11523   1.889   5.320   1.979
 3745SOL    HW111524   1.870   5.224   2.000
 3745SOL    HW211525   1.856   5.378   2.054
 3746SOL     OW11526   3.551   4.646   2.474
 3746SOL    HW111527   3.646   4.617   2.482
 3746SOL    HW211528   3.543   4.711   2.399
 3747SOL     OW11529   3.503   4.832   2.294
 3747SOL    HW111530   3.589   4.834   2.242
 3747SOL    HW211531   3.517   4.879   2.382
 3748SOL     OW11532   1.975   4.461   3.459
 3748SOL    HW111533   2.063   4.448   3.504
 3748SOL    HW211534   1.962   4.558   3.437
 3749SOL     OW11535   2.475   5.089   2.588
 3749SOL    HW111536   2.426   5.002   2.597
 3749SOL    HW211537   2.452   5.132   2.501
 3750SOL     OW11538   3.155   4.952   3.285
 3750SOL    HW111539   3.192   4.879   3.227
 3750SOL    HW211540   3.207   4.957   3.370
 3751SOL     OW11541   2.671   3.728   2.364
 3751SOL    HW111542   2.711   3.819   2.355
 3751SOL    HW211543   2.571   3.736   2.370
 3752SOL     OW11544   2.059   4.700   3.126
 3752SOL    HW111545   2.148   4.655   3.112
 3752SOL    HW211546   1.986   4.635   3.107
 3753SOL     OW11547   3.387   4.723   2.052
 3753SOL    HW111548   3.324   4.647   2.065
 3753SOL    HW211549   3.435   4.741   2.138
 3754SOL     OW11550   3.049   5.516   3.478
 3754SOL    HW111551   3.073   5.576   3.402
 3754SOL    HW211552   3.056   5.421   3.448
 3755SOL     OW11553   2.179   3.975   3.663
 3755SOL    HW111554   2.250   4.046   3.669
 3755SOL    HW211555   2.091   4.014   3.691
 3756SOL     OW11556   3.328   5.141   2.815
 3756SOL    HW111557   3.269   5.147   2.895
 3756SOL    HW211558   3.313   5.053   2.769
 3757SOL     OW11559   3.529   5.438   2.434
 3757SOL    HW111560   3.488   5.415   2.346
 3757SOL    HW211561   3.511   5.364   2.499
 3758SOL     OW11562   2.460   4.453   2.132
 3758SOL    HW111563   2.484   4.522   2.064
 3758SOL    HW211564   2.382   4.486   2.186
 3759SOL     OW11565   3.143   4.069   2.806
 3759SOL    HW111566   3.057   4.019   2.793
 3759SOL    HW211567   3.205   4.015   2.862
 3760SOL     OW11568   3.438   5.386   2.169
 3760SOL    HW111569   3.527   5.432   2.172
 3760SOL    HW211570   3.417   5.362   2.074
 3761SOL     OW11571   2.669   4.329   3.327
 3761SOL    HW111572   2.622   4.326   3.416
 3761SOL    HW211573   2.618   4.274   3.261
 3762SOL     OW11574   3.256   4.193   3.536
 3762SOL    HW111575   3.236   4.236   3.624
 3762SOL    HW211576   3.334   4.131   3.545
 3763SOL     OW11577   2.835   4.614   3.434
 3763SOL    HW111578   2.881   4.530   3.405
 3763SOL    HW211579   2.779   4.648   3.359
 3764SOL     OW11580   2.853   4.134   3.104
 3764SOL    HW111581   2.776   4.168   3.158
 3764SOL    HW211582   2.819   4.083   3.025
 3765SOL     OW11583   2.903   4.425   2.291
 3765SOL    HW111584   2.929   4.421   2.387
 3765SOL    HW211585   2.818   4.374   2.277
 3766SOL     OW11586   1.938   4.535   2.651
 3766SOL    HW111587   2.037   4.523   2.660
 3766SOL    HW211588   1.914   4.630   2.672
 3767SOL     OW11589   1.992   5.545   3.433
 3767SOL    HW111590   1.982   5.530   3.532
 3767SOL    HW211591   1.906   5.581   3.397
 3768SOL     OW11592   2.727   4.072   2.057
 3768SOL    HW111593   2.786   4.135   2.008
 3768SOL    HW211594   2.746   3.978   2.028
 3769SOL     OW11595   3.581   4.309   3.693
 3769SOL    HW111596   3.555   4.398   3.657
 3769SOL    HW211597   3.579   4.241   3.620
 3770SOL     OW11598   3.224   4.868   2.407
 3770SOL    HW111599   3.307   4.839   2.359
 3770SOL    HW211600   3.175   4.935   2.351
 3771SOL     OW11601   2.412   3.920   2.747
 3771SOL    HW111602   2.407   3.915   2.847
 3771SOL    HW211603   2.414   4.016   2.718
 3772SOL     OW11604   2.870   5.180   2.339
 3772SOL    HW111605   2.824   5.252   2.287
 3772SOL    HW211606   2.866   5.200   2.437
 3773SOL     OW11607   2.213   5.525   2.715
 3773SOL    HW111608   2.263   5.439   2.721
 3773SOL    HW211609   2.278   5.602   2.712
 3774SOL     OW11610   3.657   4.790   2.735
 3774SOL    HW111611   3.595   4.775   2.659
 3774SOL    HW211612   3.605   4.801   2.820
 3775SOL     OW11613   3.089   5.274   3.368
 3775SOL    HW111614   3.095   5.197   3.432
 3775SOL    HW211615   3.037   5.248   3.288
 3776SOL     OW11616   2.183   4.667   2.104
 3776SOL    HW111617   2.265   4.706   2.062
 3776SOL    HW211618   2.156   4.585   2.055
 3777SOL     OW11619   3.320   4.459   2.590
 3777SOL    HW111620   3.315   4.394   2.665
 3777SOL    HW211621   3.400   4.518   2.603
 3778SOL     OW11622   2.323   4.990   3.589
 3778SOL    HW111623   2.273   4.991   3.503
 3778SOL    HW211624   2.260   4.972   3.665
 3779SOL     OW11625   2.973   5.500   2.099
 3779SOL    HW111626   2.913   5.438   2.149
 3779SOL    HW211627   3.004   5.456   2.014
 3780SOL     OW11628   2.064   4.009   3.360
 3780SOL    HW111629   1.984   4.069   3.347
 3780SOL    HW211630   2.054   3.960   3.446
 3781SOL     OW11631   3.494   5.101   1.943
 3781SOL    HW111632   3.462   5.195   1.933
 3781SOL    HW211633   3.418   5.038   1.931
 3782SOL     OW11634   2.326   5.467   2.185
 3782SOL    HW111635   2.359   5.506   2.271
 3782SOL    HW211636   2.402   5.460   2.120
 3783SOL     OW11637   2.111   5.509   3.103
 3783SOL    HW111638   2.168   5.444   3.153
 3783SOL    HW211639   2.095   5.476   3.010
 3784SOL     OW11640   2.802   5.422   2.766
 3784SOL    HW111641   2.882   5.365   2.787
 3784SOL    HW211642   2.753   5.382   2.689
 3785SOL     OW11643   2.244   4.424   2.342
 3785SOL    HW111644   2.289   4.334   2.339
 3785SOL    HW211645   2.150   4.413   2.375
 3786SOL     OW11646   3.409   3.946   3.591
 3786SOL    HW111647   3.404   3.983   3.683
 3786SOL    HW211648   3.337   3.877   3.579
 3787SOL     OW11649   2.476   3.846   1.979
 3787SOL    HW111650   2.574   3.824   1.986
 3787SOL    HW211651   2.445   3.829   1.886
 3788SOL     OW11652   2.643   3.988   3.611
 3788SOL    HW111653   2.710   3.927   3.654
 3788SOL    HW211654   2.570   4.007   3.676
 3789SOL     OW11655   2.750   5.238   3.057
 3789SOL    HW111656   2.727   5.213   2.963
 3789SOL    HW211657   2.811   5.169   3.096
 3790SOL     OW11658   3.213   4.314   3.295
 3790SOL    HW111659   3.241   4.271   3.380
 3790SOL    HW211660   3.238   4.410   3.296
 3791SOL     OW11661   2.665   5.126   2.786
 3791SOL    HW111662   2.755   5.140   2.744
 3791SOL    HW211663   2.594   5.128   2.715
 3792SOL     OW11664   2.784   4.227   2.761
 3792SOL    HW111665   2.759   4.218   2.665
 3792SOL    HW211666   2.832   4.145   2.792
 3793SOL     OW11667   2.401   3.788   2.374
 3793SOL    HW111668   2.320   3.789   2.432
 3793SOL    HW211669   2.404   3.871   2.319
 3794SOL     OW11670   3.296   4.912   1.903
 3794SOL    HW111671   3.328   4.836   1.960
 3794SOL    HW211672   3.204   4.939   1.933
 3795SOL     OW11673   2.159   3.759   2.033
 3795SOL    HW111674   2.208   3.843   2.012
 3795SOL    HW211675   2.221   3.694   2.078
 3796SOL     OW11676   2.797   3.960   2.342
 3796SOL    HW111677   2.749   4.001   2.264
 3796SOL    HW211678   2.896   3.958   2.323
 3797SOL     OW11679   2.938   4.407   3.326
 3797SOL    HW111680   2.858   4.346   3.329
 3797SOL    HW211681   3.019   4.354   3.302
 3798SOL     OW11682   3.089   5.294   2.655
 3798SOL    HW111683   3.110   5.368   2.590
 3798SOL    HW211684   3.157   5.294   2.728
 3799SOL     OW11685   2.321   4.876   2.603
 3799SOL    HW111686   2.250   4.849   2.668
 3799SOL    HW211687   2.295   4.848   2.510
 3800SOL     OW11688   3.133   5.521   2.453
 3800SOL    HW111689   3.177   5.585   2.389
 3800SOL    HW211690   3.083   5.573   2.523
 3801SOL     OW11691   2.894   4.273   1.878
 3801SOL    HW111692   2.853   4.355   1.839
 3801SOL    HW211693   2.958   4.299   1.951
 3802SOL     OW11694   1.940   4.280   3.248
 3802SOL    HW111695   2.032   4.279   3.207
 3802SOL    HW211696   1.934   4.354   3.315
 3803SOL     OW11697   2.423   3.946   3.009
 3803SOL    HW111698   2.461   3.862   3.046
 3803SOL    HW211699   2.335   3.965   3.053
 3804SOL     OW11700   2.728   4.178   2.504
 3804SOL    HW111701   2.696   4.250   2.442
 3804SOL    HW211702   2.752   4.097   2.451
 3805SOL     OW11703   2.879   3.763   2.615
 3805SOL    HW111704   2.807   3.768   2.546
 3805SOL    HW211705   2.855   3.694   2.684
 3806SOL     OW11706   3.291   4.897   2.729
 3806SOL    HW111707   3.236   4.813   2.722
 3806SOL    HW211708   3.317   4.926   2.637
 3807SOL     OW11709   3.328   4.314   2.854
 3807SOL    HW111710   3.298   4.219   2.861
 3807SOL    HW211711   3.401   4.330   2.920
 3808SOL     OW11712   3.719   4.557   2.239
 3808SOL    HW111713   3.761   4.493   2.303
 3808SOL    HW211714   3.681   4.506   2.161
 3809SOL     OW11715   2.350   5.109   2.036
 3809SOL    HW111716   2.263   5.094   2.083
 3809SOL    HW211717   2.333   5.135   1.941
 3810SOL     OW11718   3.526   5.004   2.519
 3810SOL    HW111719   3.625   5.012   2.533
 3810SOL    HW211720   3.481   5.088   2.550
 3811SOL     OW11721   3.252   4.299   1.940
 3811SOL    HW111722   3.198   4.278   2.021
 3811SOL    HW211723   3.343   4.258   1.949
 3812SOL     OW11724   2.389   3.980   2.190
 3812SOL    HW111725   2.416   3.921   2.115
 3812SOL    HW211726   2.389   4.075   2.159
 3813SOL     OW11727   3.616   4.947   3.450
 3813SOL    HW111728   3.707   4.908   3.437
 3813SOL    HW211729   3.624   5.043   3.474
 3814SOL     OW11730   2.926   5.071   3.202
 3814SOL    HW111731   2.846   5.048   3.257
 3814SOL    HW211732   3.009   5.045   3.251
 3815SOL     OW11733   3.454   5.353   3.487
 3815SOL    HW111734   3.481   5.387   3.397
 3815SOL    HW211735   3.533   5.315   3.533
 3816SOL     OW11736   2.973   4.919   2.962
 3816SOL    HW111737   2.933   4.963   3.043
 3816SOL    HW211738   2.932   4.956   2.879
 3817SOL     OW11739   3.500   4.823   2.941
 3817SOL    HW111740   3.505   4.904   3.000
 3817SOL    HW211741   3.414   4.825   2.890
 3818SOL     OW11742   2.777   3.813   3.264
 3818SOL    HW111743   2.802   3.793   3.169
 3818SOL    HW211744   2.849   3.869   3.306
 3819SOL     OW11745   2.842   4.840   3.581
 3819SOL    HW111746   2.743   4.846   3.591
 3819SOL    HW211747   2.865   4.760   3.525
 3820SOL     OW11748   2.567   4.774   2.230
 3820SOL    HW111749   2.553   4.781   2.329
 3820SOL    HW211750   2.651   4.723   2.212
 3821SOL     OW11751   2.272   4.537   3.113
 3821SOL    HW111752   2.358   4.549   3.163
 3821SOL    HW211753   2.230   4.450   3.140
 3822SOL     OW11754   3.136   4.110   3.124
 3822SOL    HW111755   3.157   4.184   3.188
 3822SOL    HW211756   3.047   4.127   3.081
 3823SOL     OW11757   1.926   5.288   3.193
 3823SOL    HW111758   1.880   5.370   3.159
 3823SOL    HW211759   2.024   5.307   3.202
 3824SOL     OW11760   2.229   4.824   2.363
 3824SOL    HW111761   2.222   4.907   2.307
 3824SOL    HW211762   2.233   4.744   2.303
 3825SOL     OW11763   2.428   4.261   2.727
 3825SOL    HW111764   2.440   4.327   2.653
 3825SOL    HW211765   2.474   4.295   2.810
 3826SOL     OW11766   3.114   5.072   2.250
 3826SOL    HW111767   3.164   5.149   2.290
 3826SOL    HW211768   3.019   5.074   2.282
 3827SOL     OW11769   3.134   5.169   3.004
 3827SOL    HW111770   3.181   5.182   3.091
 3827SOL    HW211771   3.068   5.095   3.013
 3828SOL     OW11772   2.216   5.234   3.191
 3828SOL    HW111773   2.195   5.190   3.104
 3828SOL    HW211774   2.313   5.260   3.194
 3829SOL     OW11775   2.264   4.475   3.460
 3829SOL    HW111776   2.332   4.530   3.413
 3829SOL    HW211777   2.304   4.387   3.487
 3830SOL     OW11778   3.449   4.503   3.532
 3830SOL    HW111779   3.357   4.541   3.527
 3830SOL    HW211780   3.509   4.550   3.467
 3831SOL     OW11781   2.875   3.829   3.632
 3831SOL    HW111782   2.881   3.914   3.580
 3831SOL    HW211783   2.907   3.753   3.575
 3832SOL     OW11784   2.366   3.774   3.602
 3832SOL    HW111785   2.324   3.717   3.532
 3832SOL    HW211786   2.300   3.843   3.634
 3833SOL     OW11787   2.435   4.594   2.891
 3833SOL    HW111788   2.479   4.683   2.882
 3833SOL    HW211789   2.372   4.594   2.968
 3834SOL     OW11790   3.222   4.586   2.907
 3834SOL    HW111791   3.147   4.586   2.841
 3834SOL    HW211792   3.259   4.494   2.916
 3835SOL     OW11793   3.071   4.249   2.137
 3835SOL    HW111794   3.084   4.165   2.191
 3835SOL    HW211795   3.042   4.323   2.197
 3836SOL     OW11796   2.169   3.937   3.093
 3836SOL    HW111797   2.146   3.974   3.183
 3836SOL    HW211798   2.139   3.842   3.087
 3837SOL     OW11799   1.899   5.034   3.144
 3837SOL    HW111800   1.952   4.985   3.212
 3837SOL    HW211801   1.921   5.132   3.149
 3838SOL     OW11802   2.594   4.358   2.926
 3838SOL    HW111803   2.653   4.332   2.850
 3838SOL    HW211804   2.566   4.454   2.915
 3839SOL     OW11805   3.590   4.659   3.716
 3839SOL    HW111806   3.544   4.652   3.627
 3839SOL    HW211807   3.528   4.703   3.782
 3840SOL     OW11808   2.169   3.787   2.480
 3840SOL    HW111809   2.158   3.881   2.513
 3840SOL    HW211810   2.164   3.724   2.557
 3841SOL     OW11811   2.885   4.490   2.828
 3841SOL    HW111812   2.900   4.511   2.924
 3841SOL    HW211813   2.855   4.395   2.819
 3842SOL     OW11814   2.842   5.297   3.562
 3842SOL    HW111815   2.822   5.341   3.474
 3842SOL    HW211816   2.881   5.206   3.546
 3843SOL     OW11817   3.721   5.242   3.467
 3843SOL    HW111818   3.735   5.269   3.372
 3843SOL    HW211819   3.804   5.264   3.520
 3844SOL     OW11820   2.212   4.622   3.666
 3844SOL    HW111821   2.288   4.666   3.714
 3844SOL    HW211822   2.247   4.575   3.584
 3845SOL     OW11823   3.165   4.562   1.904
 3845SOL    HW111824   3.199   4.469   1.919
 3845SOL    HW211825   3.183   4.589   1.809
 3846SOL     OW11826   2.930   5.057   2.711
 3846SOL    HW111827   2.937   4.973   2.656
 3846SOL    HW211828   2.992   5.126   2.675
 3847SOL     OW11829   2.181   4.534   2.811
 3847SOL    HW111830   2.274   4.570   2.816
 3847SOL    HW211831   2.175   4.449   2.863
 3848SOL     OW11832   2.201   4.233   2.868
 3848SOL    HW111833   2.149   4.150   2.851
 3848SOL    HW211834   2.278   4.238   2.804
 3849SOL     OW11835   3.000   4.104   3.540
 3849SOL    HW111836   2.955   4.167   3.604
 3849SOL    HW211837   3.093   4.135   3.523
 3850SOL     OW11838   3.022   3.931   3.339
 3850SOL    HW111839   3.022   3.995   3.416
 3850SOL    HW211840   3.050   3.979   3.256
 3851SOL     OW11841   1.870   5.050   2.062
 3851SOL    HW111842   1.777   5.071   2.031
 3851SOL    HW211843   1.880   4.951   2.075
 3852SOL     OW11844   1.950   5.525   2.789
 3852SOL    HW111845   1.908   5.439   2.762
 3852SOL    HW211846   2.044   5.528   2.755
 3853SOL     OW11847   2.366   5.292   2.772
 3853SOL    HW111848   2.432   5.366   2.781
 3853SOL    HW211849   2.410   5.213   2.730
 3854SOL     OW11850   2.864   4.520   3.100
 3854SOL    HW111851   2.905   4.488   3.186
 3854SOL    HW211852   2.768   4.493   3.097
 3855SOL     OW11853   1.902   4.268   2.976
 3855SOL    HW111854   1.987   4.235   2.935
 3855SOL    HW211855   1.915   4.283   3.074
 3856SOL     OW11856   2.051   4.244   3.584
 3856SOL    HW111857   2.110   4.204   3.514
 3856SOL    HW211858   1.993   4.315   3.543
 3857SOL     OW11859   3.231   4.674   3.522
 3857SOL    HW111860   3.270   4.763   3.542
 3857SOL    HW211861   3.241   4.654   3.425
 3858SOL     OW11862   2.677   4.296   2.187
 3858SOL    HW111863   2.684   4.207   2.141
 3858SOL    HW211864   2.583   4.330   2.179
 3859SOL     OW11865   3.519   4.328   3.068
 3859SOL    HW111866   3.481   4.259   3.130
 3859SOL    HW211867   3.601   4.292   3.024
 3860SOL     OW11868   2.114   5.288   3.606
 3860SOL    HW111869   2.084   5.345   3.682
 3860SOL    HW211870   2.107   5.191   3.632
 3861SOL     OW11871   2.533   4.188   3.131
 3861SOL    HW111872   2.499   4.099   3.101
 3861SOL    HW211873   2.559   4.242   3.051
 3862SOL     OW11874   2.792   5.402   3.327
 3862SOL    HW111875   2.768   5.384   3.232
 3862SOL    HW211876   2.822   5.496   3.337
 3863SOL     OW11877   2.335   4.224   2.053
 3863SOL    HW111878   2.396   4.304   2.057
 3863SOL    HW211879   2.240   4.255   2.060
 3864SOL     OW11880   2.021   4.861   3.328
 3864SOL    HW111881   2.043   4.800   3.404
 3864SOL    HW211882   2.031   4.812   3.242
 3865SOL     OW11883   3.209   4.783   3.096
 3865SOL    HW111884   3.233   4.720   3.022
 3865SOL    HW211885   3.119   4.823   3.078
 3866SOL     OW11886   3.164   4.579   2.171
 3866SOL    HW111887   3.078   4.548   2.213
 3866SOL    HW211888   3.160   4.565   2.072
 3867SOL     OW11889   3.621   5.471   3.016
 3867SOL    HW111890   3.682   5.501   2.943
 3867SOL    HW211891   3.583   5.382   2.994
 3868SOL     OW11892   3.114   5.455   2.990
 3868SOL    HW111893   3.198   5.460   2.936
 3868SOL    HW211894   3.091   5.359   3.008
 3869SOL     OW11895   1.945   4.982   2.884
 3869SOL    HW111896   1.940   4.981   2.984
 3869SOL    HW211897   1.862   4.941   2.846
 3870SOL     OW11898   2.550   5.386   3.578
 3870SOL    HW111899   2.494   5.467   3.587
 3870SOL    HW211900   2.602   5.390   3.492
 3871SOL     OW11901   3.250   5.297   2.339
 3871SOL    HW111902   3.317   5.309   2.265
 3871SOL    HW211903   3.210   5.386   2.362
 3872SOL     OW11904   1.992   5.518   3.713
 3872SOL    HW111905   1.951   5.444   3.766
 3872SOL    HW211906   2.056   5.569   3.771
 3873SOL     OW11907   3.142   4.651   2.534
 3873SOL    HW111908   3.202   4.570   2.536
 3873SOL    HW211909   3.182   4.720   2.474
 3874SOL     OW11910   2.692   4.997   3.284
 3874SOL    HW111911   2.687   5.030   3.379
 3874SOL    HW211912   2.606   5.016   3.238
 3875SOL     OW11913   2.534   5.340   2.016
 3875SOL    HW111914   2.543   5.350   1.917
 3875SOL    HW211915   2.494   5.251   2.037
 3876SOL     OW11916   3.512   5.444   3.256
 3876SOL    HW111917   3.565   5.454   3.172
 3876SOL    HW211918   3.485   5.534   3.290
 3877SOL     OW11919   2.125   4.050   2.582
 3877SOL    HW111920   2.046   4.101   2.548
 3877SOL    HW211921   2.116   4.035   2.680
 3878SOL     OW11922   3.056   5.336   1.893
 3878SOL    HW111923   3.062   5.243   1.930
 3878SOL    HW211924   2.997   5.336   1.813
 3879SOL     OW11925   2.684   4.726   3.234
 3879SOL    HW111926   2.724   4.725   3.142
 3879SOL    HW211927   2.694   4.818   3.274
 3880SOL     OW11928   2.778   4.634   2.153
 3880SOL    HW111929   2.841   4.672   2.085
 3880SOL    HW211930   2.818   4.551   2.192
 3881SOL     OW11931   3.366   5.331   1.906
 3881SOL    HW111932   3.274   5.368   1.913
 3881SOL    HW211933   3.404   5.351   1.816
 3882SOL     OW11934   2.234   5.012   3.352
 3882SOL    HW111935   2.221   5.105   3.318
 3882SOL    HW211936   2.150   4.960   3.339
 3883SOL     OW11937   3.476   5.016   3.151
 3883SOL    HW111938   3.536   5.019   3.231
 3883SOL    HW211939   3.401   5.080   3.164
 3884SOL     OW11940   2.901   4.822   2.558
 3884SOL    HW111941   2.831   4.775   2.612
 3884SOL    HW211942   2.960   4.754   2.515
 3885SOL     OW11943   2.876   3.960   2.833
 3885SOL    HW111944   2.868   3.924   2.740
 3885SOL    HW211945   2.874   3.884   2.898
 3886SOL     OW11946   2.452   5.211   2.353
 3886SOL    HW111947   2.494   5.153   2.283
 3886SOL    HW211948   2.408   5.290   2.309
 3887SOL     OW11949   3.571   4.109   3.243
 3887SOL    HW111950   3.644   4.178   3.247
 3887SOL    HW211951   3.599   4.034   3.184
 3888SOL     OW11952   2.117   5.072   2.152
 3888SOL    HW111953   2.021   5.073   2.125
 3888SOL    HW211954   2.129   5.125   2.236
 3889SOL     OW11955   1.967   4.737   3.588
 3889SOL    HW111956   1.890   4.704   3.642
 3889SOL    HW211957   2.052   4.707   3.630
 3890SOL     OW11958   2.534   3.927   3.351
 3890SOL    HW111959   2.624   3.911   3.311
 3890SOL    HW211960   2.542   3.932   3.450
 3891SOL     OW11961   1.937   4.069   1.895
 3891SOL    HW111962   1.845   4.041   1.866
 3891SOL    HW211963   1.968   4.146   1.839
 3892SOL     OW11964   3.302   4.580   3.260
 3892SOL    HW111965   3.245   4.632   3.197
 3892SOL    HW211966   3.398   4.592   3.236
 3893SOL     OW11967   1.934   3.890   2.180
 3893SOL    HW111968   1.917   3.973   2.126
 3893SOL    HW211969   2.024   3.853   2.158
 3894SOL     OW11970   3.045   5.059   1.981
 3894SOL    HW111971   2.946   5.048   1.983
 3894SOL    HW211972   3.079   5.074   2.074
 3895SOL     OW11973   2.475   4.566   3.293
 3895SOL    HW111974   2.531   4.647   3.276
 3895SOL    HW211975   2.534   4.486   3.296
 3896SOL     OW11976   3.355   5.491   2.821
 3896SOL    HW111977   3.388   5.555   2.752
 3896SOL    HW211978   3.421   5.485   2.896
 3897SOL     OW11979   2.578   4.289   3.570
 3897SOL    HW111980   2.597   4.354   3.644
 3897SOL    HW211981   2.638   4.209   3.579
 3898SOL     OW11982   3.312   4.944   3.495
 3898SOL    HW111983   3.303   4.934   3.594
 3898SOL    HW211984   3.408   4.937   3.469
 3899SOL     OW11985   2.252   5.465   3.422
 3899SOL    HW111986   2.161   5.506   3.420
 3899SOL    HW211987   2.245   5.371   3.454
 3900SOL     OW11988   3.536   4.607   3.116
 3900SOL    HW111989   3.509   4.518   3.079
 3900SOL    HW211990   3.537   4.675   3.043
 3901SOL     OW11991   3.087   4.049   2.311
 3901SOL    HW111992   3.152   3.975   2.300
 3901SOL    HW211993   3.107   4.099   2.395
 3902SOL     OW11994   2.456   4.469   2.514
 3902SOL    HW111995   2.506   4.554   2.495
 3902SOL    HW211996   2.368   4.471   2.466
 3903SOL     OW11997   3.639   4.066   3.504
 3903SOL    HW111998   3.622   4.097   3.410
 3903SOL    HW211999   3.555   4.029   3.542
 3904SOL     OW12000   3.592   4.658   3.379
 3904SOL    HW112001   3.630   4.749   3.394
 3904SOL    HW212002   3.584   4.641   3.280
 3905SOL     OW12003   2.721   5.098   1.878
 3905SOL    HW112004   2.675   5.113   1.966
 3905SOL    HW212005   2.765   5.183   1.848
 3906SOL     OW12006   2.523   5.514   2.815
 3906SOL    HW112007   2.477   5.602   2.802
 3906SOL    HW212008   2.622   5.526   2.808
 3907SOL     OW12009   2.721   4.680   2.723
 3907SOL    HW112010   2.775   4.611   2.771
 3907SOL    HW212011   2.689   4.749   2.789
 3908SOL     OW12012   2.945   4.708   1.949
 3908SOL    HW112013   2.922   4.761   1.867
 3908SOL    HW212014   3.026   4.652   1.930
 3909SOL     OW12015   3.723   5.293   2.713
 3909SOL    HW112016   3.652   5.281   2.643
 3909SOL    HW212017   3.724   5.214   2.773
 3910SOL     OW12018   2.083   5.038   3.706
 3910SOL    HW112019   2.018   4.965   3.685
 3910SOL    HW212020   2.087   5.052   3.804
 3911SOL     OW12021   1.941   4.964   2.515
 3911SOL    HW112022   1.940   4.917   2.603
 3911SOL    HW212023   2.023   4.936   2.464
 3912SOL     OW12024   2.534   5.115   3.486
 3912SOL    HW112025   2.456   5.065   3.524
 3912SOL    HW212026   2.531   5.210   3.517
 3913SOL     OW12027   3.686   3.916   3.089
 3913SOL    HW112028   3.682   3.826   3.133
 3913SOL    HW212029   3.689   3.905   2.990
 3914SOL     OW12030   2.290   4.148   2.382
 3914SOL    HW112031   2.320   4.076   2.320
 3914SOL    HW212032   2.251   4.108   2.465
 3915SOL     OW12033   3.567   5.211   2.966
 3915SOL    HW112034   3.474   5.186   2.939
 3915SOL    HW212035   3.593   5.161   3.048
 3916SOL     OW12036   2.179   4.271   3.142
 3916SOL    HW112037   2.217   4.212   3.214
 3916SOL    HW212038   2.219   4.245   3.054
 3917SOL     OW12039   2.674   5.310   2.549
 3917SOL    HW112040   2.706   5.320   2.455
 3917SOL    HW212041   2.595   5.248   2.551
 3918SOL     OW12042   3.286   3.938   2.974
 3918SOL    HW112043   3.338   3.873   3.029
 3918SOL    HW212044   3.237   4.001   3.035
 3919SOL     OW12045   2.863   3.758   3.016
 3919SOL    HW112046   2.800   3.686   2.985
 3919SOL    HW212047   2.956   3.722   3.016
 3920SOL     OW12048   2.632   5.054   2.163
 3920SOL    HW112049   2.586   4.967   2.180
 3920SOL    HW212050   2.723   5.051   2.204
 3921SOL     OW12051   2.480   5.291   3.146
 3921SOL    HW112052   2.475   5.373   3.203
 3921SOL    HW212053   2.569   5.288   3.101
 3922SOL     OW12054   3.214   3.776   2.030
 3922SOL    HW112055   3.249   3.735   1.946
 3922SOL    HW212056   3.124   3.738   2.050
 3923SOL     OW12057   3.162   4.177   2.553
 3923SOL    HW112058   3.103   4.257   2.557
 3923SOL    HW212059   3.177   4.142   2.646
 3924SOL     OW12060   3.455   3.945   2.744
 3924SOL    HW112061   3.371   3.944   2.798
 3924SOL    HW212062   3.457   4.028   2.688
 3925SOL     OW12063   1.901   4.801   2.162
 3925SOL    HW112064   2.000   4.790   2.153
 3925SOL    HW212065   1.861   4.715   2.194
 3926SOL     OW12066   2.737   5.370   2.199
 3926SOL    HW112067   2.660   5.335   2.145
 3926SOL    HW212068   2.705   5.441   2.261
 3927SOL     OW12069   2.092   4.352   3.837
 3927SOL    HW112070   1.999   4.350   3.874
 3927SOL    HW212071   2.093   4.313   3.745
 3928SOL     OW12072   2.087   3.999   4.720
 3928SOL    HW112073   2.122   3.982   4.812
 3928SOL    HW212074   1.999   3.954   4.708
 3929SOL     OW12075   1.881   4.092   4.371
 3929SOL    HW112076   1.799   4.135   4.410
 3929SOL    HW212077   1.853   4.019   4.308
 3930SOL     OW12078   2.431   4.999   4.889
 3930SOL    HW112079   2.338   4.992   4.852
 3930SOL    HW212080   2.442   5.088   4.933
 3931SOL     OW12081   3.417   5.235   4.427
 3931SOL    HW112082   3.360   5.219   4.508
 3931SOL    HW212083   3.358   5.245   4.347
 3932SOL     OW12084   2.997   4.427   4.441
 3932SOL    HW112085   3.054   4.505   4.416
 3932SOL    HW212086   2.937   4.453   4.517
 3933SOL     OW12087   3.617   4.331   3.955
 3933SOL    HW112088   3.605   4.318   3.856
 3933SOL    HW212089   3.587   4.250   4.004
 3934SOL     OW12090   2.630   4.868   4.747
 3934SOL    HW112091   2.552   4.885   4.807
 3934SOL    HW212092   2.664   4.955   4.711
 3935SOL     OW12093   2.712   4.522   5.547
 3935SOL    HW112094   2.708   4.598   5.612
 3935SOL    HW212095   2.734   4.558   5.456
 3936SOL     OW12096   2.547   4.736   4.389
 3936SOL    HW112097   2.616   4.720   4.459
 3936SOL    HW212098   2.474   4.793   4.427
 3937SOL     OW12099   2.548   4.885   5.527
 3937SOL    HW112100   2.608   4.964   5.541
 3937SOL    HW212101   2.462   4.916   5.486
 3938SOL     OW12102   2.197   5.159   4.785
 3938SOL    HW112103   2.119   5.128   4.732
 3938SOL    HW212104   2.255   5.217   4.728
 3939SOL     OW12105   3.322   5.229   5.063
 3939SOL    HW112106   3.346   5.323   5.089
 3939SOL    HW212107   3.306   5.175   5.145
 3940SOL     OW12108   2.300   4.116   5.223
 3940SOL    HW112109   2.382   4.060   5.232
 3940SOL    HW212110   2.219   4.058   5.227
 3941SOL     OW12111   3.465   4.171   4.461
 3941SOL    HW112112   3.391   4.217   4.411
 3941SOL    HW212113   3.516   4.239   4.514
 3942SOL     OW12114   2.093   5.437   4.207
 3942SOL    HW112115   2.127   5.514   4.261
 3942SOL    HW212116   2.137   5.437   4.117
 3943SOL     OW12117   2.989   5.065   5.414
 3943SOL    HW112118   3.036   5.065   5.502
 3943SOL    HW212119   2.941   4.978   5.403
 3944SOL     OW12120   2.092   5.158   4.262
 3944SOL    HW112121   2.066   5.254   4.262
 3944SOL    HW212122   2.021   5.104   4.307
 3945SOL     OW12123   2.102   4.815   4.610
 3945SOL    HW112124   2.116   4.731   4.662
 3945SOL    HW212125   2.047   4.879   4.665
 3946SOL     OW12126   2.482   5.510   5.163
 3946SOL    HW112127   2.390   5.493   5.198
 3946SOL    HW212128   2.510   5.602   5.189
 3947SOL     OW12129   2.468   4.688   3.847
 3947SOL    HW112130   2.475   4.772   3.793
 3947SOL    HW212131   2.514   4.701   3.935
 3948SOL     OW12132   3.456   3.838   5.204
 3948SOL    HW112133   3.438   3.905   5.132
 3948SOL    HW212134   3.453   3.884   5.293
 3949SOL     OW12135   1.984   4.367   4.287
 3949SOL    HW112136   1.939   4.279   4.304
 3949SOL    HW212137   1.983   4.421   4.371
 3950SOL     OW12138   3.704   5.491   4.083
 3950SOL    HW112139   3.758   5.462   4.163
 3950SOL    HW212140   3.734   5.581   4.054
 3951SOL     OW12141   1.889   5.320   3.841
 3951SOL    HW112142   1.870   5.224   3.862
 3951SOL    HW212143   1.856   5.378   3.916
 3952SOL     OW12144   3.551   4.646   4.336
 3952SOL    HW112145   3.646   4.617   4.344
 3952SOL    HW212146   3.543   4.711   4.261
 3953SOL     OW12147   3.503   4.832   4.156
 3953SOL    HW112148   3.589   4.834   4.104
 3953SOL    HW212149   3.517   4.879   4.244
 3954SOL     OW12150   1.975   4.461   5.321
 3954SOL    HW112151   2.063   4.448   5.366
 3954SOL    HW212152   1.962   4.558   5.299
 3955SOL     OW12153   2.475   5.089   4.450
 3955SOL    HW112154   2.426   5.002   4.459
 3955SOL    HW212155   2.452   5.132   4.363
 3956SOL     OW12156   3.155   4.952   5.147
 3956SOL    HW112157   3.192   4.879   5.089
 3956SOL    HW212158   3.207   4.957   5.232
 3957SOL     OW12159   2.671   3.728   4.226
 3957SOL    HW112160   2.711   3.819   4.217
 3957SOL    HW212161   2.571   3.736   4.232
 3958SOL     OW12162   2.059   4.700   4.988
 3958SOL    HW112163   2.148   4.655   4.974
 3958SOL    HW212164   1.986   4.635   4.969
 3959SOL     OW12165   3.387   4.723   3.914
 3959SOL    HW112166   3.324   4.647   3.927
 3959SOL    HW212167   3.435   4.741   4.000
 3960SOL     OW12168   3.049   5.516   5.340
 3960SOL    HW112169   3.073   5.576   5.264
 3960SOL    HW212170   3.056   5.421   5.310
 3961SOL     OW12171   2.179   3.975   5.525
 3961SOL    HW112172   2.250   4.046   5.531
 3961SOL    HW212173   2.091   4.014   5.553
 3962SOL     OW12174   3.328   5.141   4.677
 3962SOL    HW112175   3.269   5.147   4.757
 3962SOL    HW212176   3.313   5.053   4.631
 3963SOL     OW12177   3.529   5.438   4.296
 3963SOL    HW112178   3.488   5.415   4.208
 3963SOL    HW212179   3.511   5.364   4.361
 3964SOL     OW12180   2.460   4.453   3.994
 3964SOL    HW112181   2.484   4.522   3.926
 3964SOL    HW212182   2.382   4.486   4.048
 3965SOL     OW12183   3.143   4.069   4.668
 3965SOL    HW112184   3.057   4.019   4.655
 3965SOL    HW212185   3.205   4.015   4.724
 3966SOL     OW12186   3.438   5.386   4.031
 3966SOL    HW112187   3.527   5.432   4.034
 3966SOL    HW212188   3.417   5.362   3.936
 3967SOL     OW12189   2.669   4.329   5.189
 3967SOL    HW112190   2.622   4.326   5.278
 3967SOL    HW212191   2.618   4.274   5.123
 3968SOL     OW12192   3.256   4.193   5.398
 3968SOL    HW112193   3.236   4.236   5.486
 3968SOL    HW212194   3.334   4.131   5.407
 3969SOL     OW12195   2.835   4.614   5.296
 3969SOL    HW112196   2.881   4.530   5.267
 3969SOL    HW212197   2.779   4.648   5.221
 3970SOL     OW12198   2.853   4.134   4.966
 3970SOL    HW112199   2.776   4.168   5.020
 3970SOL    HW212200   2.819   4.083   4.887
 3971SOL     OW12201   2.903   4.425   4.153
 3971SOL    HW112202   2.929   4.421   4.249
 3971SOL    HW212203   2.818   4.374   4.139
 3972SOL     OW12204   1.938   4.535   4.513
 3972SOL    HW112205   2.037   4.523   4.522
 3972SOL    HW212206   1.914   4.630   4.534
 3973SOL     OW12207   1.992   5.545   5.295
 3973SOL    HW112208   1.982   5.530   5.394
 3973SOL    HW212209   1.906   5.581   5.259
 3974SOL     OW12210   2.727   4.072   3.919
 3974SOL    HW112211   2.786   4.135   3.870
 3974SOL    HW212212   2.746   3.978   3.890
 3975SOL     OW12213   3.581   4.309   5.555
 3975SOL    HW112214   3.555   4.398   5.519
 3975SOL    HW212215   3.579   4.241   5.482
 3976SOL     OW12216   3.224   4.868   4.269
 3976SOL    HW112217   3.307   4.839   4.221
 3976SOL    HW212218   3.175   4.935   4.213
 3977SOL     OW12219   2.412   3.920   4.609
 3977SOL    HW112220   2.407   3.915   4.709
 3977SOL    HW212221   2.414   4.016   4.580
 3978SOL     OW12222   2.870   5.180   4.201
 3978SOL    HW112223   2.824   5.252   4.149
 3978SOL    HW212224   2.866   5.200   4.299
 3979SOL     OW12225   2.213   5.525   4.577
 3979SOL    HW112226   2.263   5.439   4.583
 3979SOL    HW212227   2.278   5.602   4.574
 3980SOL     OW12228   3.657   4.790   4.597
 3980SOL    HW112229   3.595   4.775   4.521
 3980SOL    HW212230   3.605   4.801   4.682
 3981SOL     OW12231   3.089   5.274   5.230
 3981SOL    HW112232   3.095   5.197   5.294
 3981SOL    HW212233   3.037   5.248   5.150
 3982SOL     OW12234   2.183   4.667   3.966
 3982SOL    HW112235   2.265   4.706   3.924
 3982SOL    HW212236   2.156   4.585   3.917
 3983SOL     OW12237   3.320   4.459   4.452
 3983SOL    HW112238   3.315   4.394   4.527
 3983SOL    HW212239   3.400   4.518   4.465
 3984SOL     OW12240   2.323   4.990   5.451
 3984SOL    HW112241   2.273   4.991   5.365
 3984SOL    HW212242   2.260   4.972   5.527
 3985SOL     OW12243   2.973   5.500   3.961
 3985SOL    HW112244   2.913   5.438   4.011
 3985SOL    HW212245   3.004   5.456   3.876
 3986SOL     OW12246   2.064   4.009   5.222
 3986SOL    HW112247   1.984   4.069   5.209
 3986SOL    HW212248   2.054   3.960   5.308
 3987SOL     OW12249   3.494   5.101   3.805
 3987SOL    HW112250   3.462   5.195   3.795
 3987SOL    HW212251   3.418   5.038   3.793
 3988SOL     OW12252   2.326   5.467   4.047
 3988SOL    HW112253   2.359   5.506   4.133
 3988SOL    HW212254   2.402   5.460   3.982
 3989SOL     OW12255   3.262   3.831   4.150
 3989SOL    HW112256   3.238   3.794   4.060
 3989SOL    HW212257   3.361   3.847   4.154
 3990SOL     OW12258   2.111   5.509   4.965
 3990SOL    HW112259   2.168   5.444   5.015
 3990SOL    HW212260   2.095   5.476   4.872
 3991SOL     OW12261   2.802   5.422   4.628
 3991SOL    HW112262   2.882   5.365   4.649
 3991SOL    HW212263   2.753   5.382   4.551
 3992SOL     OW12264   2.244   4.424   4.204
 3992SOL    HW112265   2.289   4.334   4.201
 3992SOL    HW212266   2.150   4.413   4.237
 3993SOL     OW12267   3.409   3.946   5.453
 3993SOL    HW112268   3.404   3.983   5.545
 3993SOL    HW212269   3.337   3.877   5.441
 3994SOL     OW12270   2.476   3.846   3.841
 3994SOL    HW112271   2.574   3.824   3.848
 3994SOL    HW212272   2.445   3.829   3.748
 3995SOL     OW12273   2.643   3.988   5.473
 3995SOL    HW112274   2.710   3.927   5.516
 3995SOL    HW212275   2.570   4.007   5.538
 3996SOL     OW12276   2.750   5.238   4.919
 3996SOL    HW112277   2.727   5.213   4.825
 3996SOL    HW212278   2.811   5.169   4.958
 3997SOL     OW12279   3.213   4.314   5.157
 3997SOL    HW112280   3.241   4.271   5.242
 3997SOL    HW212281   3.238   4.410   5.158
 3998SOL     OW12282   2.665   5.126   4.648
 3998SOL    HW112283   2.755   5.140   4.606
 3998SOL    HW212284   2.594   5.128   4.577
 3999SOL     OW12285   2.784   4.227   4.623
 3999SOL    HW112286   2.759   4.218   4.527
 3999SOL    HW212287   2.832   4.145   4.654
 4000SOL     OW12288   2.401   3.788   4.236
 4000SOL    HW112289   2.320   3.789   4.294
 4000SOL    HW212290   2.404   3.871   4.181
 4001SOL     OW12291   3.296   4.912   3.765
 4001SOL    HW112292   3.328   4.836   3.822
 4001SOL    HW212293   3.204   4.939   3.795
 4002SOL     OW12294   2.159   3.759   3.895
 4002SOL    HW112295   2.208   3.843   3.874
 4002SOL    HW212296   2.221   3.694   3.940
 4003SOL     OW12297   2.797   3.960   4.204
 4003SOL    HW112298   2.749   4.001   4.126
 4003SOL    HW212299   2.896   3.958   4.185
 4004SOL     OW12300   2.938   4.407   5.188
 4004SOL    HW112301   2.858   4.346   5.191
 4004SOL    HW212302   3.019   4.354   5.164
 4005SOL     OW12303   3.089   5.294   4.517
 4005SOL    HW112304   3.110   5.368   4.452
 4005SOL    HW212305   3.157   5.294   4.590
 4006SOL     OW12306   2.321   4.876   4.465
 4006SOL    HW112307   2.250   4.849   4.530
 4006SOL    HW212308   2.295   4.848   4.372
 4007SOL     OW12309   3.133   5.521   4.315
 4007SOL    HW112310   3.177   5.585   4.251
 4007SOL    HW212311   3.083   5.573   4.385
 4008SOL     OW12312   2.894   4.273   3.740
 4008SOL    HW112313   2.853   4.355   3.701
 4008SOL    HW212314   2.958   4.299   3.813
 4009SOL     OW12315   1.940   4.280   5.110
 4009SOL    HW112316   2.032   4.279   5.069
 4009SOL    HW212317   1.934   4.354   5.177
 4010SOL     OW12318   2.423   3.946   4.871
 4010SOL    HW112319   2.461   3.862   4.908
 4010SOL    HW212320   2.335   3.965   4.915
 4011SOL     OW12321   2.728   4.178   4.366
 4011SOL    HW112322   2.696   4.250   4.304
 4011SOL    HW212323   2.752   4.097   4.313
 4012SOL     OW12324   2.879   3.763   4.477
 4012SOL    HW112325   2.807   3.768   4.408
 4012SOL    HW212326   2.855   3.694   4.546
 4013SOL     OW12327   3.291   4.897   4.591
 4013SOL    HW112328   3.236   4.813   4.584
 4013SOL    HW212329   3.317   4.926   4.499
 4014SOL     OW12330   3.328   4.314   4.716
 4014SOL    HW112331   3.298   4.219   4.723
 4014SOL    HW212332   3.401   4.330   4.782
 4015SOL     OW12333   3.719   4.557   4.101
 4015SOL    HW112334   3.761   4.493   4.165
 4015SOL    HW212335   3.681   4.506   4.023
 4016SOL     OW12336   2.350   5.109   3.898
 4016SOL    HW112337   2.263   5.094   3.945
 4016SOL    HW212338   2.333   5.135   3.803
 4017SOL     OW12339   3.526   5.004   4.381
 4017SOL    HW112340   3.625   5.012   4.395
 4017SOL    HW212341   3.481   5.088   4.412
 4018SOL     OW12342   3.252   4.299   3.802
 4018SOL    HW112343   3.198   4.278   3.883
 4018SOL    HW212344   3.343   4.258   3.811
 4019SOL     OW12345   2.389   3.980   4.052
 4019SOL    HW112346   2.416   3.921   3.977
 4019SOL    HW212347   2.389   4.075   4.021
 4020SOL     OW12348   3.616   4.947   5.312
 4020SOL    HW112349   3.707   4.908   5.299
 4020SOL    HW212350   3.624   5.043   5.336
 4021SOL     OW12351   2.926   5.071   5.064
 4021SOL    HW112352   2.846   5.048   5.119
 4021SOL    HW212353   3.009   5.045   5.113
 4022SOL     OW12354   3.454   5.353   5.349
 4022SOL    HW112355   3.481   5.387   5.259
 4022SOL    HW212356   3.533   5.315   5.395
 4023SOL     OW12357   2.973   4.919   4.824
 4023SOL    HW112358   2.933   4.963   4.905
 4023SOL    HW212359   2.932   4.956   4.741
 4024SOL     OW12360   3.500   4.823   4.803
 4024SOL    HW112361   3.505   4.904   4.862
 4024SOL    HW212362   3.414   4.825   4.752
 4025SOL     OW12363   2.777   3.813   5.126
 4025SOL    HW112364   2.802   3.793   5.031
 4025SOL    HW212365   2.849   3.869   5.168
 4026SOL     OW12366   2.842   4.840   5.443
 4026SOL    HW112367   2.743   4.846   5.453
 4026SOL    HW212368   2.865   4.760   5.387
 4027SOL     OW12369   2.567   4.774   4.092
 4027SOL    HW112370   2.553   4.781   4.191
 4027SOL    HW212371   2.651   4.723   4.074
 4028SOL     OW12372   2.272   4.537   4.975
 4028SOL    HW112373   2.358   4.549   5.025
 4028SOL    HW212374   2.230   4.450   5.002
 4029SOL     OW12375   3.136   4.110   4.986
 4029SOL    HW112376   3.157   4.184   5.050
 4029SOL    HW212377   3.047   4.127   4.943
 4030SOL     OW12378   1.926   5.288   5.055
 4030SOL    HW112379   1.880   5.370   5.021
 4030SOL    HW212380   2.024   5.307   5.064
 4031SOL     OW12381   2.229   4.824   4.225
 4031SOL    HW112382   2.222   4.907   4.169
 4031SOL    HW212383   2.233   4.744   4.165
 4032SOL     OW12384   2.428   4.261   4.589
 4032SOL    HW112385   2.440   4.327   4.515
 4032SOL    HW212386   2.474   4.295   4.672
 4033SOL     OW12387   3.114   5.072   4.112
 4033SOL    HW112388   3.164   5.149   4.152
 4033SOL    HW212389   3.019   5.074   4.144
 4034SOL     OW12390   3.134   5.169   4.866
 4034SOL    HW112391   3.181   5.182   4.953
 4034SOL    HW212392   3.068   5.095   4.875
 4035SOL     OW12393   3.444   4.363   4.196
 4035SOL    HW112394   3.413   4.424   4.269
 4035SOL    HW212395   3.494   4.415   4.127
 4036SOL     OW12396   2.216   5.234   5.053
 4036SOL    HW112397   2.195   5.190   4.966
 4036SOL    HW212398   2.313   5.260   5.056
 4037SOL     OW12399   2.264   4.475   5.322
 4037SOL    HW112400   2.332   4.530   5.275
 4037SOL    HW212401   2.304   4.387   5.349
 4038SOL     OW12402   3.449   4.503   5.394
 4038SOL    HW112403   3.357   4.541   5.389
 4038SOL    HW212404   3.509   4.550   5.329
 4039SOL     OW12405   2.875   3.829   5.494
 4039SOL    HW112406   2.881   3.914   5.442
 4039SOL    HW212407   2.907   3.753   5.437
 4040SOL     OW12408   2.366   3.774   5.464
 4040SOL    HW112409   2.324   3.717   5.394
 4040SOL    HW212410   2.300   3.843   5.496
 4041SOL     OW12411   2.435   4.594   4.753
 4041SOL    HW112412   2.479   4.683   4.744
 4041SOL    HW212413   2.372   4.594   4.830
 4042SOL     OW12414   3.222   4.586   4.769
 4042SOL    HW112415   3.147   4.586   4.703
 4042SOL    HW212416   3.259   4.494   4.778
 4043SOL     OW12417   3.071   4.249   3.999
 4043SOL    HW112418   3.084   4.165   4.053
 4043SOL    HW212419   3.042   4.323   4.059
 4044SOL     OW12420   2.169   3.937   4.955
 4044SOL    HW112421   2.146   3.974   5.045
 4044SOL    HW212422   2.139   3.842   4.949
 4045SOL     OW12423   1.899   5.034   5.006
 4045SOL    HW112424   1.952   4.985   5.074
 4045SOL    HW212425   1.921   5.132   5.011
 4046SOL     OW12426   2.594   4.358   4.788
 4046SOL    HW112427   2.653   4.332   4.712
 4046SOL    HW212428   2.566   4.454   4.777
 4047SOL     OW12429   3.590   4.659   5.578
 4047SOL    HW112430   3.544   4.652   5.489
 4047SOL    HW212431   3.528   4.703   5.644
 4048SOL     OW12432   2.169   3.787   4.342
 4048SOL    HW112433   2.158   3.881   4.375
 4048SOL    HW212434   2.164   3.724   4.419
 4049SOL     OW12435   3.484   4.091   4.098
 4049SOL    HW112436   3.486   4.015   4.162
 4049SOL    HW212437   3.436   4.168   4.138
 4050SOL     OW12438   2.885   4.490   4.690
 4050SOL    HW112439   2.900   4.511   4.786
 4050SOL    HW212440   2.855   4.395   4.681
 4051SOL     OW12441   2.842   5.297   5.424
 4051SOL    HW112442   2.822   5.341   5.336
 4051SOL    HW212443   2.881   5.206   5.408
 4052SOL     OW12444   3.721   5.242   5.329
 4052SOL    HW112445   3.735   5.269   5.234
 4052SOL    HW212446   3.804   5.264   5.382
 4053SOL     OW12447   2.212   4.622   5.528
 4053SOL    HW112448   2.288   4.666   5.576
 4053SOL    HW212449   2.247   4.575   5.446
 4054SOL     OW12450   3.402   3.998   3.849
 4054SOL    HW112451   3.341   3.923   3.872
 4054SOL    HW212452   3.424   4.050   3.932
 4055SOL     OW12453   3.165   4.562   3.766
 4055SOL    HW112454   3.199   4.469   3.781
 4055SOL    HW212455   3.183   4.589   3.671
 4056SOL     OW12456   2.930   5.057   4.573
 4056SOL    HW112457   2.937   4.973   4.518
 4056SOL    HW212458   2.992   5.126   4.537
 4057SOL     OW12459   2.181   4.534   4.673
 4057SOL    HW112460   2.274   4.570   4.678
 4057SOL    HW212461   2.175   4.449   4.725
 4058SOL     OW12462   2.201   4.233   4.730
 4058SOL    HW112463   2.149   4.150   4.713
 4058SOL    HW212464   2.278   4.238   4.666
 4059SOL     OW12465   3.000   4.104   5.402
 4059SOL    HW112466   2.955   4.167   5.466
 4059SOL    HW212467   3.093   4.135   5.385
 4060SOL     OW12468   3.022   3.931   5.201
 4060SOL    HW112469   3.022   3.995   5.278
 4060SOL    HW212470   3.050   3.979   5.118
 4061SOL     OW12471   1.870   5.050   3.924
 4061SOL    HW112472   1.777   5.071   3.893
 4061SOL    HW212473   1.880   4.951   3.937
 4062SOL     OW12474   1.950   5.525   4.651
 4062SOL    HW112475   1.908   5.439   4.624
 4062SOL    HW212476   2.044   5.528   4.617
 4063SOL     OW12477   2.366   5.292   4.634
 4063SOL    HW112478   2.432   5.366   4.643
 4063SOL    HW212479   2.410   5.213   4.592
 4064SOL     OW12480   2.864   4.520   4.962
 4064SOL    HW112481   2.905   4.488   5.048
 4064SOL    HW212482   2.768   4.493   4.959
 4065SOL     OW12483   1.902   4.268   4.838
 4065SOL    HW112484   1.987   4.235   4.797
 4065SOL    HW212485   1.915   4.283   4.936
 4066SOL     OW12486   2.051   4.244   5.446
 4066SOL    HW112487   2.110   4.204   5.376
 4066SOL    HW212488   1.993   4.315   5.405
 4067SOL     OW12489   3.231   4.674   5.384
 4067SOL    HW112490   3.270   4.763   5.404
 4067SOL    HW212491   3.241   4.654   5.287
 4068SOL     OW12492   2.677   4.296   4.049
 4068SOL    HW112493   2.684   4.207   4.003
 4068SOL    HW212494   2.583   4.330   4.041
 4069SOL     OW12495   3.519   4.328   4.930
 4069SOL    HW112496   3.481   4.259   4.992
 4069SOL    HW212497   3.601   4.292   4.886
 4070SOL     OW12498   2.114   5.288   5.468
 4070SOL    HW112499   2.084   5.345   5.544
 4070SOL    HW212500   2.107   5.191   5.494
 4071SOL     OW12501   2.533   4.188   4.993
 4071SOL    HW112502   2.499   4.099   4.963
 4071SOL    HW212503   2.559   4.242   4.913
 4072SOL     OW12504   2.792   5.402   5.189
 4072SOL    HW112505   2.768   5.384   5.094
 4072SOL    HW212506   2.822   5.496   5.199
 4073SOL     OW12507   2.335   4.224   3.915
 4073SOL    HW112508   2.396   4.304   3.919
 4073SOL    HW212509   2.240   4.255   3.922
 4074SOL     OW12510   2.021   4.861   5.190
 4074SOL    HW112511   2.043   4.800   5.266
 4074SOL    HW212512   2.031   4.812   5.104
 4075SOL     OW12513   3.209   4.783   4.958
 4075SOL    HW112514   3.233   4.720   4.884
 4075SOL    HW212515   3.119   4.823   4.940
 4076SOL     OW12516   3.164   4.579   4.033
 4076SOL    HW112517   3.078   4.548   4.075
 4076SOL    HW212518   3.160   4.565   3.934
 4077SOL     OW12519   3.621   5.471   4.878
 4077SOL    HW112520   3.682   5.501   4.805
 4077SOL    HW212521   3.583   5.382   4.856
 4078SOL     OW12522   3.114   5.455   4.852
 4078SOL    HW112523   3.198   5.460   4.798
 4078SOL    HW212524   3.091   5.359   4.870
 4079SOL     OW12525   1.945   4.982   4.746
 4079SOL    HW112526   1.940   4.981   4.846
 4079SOL    HW212527   1.862   4.941   4.708
 4080SOL     OW12528   2.550   5.386   5.440
 4080SOL    HW112529   2.494   5.467   5.449
 4080SOL    HW212530   2.602   5.390   5.354
 4081SOL     OW12531   3.588   3.859   4.247
 4081SOL    HW112532   3.661   3.842   4.180
 4081SOL    HW212533   3.557   3.772   4.285
 4082SOL     OW12534   3.250   5.297   4.201
 4082SOL    HW112535   3.317   5.309   4.127
 4082SOL    HW212536   3.210   5.386   4.224
 4083SOL     OW12537   1.992   5.518   5.575
 4083SOL    HW112538   1.951   5.444   5.628
 4083SOL    HW212539   2.056   5.569   5.633
 4084SOL     OW12540   3.142   4.651   4.396
 4084SOL    HW112541   3.202   4.570   4.398
 4084SOL    HW212542   3.182   4.720   4.336
 4085SOL     OW12543   2.692   4.997   5.146
 4085SOL    HW112544   2.687   5.030   5.241
 4085SOL    HW212545   2.606   5.016   5.100
 4086SOL     OW12546   2.534   5.340   3.878
 4086SOL    HW112547   2.543   5.350   3.779
 4086SOL    HW212548   2.494   5.251   3.899
 4087SOL     OW12549   3.512   5.444   5.118
 4087SOL    HW112550   3.565   5.454   5.034
 4087SOL    HW212551   3.485   5.534   5.152
 4088SOL     OW12552   3.703   3.899   4.687
 4088SOL    HW112553   3.742   3.814   4.651
 4088SOL    HW212554   3.605   3.901   4.668
 4089SOL     OW12555   2.125   4.050   4.444
 4089SOL    HW112556   2.046   4.101   4.410
 4089SOL    HW212557   2.116   4.035   4.542
 4090SOL     OW12558   3.056   5.336   3.755
 4090SOL    HW112559   3.062   5.243   3.792
 4090SOL    HW212560   2.997   5.336   3.675
 4091SOL     OW12561   2.684   4.726   5.096
 4091SOL    HW112562   2.724   4.725   5.004
 4091SOL    HW212563   2.694   4.818   5.136
 4092SOL     OW12564   2.778   4.634   4.015
 4092SOL    HW112565   2.841   4.672   3.947
 4092SOL    HW212566   2.818   4.551   4.054
 4093SOL     OW12567   3.366   5.331   3.768
 4093SOL    HW112568   3.274   5.368   3.775
 4093SOL    HW212569   3.404   5.351   3.678
 4094SOL     OW12570   2.234   5.012   5.214
 4094SOL    HW112571   2.221   5.105   5.180
 4094SOL    HW212572   2.150   4.960   5.201
 4095SOL     OW12573   3.476   5.016   5.013
 4095SOL    HW112574   3.536   5.019   5.093
 4095SOL    HW212575   3.401   5.080   5.026
 4096SOL     OW12576   2.901   4.822   4.420
 4096SOL    HW112577   2.831   4.775   4.474
 4096SOL    HW212578   2.960   4.754   4.377
 4097SOL     OW12579   2.876   3.960   4.695
 4097SOL    HW112580   2.868   3.924   4.602
 4097SOL    HW212581   2.874   3.884   4.760
 4098SOL     OW12582   2.452   5.211   4.215
 4098SOL    HW112583   2.494   5.153   4.145
 4098SOL    HW212584   2.408   5.290   4.171
 4099SOL     OW12585   3.571   4.109   5.105
 4099SOL    HW112586   3.644   4.178   5.109
 4099SOL    HW212587   3.599   4.034   5.046
 4100SOL     OW12588   2.117   5.072   4.014
 4100SOL    HW112589   2.021   5.073   3.987
 4100SOL    HW212590   2.129   5.125   4.098
 4101SOL     OW12591   1.967   4.737   5.450
 4101SOL    HW112592   1.890   4.704   5.504
 4101SOL    HW212593   2.052   4.707   5.492
 4102SOL     OW12594   2.534   3.927   5.213
 4102SOL    HW112595   2.624   3.911   5.173
 4102SOL    HW212596   2.542   3.932   5.312
 4103SOL     OW12597   1.937   4.069   3.757
 4103SOL    HW112598   1.845   4.041   3.728
 4103SOL    HW212599   1.968   4.146   3.701
 4104SOL     OW12600   3.302   4.580   5.122
 4104SOL    HW112601   3.245   4.632   5.059
 4104SOL    HW212602   3.398   4.592   5.098
 4105SOL     OW12603   1.934   3.890   4.042
 4105SOL    HW112604   1.917   3.973   3.988
 4105SOL    HW212605   2.024   3.853   4.020
 4106SOL     OW12606   3.045   5.059   3.843
 4106SOL    HW112607   2.946   5.048   3.845
 4106SOL    HW212608   3.079   5.074   3.936
 4107SOL     OW12609   2.475   4.566   5.155
 4107SOL    HW112610   2.531   4.647   5.138
 4107SOL    HW212611   2.534   4.486   5.158
 4108SOL     OW12612   3.355   5.491   4.683
 4108SOL    HW112613   3.388   5.555   4.614
 4108SOL    HW212614   3.421   5.485   4.758
 4109SOL     OW12615   2.578   4.289   5.432
 4109SOL    HW112616   2.597   4.354   5.506
 4109SOL    HW212617   2.638   4.209   5.441
 4110SOL     OW12618   3.312   4.944   5.357
 4110SOL    HW112619   3.303   4.934   5.456
 4110SOL    HW212620   3.408   4.937   5.331
 4111SOL     OW12621   2.252   5.465   5.284
 4111SOL    HW112622   2.161   5.506   5.282
 4111SOL    HW212623   2.245   5.371   5.316
 4112SOL     OW12624   3.536   4.607   4.978
 4112SOL    HW112625   3.509   4.518   4.941
 4112SOL    HW212626   3.537   4.675   4.905
 4113SOL     OW12627   3.087   4.049   4.173
 4113SOL    HW112628   3.152   3.975   4.162
 4113SOL    HW212629   3.107   4.099   4.257
 4114SOL     OW12630   2.456   4.469   4.376
 4114SOL    HW112631   2.506   4.554   4.357
 4114SOL    HW212632   2.368   4.471   4.328
 4115SOL     OW12633   3.639   4.066   5.366
 4115SOL    HW112634   3.622   4.097   5.272
 4115SOL    HW212635   3.555   4.029   5.404
 4116SOL     OW12636   3.592   4.658   5.241
 4116SOL    HW112637   3.630   4.749   5.256
 4116SOL    HW212638   3.584   4.641   5.142
 4117SOL     OW12639   2.721   5.098   3.740
 4117SOL    HW112640   2.675   5.113   3.828
 4117SOL    HW212641   2.765   5.183   3.710
 4118SOL     OW12642   2.523   5.514   4.677
 4118SOL    HW112643   2.477   5.602   4.664
 4118SOL    HW212644   2.622   5.526   4.670
 4119SOL     OW12645   2.721   4.680   4.585
 4119SOL    HW112646   2.775   4.611   4.633
 4119SOL    HW212647   2.689   4.749   4.651
 4120SOL     OW12648   2.945   4.708   3.811
 4120SOL    HW112649   2.922   4.761   3.729
 4120SOL    HW212650   3.026   4.652   3.792
 4121SOL     OW12651   3.723   5.293   4.575
 4121SOL    HW112652   3.652   5.281   4.505
 4121SOL    HW212653   3.724   5.214   4.635
 4122SOL     OW12654   2.083   5.038   5.568
 4122SOL    HW112655   2.018   4.965   5.547
 4122SOL    HW212656   2.087   5.052   5.666
 4123SOL     OW12657   1.941   4.964   4.377
 4123SOL    HW112658   1.940   4.917   4.465
 4123SOL    HW212659   2.023   4.936   4.326
 4124SOL     OW12660   2.534   5.115   5.348
 4124SOL    HW112661   2.456   5.065   5.386
 4124SOL    HW212662   2.531   5.210   5.379
 4125SOL     OW12663   3.686   3.916   4.951
 4125SOL    HW112664   3.682   3.826   4.995
 4125SOL    HW212665   3.689   3.905   4.852
 4126SOL     OW12666   2.290   4.148   4.244
 4126SOL    HW112667   2.320   4.076   4.182
 4126SOL    HW212668   2.251   4.108   4.327
 4127SOL     OW12669   3.567   5.211   4.828
 4127SOL    HW112670   3.474   5.186   4.801
 4127SOL    HW212671   3.593   5.161   4.910
 4128SOL     OW12672   2.179   4.271   5.004
 4128SOL    HW112673   2.217   4.212   5.076
 4128SOL    HW212674   2.219   4.245   4.916
 4129SOL     OW12675   2.674   5.310   4.411
 4129SOL    HW112676   2.706   5.320   4.317
 4129SOL    HW212677   2.595   5.248   4.413
 4130SOL     OW12678   3.286   3.938   4.836
 4130SOL    HW112679   3.338   3.873   4.891
 4130SOL    HW212680   3.237   4.001   4.897
 4131SOL     OW12681   2.863   3.758   4.878
 4131SOL    HW112682   2.800   3.686   4.847
 4131SOL    HW212683   2.956   3.722   4.878
 4132SOL     OW12684   2.632   5.054   4.025
 4132SOL    HW112685   2.586   4.967   4.042
 4132SOL    HW212686   2.723   5.051   4.066
 4133SOL     OW12687   2.480   5.291   5.008
 4133SOL    HW112688   2.475   5.373   5.065
 4133SOL    HW212689   2.569   5.288   4.963
 4134SOL     OW12690   3.214   3.776   3.892
 4134SOL    HW112691   3.249   3.735   3.808
 4134SOL    HW212692   3.124   3.738   3.912
 4135SOL     OW12693   3.162   4.177   4.415
 4135SOL    HW112694   3.103   4.257   4.419
 4135SOL    HW212695   3.177   4.142   4.508
 4136SOL     OW12696   3.455   3.945   4.606
 4136SOL    HW112697   3.371   3.944   4.660
 4136SOL    HW212698   3.457   4.028   4.550
 4137SOL     OW12699   1.901   4.801   4.024
 4137SOL    HW112700   2.000   4.790   4.015
 4137SOL    HW212701   1.861   4.715   4.056
 4138SOL     OW12702   2.737   5.370   4.061
 4138SOL    HW112703   2.660   5.335   4.007
 4138SOL    HW212704   2.705   5.441   4.123
 4139SOL     OW12705   2.092   4.352   5.699
 4139SOL    HW112706   1.999   4.350   5.736
 4139SOL    HW212707   2.093   4.313   5.607
 4140SOL     OW12708   3.617   4.331   5.817
 4140SOL    HW112709   3.605   4.318   5.718
 4140SOL    HW212710   3.587   4.250   5.866
 4141SOL     OW12711   2.093   5.437   6.069
 4141SOL    HW112712   2.127   5.514   6.123
 4141SOL    HW212713   2.137   5.437   5.979
 4142SOL     OW12714   2.468   4.688   5.709
 4142SOL    HW112715   2.475   4.772   5.655
 4142SOL    HW212716   2.514   4.701   5.797
 4143SOL     OW12717   3.704   5.491   5.945
 4143SOL    HW112718   3.758   5.462   6.025
 4143SOL    HW212719   3.734   5.581   5.916
 4144SOL     OW12720   1.889   5.320   5.703
 4144SOL    HW112721   1.870   5.224   5.724
 4144SOL    HW212722   1.856   5.378   5.778
 4145SOL     OW12723   3.551   4.646   6.198
 4145SOL    HW112724   3.646   4.617   6.206
 4145SOL    HW212725   3.543   4.711   6.123
 4146SOL     OW12726   3.503   4.832   6.018
 4146SOL    HW112727   3.589   4.834   5.966
 4146SOL    HW212728   3.517   4.879   6.106
 4147SOL     OW12729   3.387   4.723   5.776
 4147SOL    HW112730   3.324   4.647   5.789
 4147SOL    HW212731   3.435   4.741   5.862
 4148SOL     OW12732   2.460   4.453   5.856
 4148SOL    HW112733   2.484   4.522   5.788
 4148SOL    HW212734   2.382   4.486   5.910
 4149SOL     OW12735   2.727   4.072   5.781
 4149SOL    HW112736   2.786   4.135   5.732
 4149SOL    HW212737   2.746   3.978   5.752
 4150SOL     OW12738   2.183   4.667   5.828
 4150SOL    HW112739   2.265   4.706   5.786
 4150SOL    HW212740   2.156   4.585   5.779
 4151SOL     OW12741   2.973   5.500   5.823
 4151SOL    HW112742   2.913   5.438   5.873
 4151SOL    HW212743   3.004   5.456   5.738
 4152SOL     OW12744   3.494   5.101   5.667
 4152SOL    HW112745   3.462   5.195   5.657
 4152SOL    HW212746   3.418   5.038   5.655
 4153SOL     OW12747   2.326   5.467   5.909
 4153SOL    HW112748   2.359   5.506   5.995
 4153SOL    HW212749   2.402   5.460   5.844
 4154SOL     OW12750   2.476   3.846   5.703
 4154SOL    HW112751   2.574   3.824   5.710
 4154SOL    HW212752   2.445   3.829   5.610
 4155SOL     OW12753   3.296   4.912   5.627
 4155SOL    HW112754   3.328   4.836   5.684
 4155SOL    HW212755   3.204   4.939   5.657
 4156SOL     OW12756   2.159   3.759   5.757
 4156SOL    HW112757   2.208   3.843   5.736
 4156SOL    HW212758   2.221   3.694   5.802
 4157SOL     OW12759   2.894   4.273   5.602
 4157SOL    HW112760   2.853   4.355   5.563
 4157SOL    HW212761   2.958   4.299   5.675
 4158SOL     OW12762   3.719   4.557   5.963
 4158SOL    HW112763   3.761   4.493   6.027
 4158SOL    HW212764   3.681   4.506   5.885
 4159SOL     OW12765   2.350   5.109   5.760
 4159SOL    HW112766   2.263   5.094   5.807
 4159SOL    HW212767   2.333   5.135   5.665
 4160SOL     OW12768   3.526   5.004   6.243
 4160SOL    HW112769   3.625   5.012   6.257
 4160SOL    HW212770   3.481   5.088   6.274
 4161SOL     OW12771   3.252   4.299   5.664
 4161SOL    HW112772   3.198   4.278   5.745
 4161SOL    HW212773   3.343   4.258   5.673
 4162SOL     OW12774   2.389   3.980   5.914
 4162SOL    HW112775   2.416   3.921   5.839
 4162SOL    HW212776   2.389   4.075   5.883
 4163SOL     OW12777   2.229   4.824   6.087
 4163SOL    HW112778   2.222   4.907   6.031
 4163SOL    HW212779   2.233   4.744   6.027
 4164SOL     OW12780   3.071   4.249   5.861
 4164SOL    HW112781   3.084   4.165   5.915
 4164SOL    HW212782   3.042   4.323   5.921
 4165SOL     OW12783   2.169   3.787   6.204
 4165SOL    HW112784   2.158   3.881   6.237
 4165SOL    HW212785   2.164   3.724   6.281
 4166SOL     OW12786   3.402   3.998   5.711
 4166SOL    HW112787   3.341   3.923   5.734
 4166SOL    HW212788   3.424   4.050   5.794
 4167SOL     OW12789   3.165   4.562   5.628
 4167SOL    HW112790   3.199   4.469   5.643
 4167SOL    HW212791   3.183   4.589   5.533
 4168SOL     OW12792   1.870   5.050   5.786
 4168SOL    HW112793   1.777   5.071   5.755
 4168SOL    HW212794   1.880   4.951   5.799
 4169SOL     OW12795   2.677   4.296   5.911
 4169SOL    HW112796   2.684   4.207   5.865
 4169SOL    HW212797   2.583   4.330   5.903
 4170SOL     OW12798   2.335   4.224   5.777
 4170SOL    HW112799   2.396   4.304   5.781
 4170SOL    HW212800   2.240   4.255   5.784
 4171SOL     OW12801   3.588   3.859   6.109
 4171SOL    HW112802   3.661   3.842   6.042
 4171SOL    HW212803   3.557   3.772   6.147
 4172SOL     OW12804   2.534   5.340   5.740
 4172SOL    HW112805   2.543   5.350   5.641
 4172SOL    HW212806   2.494   5.251   5.761
 4173SOL     OW12807   3.056   5.336   5.617
 4173SOL    HW112808   3.062   5.243   5.654
 4173SOL    HW212809   2.997   5.336   5.537
 4174SOL     OW12810   2.778   4.634   5.877
 4174SOL    HW112811   2.841   4.672   5.809
 4174SOL    HW212812   2.818   4.551   5.916
 4175SOL     OW12813   3.366   5.331   5.630
 4175SOL    HW112814   3.274   5.368   5.637
 4175SOL    HW212815   3.404   5.351   5.540
 4176SOL     OW12816   2.901   4.822   6.282
 4176SOL    HW112817   2.831   4.775   6.336
 4176SOL    HW212818   2.960   4.754   6.239
 4177SOL     OW12819   2.117   5.072   5.876
 4177SOL    HW112820   2.021   5.073   5.849
 4177SOL    HW212821   2.129   5.125   5.960
 4178SOL     OW12822   1.937   4.069   5.619
 4178SOL    HW112823   1.845   4.041   5.590
 4178SOL    HW212824   1.968   4.146   5.563
 4179SOL     OW12825   1.934   3.890   5.904
 4179SOL    HW112826   1.917   3.973   5.850
 4179SOL    HW212827   2.024   3.853   5.882
 4180SOL     OW12828   3.045   5.059   5.705
 4180SOL    HW112829   2.946   5.048   5.707
 4180SOL    HW212830   3.079   5.074   5.798
 4181SOL     OW12831   3.087   4.049   6.035
 4181SOL    HW112832   3.152   3.975   6.024
 4181SOL    HW212833   3.107   4.099   6.119
 4182SOL     OW12834   2.721   5.098   5.602
 4182SOL    HW112835   2.675   5.113   5.690
 4182SOL    HW212836   2.765   5.183   5.572
 4183SOL     OW12837   2.945   4.708   5.673
 4183SOL    HW112838   2.922   4.761   5.591
 4183SOL    HW212839   3.026   4.652   5.654
 4184SOL     OW12840   3.214   3.776   5.754
 4184SOL    HW112841   3.249   3.735   5.670
 4184SOL    HW212842   3.124   3.738   5.774
 4185SOL     OW12843   1.901   4.801   5.886
 4185SOL    HW112844   2.000   4.790   5.877
 4185SOL    HW212845   1.861   4.715   5.918
 4186SOL     OW12846   2.737   5.370   5.923
 4186SOL    HW112847   2.660   5.335   5.869
 4186SOL    HW212848   2.705   5.441   5.985
 4187SOL     OW12849   2.092   6.214   0.113
 4187SOL    HW112850   1.999   6.212   0.150
 4187SOL    HW212851   2.093   6.175   0.021
 4188SOL     OW12852   2.087   5.861   0.996
 4188SOL    HW112853   2.122   5.844   1.088
 4188SOL    HW212854   1.999   5.816   0.984
 4189SOL     OW12855   1.881   5.954   0.647
 4189SOL    HW112856   1.799   5.997   0.686
 4189SOL    HW212857   1.853   5.881   0.584
 4190SOL     OW12858   2.300   5.978   1.499
 4190SOL    HW112859   2.382   5.922   1.508
 4190SOL    HW212860   2.219   5.920   1.503
 4191SOL     OW12861   3.465   6.033   0.737
 4191SOL    HW112862   3.391   6.079   0.687
 4191SOL    HW212863   3.516   6.101   0.790
 4192SOL     OW12864   3.456   5.700   1.480
 4192SOL    HW112865   3.438   5.767   1.408
 4192SOL    HW212866   3.453   5.746   1.569
 4193SOL     OW12867   2.671   5.590   0.502
 4193SOL    HW112868   2.711   5.681   0.493
 4193SOL    HW212869   2.571   5.598   0.508
 4194SOL     OW12870   2.179   5.837   1.801
 4194SOL    HW112871   2.250   5.908   1.807
 4194SOL    HW212872   2.091   5.876   1.829
 4195SOL     OW12873   3.143   5.931   0.944
 4195SOL    HW112874   3.057   5.881   0.931
 4195SOL    HW212875   3.205   5.877   1.000
 4196SOL     OW12876   2.412   5.782   0.885
 4196SOL    HW112877   2.407   5.777   0.985
 4196SOL    HW212878   2.414   5.878   0.856
 4197SOL     OW12879   2.064   5.871   1.498
 4197SOL    HW112880   1.984   5.931   1.485
 4197SOL    HW212881   2.054   5.822   1.584
 4198SOL     OW12882   3.262   5.693   0.426
 4198SOL    HW112883   3.238   5.656   0.336
 4198SOL    HW212884   3.361   5.709   0.430
 4199SOL     OW12885   3.409   5.808   1.729
 4199SOL    HW112886   3.404   5.845   1.821
 4199SOL    HW212887   3.337   5.739   1.717
 4200SOL     OW12888   2.476   5.708   0.117
 4200SOL    HW112889   2.574   5.686   0.124
 4200SOL    HW212890   2.445   5.691   0.024
 4201SOL     OW12891   2.643   5.850   1.749
 4201SOL    HW112892   2.710   5.789   1.792
 4201SOL    HW212893   2.570   5.869   1.814
 4202SOL     OW12894   3.213   6.176   1.433
 4202SOL    HW112895   3.241   6.133   1.518
 4202SOL    HW212896   3.238   6.272   1.434
 4203SOL     OW12897   2.401   5.650   0.512
 4203SOL    HW112898   2.320   5.651   0.570
 4203SOL    HW212899   2.404   5.733   0.457
 4204SOL     OW12900   2.797   5.822   0.480
 4204SOL    HW112901   2.749   5.863   0.402
 4204SOL    HW212902   2.896   5.820   0.461
 4205SOL     OW12903   2.423   5.808   1.147
 4205SOL    HW112904   2.461   5.724   1.184
 4205SOL    HW212905   2.335   5.827   1.191
 4206SOL     OW12906   2.879   5.625   0.753
 4206SOL    HW112907   2.807   5.630   0.684
 4206SOL    HW212908   2.855   5.556   0.822
 4207SOL     OW12909   2.389   5.842   0.328
 4207SOL    HW112910   2.416   5.783   0.253
 4207SOL    HW212911   2.389   5.937   0.297
 4208SOL     OW12912   2.777   5.675   1.402
 4208SOL    HW112913   2.802   5.655   1.307
 4208SOL    HW212914   2.849   5.731   1.444
 4209SOL     OW12915   2.875   5.691   1.770
 4209SOL    HW112916   2.881   5.776   1.718
 4209SOL    HW212917   2.907   5.615   1.713
 4210SOL     OW12918   2.366   5.636   1.740
 4210SOL    HW112919   2.324   5.579   1.670
 4210SOL    HW212920   2.300   5.705   1.772
 4211SOL     OW12921   2.169   5.799   1.231
 4211SOL    HW112922   2.146   5.836   1.321
 4211SOL    HW212923   2.139   5.704   1.225
 4212SOL     OW12924   2.594   6.220   1.064
 4212SOL    HW112925   2.653   6.194   0.988
 4212SOL    HW212926   2.566   6.316   1.053
 4213SOL     OW12927   2.169   5.649   0.618
 4213SOL    HW112928   2.158   5.743   0.651
 4213SOL    HW212929   2.164   5.586   0.695
 4214SOL     OW12930   3.402   5.860   0.125
 4214SOL    HW112931   3.341   5.785   0.148
 4214SOL    HW212932   3.424   5.912   0.208
 4215SOL     OW12933   2.201   6.095   1.006
 4215SOL    HW112934   2.149   6.012   0.989
 4215SOL    HW212935   2.278   6.100   0.942
 4216SOL     OW12936   3.022   5.793   1.477
 4216SOL    HW112937   3.022   5.857   1.554
 4216SOL    HW212938   3.050   5.841   1.394
 4217SOL     OW12939   2.765   5.672   0.133
 4217SOL    HW112940   2.816   5.673   0.047
 4217SOL    HW212941   2.821   5.630   0.204
 4218SOL     OW12942   3.588   5.721   0.523
 4218SOL    HW112943   3.661   5.704   0.456
 4218SOL    HW212944   3.557   5.634   0.561
 4219SOL     OW12945   3.703   5.761   0.963
 4219SOL    HW112946   3.742   5.676   0.927
 4219SOL    HW212947   3.605   5.763   0.944
 4220SOL     OW12948   2.876   5.822   0.971
 4220SOL    HW112949   2.868   5.786   0.878
 4220SOL    HW212950   2.874   5.746   1.036
 4221SOL     OW12951   2.534   5.789   1.489
 4221SOL    HW112952   2.624   5.773   1.449
 4221SOL    HW212953   2.542   5.794   1.588
 4222SOL     OW12954   1.937   5.931   0.033
 4222SOL    HW112955   1.845   5.903   0.004
 4222SOL    HW212956   1.968   6.008  -0.023
 4223SOL     OW12957   1.934   5.752   0.318
 4223SOL    HW112958   1.917   5.835   0.264
 4223SOL    HW212959   2.024   5.715   0.296
 4224SOL     OW12960   3.087   5.911   0.449
 4224SOL    HW112961   3.152   5.837   0.438
 4224SOL    HW212962   3.107   5.961   0.533
 4225SOL     OW12963   3.639   5.928   1.642
 4225SOL    HW112964   3.622   5.959   1.548
 4225SOL    HW212965   3.555   5.891   1.680
 4226SOL     OW12966   3.686   5.778   1.227
 4226SOL    HW112967   3.682   5.688   1.271
 4226SOL    HW212968   3.689   5.767   1.128
 4227SOL     OW12969   3.286   5.800   1.112
 4227SOL    HW112970   3.338   5.735   1.167
 4227SOL    HW212971   3.237   5.863   1.173
 4228SOL     OW12972   2.863   5.620   1.154
 4228SOL    HW112973   2.800   5.548   1.123
 4228SOL    HW212974   2.956   5.584   1.154
 4229SOL     OW12975   3.214   5.638   0.168
 4229SOL    HW112976   3.249   5.597   0.084
 4229SOL    HW212977   3.124   5.600   0.188
 4230SOL     OW12978   3.162   6.039   0.691
 4230SOL    HW112979   3.103   6.119   0.695
 4230SOL    HW212980   3.177   6.004   0.784
 4231SOL     OW12981   3.455   5.807   0.882
 4231SOL    HW112982   3.371   5.806   0.936
 4231SOL    HW212983   3.457   5.890   0.826
 4232SOL     OW12984   2.087   5.861   2.858
 4232SOL    HW112985   2.122   5.844   2.950
 4232SOL    HW212986   1.999   5.816   2.846
 4233SOL     OW12987   1.881   5.954   2.509
 4233SOL    HW112988   1.799   5.997   2.548
 4233SOL    HW212989   1.853   5.881   2.446
 4234SOL     OW12990   3.617   6.193   2.093
 4234SOL    HW112991   3.605   6.180   1.994
 4234SOL    HW212992   3.587   6.112   2.142
 4235SOL     OW12993   2.300   5.978   3.361
 4235SOL    HW112994   2.382   5.922   3.370
 4235SOL    HW212995   2.219   5.920   3.365
 4236SOL     OW12996   3.465   6.033   2.599
 4236SOL    HW112997   3.391   6.079   2.549
 4236SOL    HW212998   3.516   6.101   2.652
 4237SOL     OW12999   3.456   5.700   3.342
 4237SOL    HW113000   3.438   5.767   3.270
 4237SOL    HW213001   3.453   5.746   3.431
 4238SOL     OW13002   2.671   5.590   2.364
 4238SOL    HW113003   2.711   5.681   2.355
 4238SOL    HW213004   2.571   5.598   2.370
 4239SOL     OW13005   2.179   5.837   3.663
 4239SOL    HW113006   2.250   5.908   3.669
 4239SOL    HW213007   2.091   5.876   3.691
 4240SOL     OW13008   3.143   5.931   2.806
 4240SOL    HW113009   3.057   5.881   2.793
 4240SOL    HW213010   3.205   5.877   2.862
 4241SOL     OW13011   2.727   5.934   2.057
 4241SOL    HW113012   2.786   5.997   2.008
 4241SOL    HW213013   2.746   5.840   2.028
 4242SOL     OW13014   2.412   5.782   2.747
 4242SOL    HW113015   2.407   5.777   2.847
 4242SOL    HW213016   2.414   5.878   2.718
 4243SOL     OW13017   2.064   5.871   3.360
 4243SOL    HW113018   1.984   5.931   3.347
 4243SOL    HW213019   2.054   5.822   3.446
 4244SOL     OW13020   3.262   5.693   2.288
 4244SOL    HW113021   3.238   5.656   2.198
 4244SOL    HW213022   3.361   5.709   2.292
 4245SOL     OW13023   3.409   5.808   3.591
 4245SOL    HW113024   3.404   5.845   3.683
 4245SOL    HW213025   3.337   5.739   3.579
 4246SOL     OW13026   2.476   5.708   1.979
 4246SOL    HW113027   2.574   5.686   1.986
 4246SOL    HW213028   2.445   5.691   1.886
 4247SOL     OW13029   2.643   5.850   3.611
 4247SOL    HW113030   2.710   5.789   3.654
 4247SOL    HW213031   2.570   5.869   3.676
 4248SOL     OW13032   3.213   6.176   3.295
 4248SOL    HW113033   3.241   6.133   3.380
 4248SOL    HW213034   3.238   6.272   3.296
 4249SOL     OW13035   2.401   5.650   2.374
 4249SOL    HW113036   2.320   5.651   2.432
 4249SOL    HW213037   2.404   5.733   2.319
 4250SOL     OW13038   2.159   5.621   2.033
 4250SOL    HW113039   2.208   5.705   2.012
 4250SOL    HW213040   2.221   5.556   2.078
 4251SOL     OW13041   2.797   5.822   2.342
 4251SOL    HW113042   2.749   5.863   2.264
 4251SOL    HW213043   2.896   5.820   2.323
 4252SOL     OW13044   2.423   5.808   3.009
 4252SOL    HW113045   2.461   5.724   3.046
 4252SOL    HW213046   2.335   5.827   3.053
 4253SOL     OW13047   2.879   5.625   2.615
 4253SOL    HW113048   2.807   5.630   2.546
 4253SOL    HW213049   2.855   5.556   2.684
 4254SOL     OW13050   2.389   5.842   2.190
 4254SOL    HW113051   2.416   5.783   2.115
 4254SOL    HW213052   2.389   5.937   2.159
 4255SOL     OW13053   2.777   5.675   3.264
 4255SOL    HW113054   2.802   5.655   3.169
 4255SOL    HW213055   2.849   5.731   3.306
 4256SOL     OW13056   2.875   5.691   3.632
 4256SOL    HW113057   2.881   5.776   3.580
 4256SOL    HW213058   2.907   5.615   3.575
 4257SOL     OW13059   2.366   5.636   3.602
 4257SOL    HW113060   2.324   5.579   3.532
 4257SOL    HW213061   2.300   5.705   3.634
 4258SOL     OW13062   2.169   5.799   3.093
 4258SOL    HW113063   2.146   5.836   3.183
 4258SOL    HW213064   2.139   5.704   3.087
 4259SOL     OW13065   2.594   6.220   2.926
 4259SOL    HW113066   2.653   6.194   2.850
 4259SOL    HW213067   2.566   6.316   2.915
 4260SOL     OW13068   2.169   5.649   2.480
 4260SOL    HW113069   2.158   5.743   2.513
 4260SOL    HW213070   2.164   5.586   2.557
 4261SOL     OW13071   3.402   5.860   1.987
 4261SOL    HW113072   3.341   5.785   2.010
 4261SOL    HW213073   3.424   5.912   2.070
 4262SOL     OW13074   2.201   6.095   2.868
 4262SOL    HW113075   2.149   6.012   2.851
 4262SOL    HW213076   2.278   6.100   2.804
 4263SOL     OW13077   3.022   5.793   3.339
 4263SOL    HW113078   3.022   5.857   3.416
 4263SOL    HW213079   3.050   5.841   3.256
 4264SOL     OW13080   3.588   5.721   2.385
 4264SOL    HW113081   3.661   5.704   2.318
 4264SOL    HW213082   3.557   5.634   2.423
 4265SOL     OW13083   3.703   5.761   2.825
 4265SOL    HW113084   3.742   5.676   2.789
 4265SOL    HW213085   3.605   5.763   2.806
 4266SOL     OW13086   2.876   5.822   2.833
 4266SOL    HW113087   2.868   5.786   2.740
 4266SOL    HW213088   2.874   5.746   2.898
 4267SOL     OW13089   2.534   5.789   3.351
 4267SOL    HW113090   2.624   5.773   3.311
 4267SOL    HW213091   2.542   5.794   3.450
 4268SOL     OW13092   1.937   5.931   1.895
 4268SOL    HW113093   1.845   5.903   1.866
 4268SOL    HW213094   1.968   6.008   1.839
 4269SOL     OW13095   1.934   5.752   2.180
 4269SOL    HW113096   1.917   5.835   2.126
 4269SOL    HW213097   2.024   5.715   2.158
 4270SOL     OW13098   3.087   5.911   2.311
 4270SOL    HW113099   3.152   5.837   2.300
 4270SOL    HW213100   3.107   5.961   2.395
 4271SOL     OW13101   3.639   5.928   3.504
 4271SOL    HW113102   3.622   5.959   3.410
 4271SOL    HW213103   3.555   5.891   3.542
 4272SOL     OW13104   3.686   5.778   3.089
 4272SOL    HW113105   3.682   5.688   3.133
 4272SOL    HW213106   3.689   5.767   2.990
 4273SOL     OW13107   3.286   5.800   2.974
 4273SOL    HW113108   3.338   5.735   3.029
 4273SOL    HW213109   3.237   5.863   3.035
 4274SOL     OW13110   2.863   5.620   3.016
 4274SOL    HW113111   2.800   5.548   2.985
 4274SOL    HW213112   2.956   5.584   3.016
 4275SOL     OW13113   3.214   5.638   2.030
 4275SOL    HW113114   3.249   5.597   1.946
 4275SOL    HW213115   3.124   5.600   2.050
 4276SOL     OW13116   3.162   6.039   2.553
 4276SOL    HW113117   3.103   6.119   2.557
 4276SOL    HW213118   3.177   6.004   2.646
 4277SOL     OW13119   3.455   5.807   2.744
 4277SOL    HW113120   3.371   5.806   2.798
 4277SOL    HW213121   3.457   5.890   2.688
 4278SOL     OW13122   2.087   5.861   4.720
 4278SOL    HW113123   2.122   5.844   4.812
 4278SOL    HW213124   1.999   5.816   4.708
 4279SOL     OW13125   1.881   5.954   4.371
 4279SOL    HW113126   1.799   5.997   4.410
 4279SOL    HW213127   1.853   5.881   4.308
 4280SOL     OW13128   3.617   6.193   3.955
 4280SOL    HW113129   3.605   6.180   3.856
 4280SOL    HW213130   3.587   6.112   4.004
 4281SOL     OW13131   2.300   5.978   5.223
 4281SOL    HW113132   2.382   5.922   5.232
 4281SOL    HW213133   2.219   5.920   5.227
 4282SOL     OW13134   3.465   6.033   4.461
 4282SOL    HW113135   3.391   6.079   4.411
 4282SOL    HW213136   3.516   6.101   4.514
 4283SOL     OW13137   3.456   5.700   5.204
 4283SOL    HW113138   3.438   5.767   5.132
 4283SOL    HW213139   3.453   5.746   5.293
 4284SOL     OW13140   2.671   5.590   4.226
 4284SOL    HW113141   2.711   5.681   4.217
 4284SOL    HW213142   2.571   5.598   4.232
 4285SOL     OW13143   2.179   5.837   5.525
 4285SOL    HW113144   2.250   5.908   5.531
 4285SOL    HW213145   2.091   5.876   5.553
 4286SOL     OW13146   3.143   5.931   4.668
 4286SOL    HW113147   3.057   5.881   4.655
 4286SOL    HW213148   3.205   5.877   4.724
 4287SOL     OW13149   2.727   5.934   3.919
 4287SOL    HW113150   2.786   5.997   3.870
 4287SOL    HW213151   2.746   5.840   3.890
 4288SOL     OW13152   2.412   5.782   4.609
 4288SOL    HW113153   2.407   5.777   4.709
 4288SOL    HW213154   2.414   5.878   4.580
 4289SOL     OW13155   2.064   5.871   5.222
 4289SOL    HW113156   1.984   5.931   5.209
 4289SOL    HW213157   2.054   5.822   5.308
 4290SOL     OW13158   3.262   5.693   4.150
 4290SOL    HW113159   3.238   5.656   4.060
 4290SOL    HW213160   3.361   5.709   4.154
 4291SOL     OW13161   3.409   5.808   5.453
 4291SOL    HW113162   3.404   5.845   5.545
 4291SOL    HW213163   3.337   5.739   5.441
 4292SOL     OW13164   2.476   5.708   3.841
 4292SOL    HW113165   2.574   5.686   3.848
 4292SOL    HW213166   2.445   5.691   3.748
 4293SOL     OW13167   2.643   5.850   5.473
 4293SOL    HW113168   2.710   5.789   5.516
 4293SOL    HW213169   2.570   5.869   5.538
 4294SOL     OW13170   3.213   6.176   5.157
 4294SOL    HW113171   3.241   6.133   5.242
 4294SOL    HW213172   3.238   6.272   5.158
 4295SOL     OW13173   2.401   5.650   4.236
 4295SOL    HW113174   2.320   5.651   4.294
 4295SOL    HW213175   2.404   5.733   4.181
 4296SOL     OW13176   2.159   5.621   3.895
 4296SOL    HW113177   2.208   5.705   3.874
 4296SOL    HW213178   2.221   5.556   3.940
 4297SOL     OW13179   2.797   5.822   4.204
 4297SOL    HW113180   2.749   5.863   4.126
 4297SOL    HW213181   2.896   5.820   4.185
 4298SOL     OW13182   2.423   5.808   4.871
 4298SOL    HW113183   2.461   5.724   4.908
 4298SOL    HW213184   2.335   5.827   4.915
 4299SOL     OW13185   2.879   5.625   4.477
 4299SOL    HW113186   2.807   5.630   4.408
 4299SOL    HW213187   2.855   5.556   4.546
 4300SOL     OW13188   2.389   5.842   4.052
 4300SOL    HW113189   2.416   5.783   3.977
 4300SOL    HW213190   2.389   5.937   4.021
 4301SOL     OW13191   2.777   5.675   5.126
 4301SOL    HW113192   2.802   5.655   5.031
 4301SOL    HW213193   2.849   5.731   5.168
 4302SOL     OW13194   2.875   5.691   5.494
 4302SOL    HW113195   2.881   5.776   5.442
 4302SOL    HW213196   2.907   5.615   5.437
 4303SOL     OW13197   2.366   5.636   5.464
 4303SOL    HW113198   2.324   5.579   5.394
 4303SOL    HW213199   2.300   5.705   5.496
 4304SOL     OW13200   2.169   5.799   4.955
 4304SOL    HW113201   2.146   5.836   5.045
 4304SOL    HW213202   2.139   5.704   4.949
 4305SOL     OW13203   2.594   6.220   4.788
 4305SOL    HW113204   2.653   6.194   4.712
 4305SOL    HW213205   2.566   6.316   4.777
 4306SOL     OW13206   2.169   5.649   4.342
 4306SOL    HW113207   2.158   5.743   4.375
 4306SOL    HW213208   2.164   5.586   4.419
 4307SOL     OW13209   3.402   5.860   3.849
 4307SOL    HW113210   3.341   5.785   3.872
 4307SOL    HW213211   3.424   5.912   3.932
 4308SOL     OW13212   2.201   6.095   4.730
 4308SOL    HW113213   2.149   6.012   4.713
 4308SOL    HW213214   2.278   6.100   4.666
 4309SOL     OW13215   3.022   5.793   5.201
 4309SOL    HW113216   3.022   5.857   5.278
 4309SOL    HW213217   3.050   5.841   5.118
 4310SOL     OW13218   3.588   5.721   4.247
 4310SOL    HW113219   3.661   5.704   4.180
 4310SOL    HW213220   3.557   5.634   4.285
 4311SOL     OW13221   3.703   5.761   4.687
 4311SOL    HW113222   3.742   5.676   4.651
 4311SOL    HW213223   3.605   5.763   4.668
 4312SOL     OW13224   2.876   5.822   4.695
 4312SOL    HW113225   2.868   5.786   4.602
 4312SOL    HW213226   2.874   5.746   4.760
 4313SOL     OW13227   2.534   5.789   5.213
 4313SOL    HW113228   2.624   5.773   5.173
 4313SOL    HW213229   2.542   5.794   5.312
 4314SOL     OW13230   1.937   5.931   3.757
 4314SOL    HW113231   1.845   5.903   3.728
 4314SOL    HW213232   1.968   6.008   3.701
 4315SOL     OW13233   1.934   5.752   4.042
 4315SOL    HW113234   1.917   5.835   3.988
 4315SOL    HW213235   2.024   5.715   4.020
 4316SOL     OW13236   3.087   5.911   4.173
 4316SOL    HW113237   3.152   5.837   4.162
 4316SOL    HW213238   3.107   5.961   4.257
 4317SOL     OW13239   3.639   5.928   5.366
 4317SOL    HW113240   3.622   5.959   5.272
 4317SOL    HW213241   3.555   5.891   5.404
 4318SOL     OW13242   3.686   5.778   4.951
 4318SOL    HW113243   3.682   5.688   4.995
 4318SOL    HW213244   3.689   5.767   4.852
 4319SOL     OW13245   3.286   5.800   4.836
 4319SOL    HW113246   3.338   5.735   4.891
 4319SOL    HW213247   3.237   5.863   4.897
 4320SOL     OW13248   2.863   5.620   4.878
 4320SOL    HW113249   2.800   5.548   4.847
 4320SOL    HW213250   2.956   5.584   4.878
 4321SOL     OW13251   3.214   5.638   3.892
 4321SOL    HW113252   3.249   5.597   3.808
 4321SOL    HW213253   3.124   5.600   3.912
 4322SOL     OW13254   3.162   6.039   4.415
 4322SOL    HW113255   3.103   6.119   4.419
 4322SOL    HW213256   3.177   6.004   4.508
 4323SOL     OW13257   3.455   5.807   4.606
 4323SOL    HW113258   3.371   5.806   4.660
 4323SOL    HW213259   3.457   5.890   4.550
 4324SOL     OW13260   3.617   6.193   5.817
 4324SOL    HW113261   3.605   6.180   5.718
 4324SOL    HW213262   3.587   6.112   5.866
 4325SOL     OW13263   2.903   6.287   6.015
 4325SOL    HW113264   2.929   6.283   6.111
 4325SOL    HW213265   2.818   6.236   6.001
 4326SOL     OW13266   2.727   5.934   5.781
 4326SOL    HW113267   2.786   5.997   5.732
 4326SOL    HW213268   2.746   5.840   5.752
 4327SOL     OW13269   2.476   5.708   5.703
 4327SOL    HW113270   2.574   5.686   5.710
 4327SOL    HW213271   2.445   5.691   5.610
 4328SOL     OW13272   2.159   5.621   5.757
 4328SOL    HW113273   2.208   5.705   5.736
 4328SOL    HW213274   2.221   5.556   5.802
 4329SOL     OW13275   2.389   5.842   5.914
 4329SOL    HW113276   2.416   5.783   5.839
 4329SOL    HW213277   2.389   5.937   5.883
 4330SOL     OW13278   2.169   5.649   6.204
 4330SOL    HW113279   2.158   5.743   6.237
 4330SOL    HW213280   2.164   5.586   6.281
 4331SOL     OW13281   3.402   5.860   5.711
 4331SOL    HW113282   3.341   5.785   5.734
 4331SOL    HW213283   3.424   5.912   5.794
 4332SOL     OW13284   2.677   6.158   5.911
 4332SOL    HW113285   2.684   6.069   5.865
 4332SOL    HW213286   2.583   6.192   5.903
 4333SOL     OW13287   3.588   5.721   6.109
 4333SOL    HW113288   3.661   5.704   6.042
 4333SOL    HW213289   3.557   5.634   6.147
 4334SOL     OW13290   1.937   5.931   5.619
 4334SOL    HW113291   1.845   5.903   5.590
 4334SOL    HW213292   1.968   6.008   5.563
 4335SOL     OW13293   1.934   5.752   5.904
 4335SOL    HW113294   1.917   5.835   5.850
 4335SOL    HW213295   2.024   5.715   5.882
 4336SOL     OW13296   3.214   5.638   5.754
 4336SOL    HW113297   3.249   5.597   5.670
 4336SOL    HW213298   3.124   5.600   5.774
 4337SOL     OW13299   3.954   0.628   0.113
 4337SOL    HW113300   3.861   0.626   0.150
 4337SOL    HW213301   3.955   0.589   0.021
 4338SOL     OW13302   3.949   0.275   0.996
 4338SOL    HW113303   3.984   0.258   1.088
 4338SOL    HW213304   3.861   0.230   0.984
 4339SOL     OW13305   3.743   0.368   0.647
 4339SOL    HW113306   3.661   0.411   0.686
 4339SOL    HW213307   3.715   0.295   0.584
 4340SOL     OW13308   4.293   1.275   1.165
 4340SOL    HW113309   4.200   1.268   1.128
 4340SOL    HW213310   4.304   1.364   1.209
 4341SOL     OW13311   5.279   1.511   0.703
 4341SOL    HW113312   5.222   1.495   0.784
 4341SOL    HW213313   5.220   1.521   0.623
 4342SOL     OW13314   4.859   0.703   0.717
 4342SOL    HW113315   4.916   0.781   0.692
 4342SOL    HW213316   4.799   0.729   0.793
 4343SOL     OW13317   5.479   0.607   0.231
 4343SOL    HW113318   5.467   0.594   0.132
 4343SOL    HW213319   5.449   0.526   0.280
 4344SOL     OW13320   4.492   1.144   1.023
 4344SOL    HW113321   4.414   1.161   1.083
 4344SOL    HW213322   4.526   1.231   0.987
 4345SOL     OW13323   4.574   0.798   1.823
 4345SOL    HW113324   4.570   0.874   1.888
 4345SOL    HW213325   4.596   0.834   1.732
 4346SOL     OW13326   4.409   1.012   0.665
 4346SOL    HW113327   4.478   0.996   0.735
 4346SOL    HW213328   4.336   1.069   0.703
 4347SOL     OW13329   4.410   1.161   1.803
 4347SOL    HW113330   4.470   1.240   1.817
 4347SOL    HW213331   4.324   1.192   1.762
 4348SOL     OW13332   4.059   1.435   1.061
 4348SOL    HW113333   3.981   1.404   1.008
 4348SOL    HW213334   4.117   1.493   1.004
 4349SOL     OW13335   5.184   1.505   1.339
 4349SOL    HW113336   5.208   1.599   1.365
 4349SOL    HW213337   5.168   1.451   1.421
 4350SOL     OW13338   4.162   0.392   1.499
 4350SOL    HW113339   4.244   0.336   1.508
 4350SOL    HW213340   4.081   0.334   1.503
 4351SOL     OW13341   5.327   0.447   0.737
 4351SOL    HW113342   5.253   0.493   0.687
 4351SOL    HW213343   5.378   0.515   0.790
 4352SOL     OW13344   3.955   1.713   0.483
 4352SOL    HW113345   3.989   1.790   0.537
 4352SOL    HW213346   3.999   1.713   0.393
 4353SOL     OW13347   4.851   1.341   1.690
 4353SOL    HW113348   4.898   1.341   1.778
 4353SOL    HW213349   4.803   1.254   1.679
 4354SOL     OW13350   3.954   1.434   0.538
 4354SOL    HW113351   3.928   1.530   0.538
 4354SOL    HW213352   3.883   1.380   0.583
 4355SOL     OW13353   3.964   1.091   0.886
 4355SOL    HW113354   3.978   1.007   0.938
 4355SOL    HW213355   3.909   1.155   0.941
 4356SOL     OW13356   4.344   1.786   1.439
 4356SOL    HW113357   4.252   1.769   1.474
 4356SOL    HW213358   4.372   1.878   1.465
 4357SOL     OW13359   4.330   0.964   0.123
 4357SOL    HW113360   4.337   1.048   0.069
 4357SOL    HW213361   4.376   0.977   0.211
 4358SOL     OW13362   5.318   0.114   1.480
 4358SOL    HW113363   5.300   0.181   1.408
 4358SOL    HW213364   5.315   0.160   1.569
 4359SOL     OW13365   3.846   0.643   0.563
 4359SOL    HW113366   3.801   0.555   0.580
 4359SOL    HW213367   3.845   0.697   0.647
 4360SOL     OW13368   5.566   1.767   0.359
 4360SOL    HW113369   5.620   1.738   0.439
 4360SOL    HW213370   5.596   1.857   0.330
 4361SOL     OW13371   3.751   1.596   0.117
 4361SOL    HW113372   3.732   1.500   0.138
 4361SOL    HW213373   3.718   1.654   0.192
 4362SOL     OW13374   5.413   0.922   0.612
 4362SOL    HW113375   5.508   0.893   0.620
 4362SOL    HW213376   5.405   0.987   0.537
 4363SOL     OW13377   5.365   1.108   0.432
 4363SOL    HW113378   5.451   1.110   0.380
 4363SOL    HW213379   5.379   1.155   0.520
 4364SOL     OW13380   3.837   0.737   1.597
 4364SOL    HW113381   3.925   0.724   1.642
 4364SOL    HW213382   3.824   0.834   1.575
 4365SOL     OW13383   4.337   1.365   0.726
 4365SOL    HW113384   4.288   1.278   0.735
 4365SOL    HW213385   4.314   1.408   0.639
 4366SOL     OW13386   5.017   1.228   1.423
 4366SOL    HW113387   5.054   1.155   1.365
 4366SOL    HW213388   5.069   1.233   1.508
 4367SOL     OW13389   4.533   0.004   0.502
 4367SOL    HW113390   4.573   0.095   0.493
 4367SOL    HW213391   4.433   0.012   0.508
 4368SOL     OW13392   3.921   0.976   1.264
 4368SOL    HW113393   4.010   0.931   1.250
 4368SOL    HW213394   3.848   0.911   1.245
 4369SOL     OW13395   5.249   0.999   0.190
 4369SOL    HW113396   5.186   0.923   0.203
 4369SOL    HW213397   5.297   1.017   0.276
 4370SOL     OW13398   4.911   1.792   1.616
 4370SOL    HW113399   4.935   1.852   1.540
 4370SOL    HW213400   4.918   1.697   1.586
 4371SOL     OW13401   4.041   0.251   1.801
 4371SOL    HW113402   4.112   0.322   1.807
 4371SOL    HW213403   3.953   0.290   1.829
 4372SOL     OW13404   5.190   1.417   0.953
 4372SOL    HW113405   5.131   1.423   1.033
 4372SOL    HW213406   5.175   1.329   0.907
 4373SOL     OW13407   5.391   1.714   0.572
 4373SOL    HW113408   5.350   1.691   0.484
 4373SOL    HW213409   5.373   1.640   0.637
 4374SOL     OW13410   4.322   0.729   0.270
 4374SOL    HW113411   4.346   0.798   0.202
 4374SOL    HW213412   4.244   0.762   0.324
 4375SOL     OW13413   5.005   0.345   0.944
 4375SOL    HW113414   4.919   0.295   0.931
 4375SOL    HW213415   5.067   0.291   1.000
 4376SOL     OW13416   5.300   1.662   0.307
 4376SOL    HW113417   5.389   1.708   0.310
 4376SOL    HW213418   5.279   1.638   0.212
 4377SOL     OW13419   4.531   0.605   1.465
 4377SOL    HW113420   4.484   0.602   1.554
 4377SOL    HW213421   4.480   0.550   1.399
 4378SOL     OW13422   5.118   0.469   1.674
 4378SOL    HW113423   5.098   0.512   1.762
 4378SOL    HW213424   5.196   0.407   1.683
 4379SOL     OW13425   4.697   0.890   1.572
 4379SOL    HW113426   4.743   0.806   1.543
 4379SOL    HW213427   4.641   0.924   1.497
 4380SOL     OW13428   4.715   0.410   1.242
 4380SOL    HW113429   4.638   0.444   1.296
 4380SOL    HW213430   4.681   0.359   1.163
 4381SOL     OW13431   4.765   0.701   0.429
 4381SOL    HW113432   4.791   0.697   0.525
 4381SOL    HW213433   4.680   0.650   0.415
 4382SOL     OW13434   3.800   0.811   0.789
 4382SOL    HW113435   3.899   0.799   0.798
 4382SOL    HW213436   3.776   0.906   0.810
 4383SOL     OW13437   3.854   1.821   1.571
 4383SOL    HW113438   3.844   1.806   1.670
 4383SOL    HW213439   3.768   1.857   1.535
 4384SOL     OW13440   4.589   0.348   0.195
 4384SOL    HW113441   4.648   0.411   0.146
 4384SOL    HW213442   4.608   0.254   0.166
 4385SOL     OW13443   5.443   0.585   1.831
 4385SOL    HW113444   5.417   0.674   1.795
 4385SOL    HW213445   5.441   0.517   1.758
 4386SOL     OW13446   5.086   1.144   0.545
 4386SOL    HW113447   5.169   1.115   0.497
 4386SOL    HW213448   5.037   1.211   0.489
 4387SOL     OW13449   4.274   0.196   0.885
 4387SOL    HW113450   4.269   0.191   0.985
 4387SOL    HW213451   4.276   0.292   0.856
 4388SOL     OW13452   4.732   1.456   0.477
 4388SOL    HW113453   4.686   1.528   0.425
 4388SOL    HW213454   4.728   1.476   0.575
 4389SOL     OW13455   4.075   1.801   0.853
 4389SOL    HW113456   4.125   1.715   0.859
 4389SOL    HW213457   4.140   1.878   0.850
 4390SOL     OW13458   5.519   1.066   0.873
 4390SOL    HW113459   5.457   1.051   0.797
 4390SOL    HW213460   5.467   1.077   0.958
 4391SOL     OW13461   4.951   1.550   1.506
 4391SOL    HW113462   4.957   1.473   1.570
 4391SOL    HW213463   4.899   1.524   1.426
 4392SOL     OW13464   4.045   0.943   0.242
 4392SOL    HW113465   4.127   0.982   0.200
 4392SOL    HW213466   4.018   0.861   0.193
 4393SOL     OW13467   5.182   0.735   0.728
 4393SOL    HW113468   5.177   0.670   0.803
 4393SOL    HW213469   5.262   0.794   0.741
 4394SOL     OW13470   4.185   1.266   1.727
 4394SOL    HW113471   4.135   1.267   1.641
 4394SOL    HW213472   4.122   1.248   1.803
 4395SOL     OW13473   4.835   1.776   0.237
 4395SOL    HW113474   4.775   1.714   0.287
 4395SOL    HW213475   4.866   1.732   0.152
 4396SOL     OW13476   3.926   0.285   1.498
 4396SOL    HW113477   3.846   0.345   1.485
 4396SOL    HW213478   3.916   0.236   1.584
 4397SOL     OW13479   5.356   1.377   0.081
 4397SOL    HW113480   5.324   1.471   0.071
 4397SOL    HW213481   5.280   1.314   0.069
 4398SOL     OW13482   4.188   1.743   0.323
 4398SOL    HW113483   4.221   1.782   0.409
 4398SOL    HW213484   4.264   1.736   0.258
 4399SOL     OW13485   5.124   0.107   0.426
 4399SOL    HW113486   5.100   0.070   0.336
 4399SOL    HW213487   5.223   0.123   0.430
 4400SOL     OW13488   3.973   1.785   1.241
 4400SOL    HW113489   4.030   1.720   1.291
 4400SOL    HW213490   3.957   1.752   1.148
 4401SOL     OW13491   4.664   1.698   0.904
 4401SOL    HW113492   4.744   1.641   0.925
 4401SOL    HW213493   4.615   1.658   0.827
 4402SOL     OW13494   4.106   0.700   0.480
 4402SOL    HW113495   4.151   0.610   0.477
 4402SOL    HW213496   4.012   0.689   0.513
 4403SOL     OW13497   5.271   0.222   1.729
 4403SOL    HW113498   5.266   0.259   1.821
 4403SOL    HW213499   5.199   0.153   1.717
 4404SOL     OW13500   4.338   0.122   0.117
 4404SOL    HW113501   4.436   0.100   0.124
 4404SOL    HW213502   4.307   0.105   0.024
 4405SOL     OW13503   4.505   0.264   1.749
 4405SOL    HW113504   4.572   0.203   1.792
 4405SOL    HW213505   4.432   0.283   1.814
 4406SOL     OW13506   4.612   1.514   1.195
 4406SOL    HW113507   4.589   1.489   1.101
 4406SOL    HW213508   4.673   1.445   1.234
 4407SOL     OW13509   5.075   0.590   1.433
 4407SOL    HW113510   5.103   0.547   1.518
 4407SOL    HW213511   5.100   0.686   1.434
 4408SOL     OW13512   4.527   1.402   0.924
 4408SOL    HW113513   4.617   1.416   0.882
 4408SOL    HW213514   4.456   1.404   0.853
 4409SOL     OW13515   4.646   0.503   0.899
 4409SOL    HW113516   4.621   0.494   0.803
 4409SOL    HW213517   4.694   0.421   0.930
 4410SOL     OW13518   4.263   0.064   0.512
 4410SOL    HW113519   4.182   0.065   0.570
 4410SOL    HW213520   4.266   0.147   0.457
 4411SOL     OW13521   5.158   1.188   0.041
 4411SOL    HW113522   5.190   1.112   0.098
 4411SOL    HW213523   5.066   1.215   0.071
 4412SOL     OW13524   4.021   0.035   0.171
 4412SOL    HW113525   4.070   0.119   0.150
 4412SOL    HW213526   4.083  -0.030   0.216
 4413SOL     OW13527   4.659   0.236   0.480
 4413SOL    HW113528   4.611   0.277   0.402
 4413SOL    HW213529   4.758   0.234   0.461
 4414SOL     OW13530   4.800   0.683   1.464
 4414SOL    HW113531   4.720   0.622   1.467
 4414SOL    HW213532   4.881   0.630   1.440
 4415SOL     OW13533   4.951   1.570   0.793
 4415SOL    HW113534   4.972   1.644   0.728
 4415SOL    HW213535   5.019   1.570   0.866
 4416SOL     OW13536   4.183   1.152   0.741
 4416SOL    HW113537   4.112   1.125   0.806
 4416SOL    HW213538   4.157   1.124   0.648
 4417SOL     OW13539   4.995   1.797   0.591
 4417SOL    HW113540   5.039   1.861   0.527
 4417SOL    HW213541   4.945   1.849   0.661
 4418SOL     OW13542   4.756   0.549   0.016
 4418SOL    HW113543   4.715   0.631  -0.023
 4418SOL    HW213544   4.820   0.575   0.089
 4419SOL     OW13545   3.802   0.556   1.386
 4419SOL    HW113546   3.894   0.555   1.345
 4419SOL    HW213547   3.796   0.630   1.453
 4420SOL     OW13548   4.285   0.222   1.147
 4420SOL    HW113549   4.323   0.138   1.184
 4420SOL    HW213550   4.197   0.241   1.191
 4421SOL     OW13551   4.590   0.454   0.642
 4421SOL    HW113552   4.558   0.526   0.580
 4421SOL    HW213553   4.614   0.373   0.589
 4422SOL     OW13554   4.741   0.039   0.753
 4422SOL    HW113555   4.669   0.044   0.684
 4422SOL    HW213556   4.717  -0.030   0.822
 4423SOL     OW13557   5.153   1.173   0.867
 4423SOL    HW113558   5.098   1.089   0.860
 4423SOL    HW213559   5.179   1.202   0.775
 4424SOL     OW13560   5.190   0.590   0.992
 4424SOL    HW113561   5.160   0.495   0.999
 4424SOL    HW213562   5.263   0.606   1.058
 4425SOL     OW13563   5.581   0.833   0.377
 4425SOL    HW113564   5.623   0.769   0.441
 4425SOL    HW213565   5.543   0.782   0.299
 4426SOL     OW13566   4.212   1.385   0.174
 4426SOL    HW113567   4.125   1.370   0.221
 4426SOL    HW213568   4.195   1.411   0.079
 4427SOL     OW13569   5.388   1.280   0.657
 4427SOL    HW113570   5.487   1.288   0.671
 4427SOL    HW213571   5.343   1.364   0.688
 4428SOL     OW13572   5.114   0.575   0.078
 4428SOL    HW113573   5.060   0.554   0.159
 4428SOL    HW213574   5.205   0.534   0.087
 4429SOL     OW13575   4.251   0.256   0.328
 4429SOL    HW113576   4.278   0.197   0.253
 4429SOL    HW213577   4.251   0.351   0.297
 4430SOL     OW13578   5.478   1.223   1.588
 4430SOL    HW113579   5.569   1.184   1.575
 4430SOL    HW213580   5.486   1.319   1.612
 4431SOL     OW13581   4.788   1.347   1.340
 4431SOL    HW113582   4.708   1.324   1.395
 4431SOL    HW213583   4.871   1.321   1.389
 4432SOL     OW13584   5.316   1.629   1.625
 4432SOL    HW113585   5.343   1.663   1.535
 4432SOL    HW213586   5.395   1.591   1.671
 4433SOL     OW13587   4.835   1.195   1.100
 4433SOL    HW113588   4.795   1.239   1.181
 4433SOL    HW213589   4.794   1.232   1.017
 4434SOL     OW13590   5.362   1.099   1.079
 4434SOL    HW113591   5.367   1.180   1.138
 4434SOL    HW213592   5.276   1.101   1.028
 4435SOL     OW13593   4.639   0.089   1.402
 4435SOL    HW113594   4.664   0.069   1.307
 4435SOL    HW213595   4.711   0.145   1.444
 4436SOL     OW13596   4.704   1.116   1.719
 4436SOL    HW113597   4.605   1.122   1.729
 4436SOL    HW213598   4.727   1.036   1.663
 4437SOL     OW13599   4.429   1.050   0.368
 4437SOL    HW113600   4.415   1.057   0.467
 4437SOL    HW213601   4.513   0.999   0.350
 4438SOL     OW13602   4.134   0.813   1.251
 4438SOL    HW113603   4.220   0.825   1.301
 4438SOL    HW213604   4.092   0.726   1.278
 4439SOL     OW13605   4.998   0.386   1.262
 4439SOL    HW113606   5.019   0.460   1.326
 4439SOL    HW213607   4.909   0.403   1.219
 4440SOL     OW13608   3.788   1.564   1.331
 4440SOL    HW113609   3.742   1.646   1.297
 4440SOL    HW213610   3.886   1.583   1.340
 4441SOL     OW13611   4.091   1.100   0.501
 4441SOL    HW113612   4.084   1.183   0.445
 4441SOL    HW213613   4.095   1.020   0.441
 4442SOL     OW13614   4.290   0.537   0.865
 4442SOL    HW113615   4.302   0.603   0.791
 4442SOL    HW213616   4.336   0.571   0.948
 4443SOL     OW13617   4.976   1.348   0.388
 4443SOL    HW113618   5.026   1.425   0.428
 4443SOL    HW213619   4.881   1.350   0.420
 4444SOL     OW13620   4.996   1.445   1.142
 4444SOL    HW113621   5.043   1.458   1.229
 4444SOL    HW213622   4.930   1.371   1.151
 4445SOL     OW13623   5.306   0.639   0.472
 4445SOL    HW113624   5.275   0.700   0.545
 4445SOL    HW213625   5.356   0.691   0.403
 4446SOL     OW13626   4.078   1.510   1.329
 4446SOL    HW113627   4.057   1.466   1.242
 4446SOL    HW213628   4.175   1.536   1.332
 4447SOL     OW13629   4.126   0.751   1.598
 4447SOL    HW113630   4.194   0.806   1.551
 4447SOL    HW213631   4.166   0.663   1.625
 4448SOL     OW13632   5.311   0.779   1.670
 4448SOL    HW113633   5.219   0.817   1.665
 4448SOL    HW213634   5.371   0.826   1.605
 4449SOL     OW13635   4.737   0.105   1.770
 4449SOL    HW113636   4.743   0.190   1.718
 4449SOL    HW213637   4.769   0.029   1.713
 4450SOL     OW13638   4.228   0.050   1.740
 4450SOL    HW113639   4.186  -0.007   1.670
 4450SOL    HW213640   4.162   0.119   1.772
 4451SOL     OW13641   4.297   0.870   1.029
 4451SOL    HW113642   4.341   0.959   1.020
 4451SOL    HW213643   4.234   0.870   1.106
 4452SOL     OW13644   5.084   0.862   1.045
 4452SOL    HW113645   5.009   0.862   0.979
 4452SOL    HW213646   5.121   0.770   1.054
 4453SOL     OW13647   4.933   0.525   0.275
 4453SOL    HW113648   4.946   0.441   0.329
 4453SOL    HW213649   4.904   0.599   0.335
 4454SOL     OW13650   4.031   0.213   1.231
 4454SOL    HW113651   4.008   0.250   1.321
 4454SOL    HW213652   4.001   0.118   1.225
 4455SOL     OW13653   3.761   1.310   1.282
 4455SOL    HW113654   3.814   1.261   1.350
 4455SOL    HW213655   3.783   1.408   1.287
 4456SOL     OW13656   4.456   0.634   1.064
 4456SOL    HW113657   4.515   0.608   0.988
 4456SOL    HW213658   4.428   0.730   1.053
 4457SOL     OW13659   5.452   0.935   1.854
 4457SOL    HW113660   5.406   0.928   1.765
 4457SOL    HW213661   5.390   0.979   1.920
 4458SOL     OW13662   4.031   0.063   0.618
 4458SOL    HW113663   4.020   0.157   0.651
 4458SOL    HW213664   4.026   0.000   0.695
 4459SOL     OW13665   5.346   0.367   0.374
 4459SOL    HW113666   5.348   0.291   0.438
 4459SOL    HW213667   5.298   0.444   0.414
 4460SOL     OW13668   4.747   0.766   0.966
 4460SOL    HW113669   4.762   0.787   1.062
 4460SOL    HW213670   4.717   0.671   0.957
 4461SOL     OW13671   4.704   1.573   1.700
 4461SOL    HW113672   4.684   1.617   1.612
 4461SOL    HW213673   4.743   1.482   1.684
 4462SOL     OW13674   5.583   1.518   1.605
 4462SOL    HW113675   5.597   1.545   1.510
 4462SOL    HW213676   5.666   1.540   1.658
 4463SOL     OW13677   4.074   0.898   1.804
 4463SOL    HW113678   4.150   0.942   1.852
 4463SOL    HW213679   4.109   0.851   1.722
 4464SOL     OW13680   5.264   0.274   0.125
 4464SOL    HW113681   5.203   0.199   0.148
 4464SOL    HW213682   5.286   0.326   0.208
 4465SOL     OW13683   5.027   0.838   0.042
 4465SOL    HW113684   5.061   0.745   0.057
 4465SOL    HW213685   5.045   0.865  -0.053
 4466SOL     OW13686   4.792   1.333   0.849
 4466SOL    HW113687   4.799   1.249   0.794
 4466SOL    HW213688   4.854   1.402   0.813
 4467SOL     OW13689   4.043   0.810   0.949
 4467SOL    HW113690   4.136   0.846   0.954
 4467SOL    HW213691   4.037   0.725   1.001
 4468SOL     OW13692   4.063   0.509   1.006
 4468SOL    HW113693   4.011   0.426   0.989
 4468SOL    HW213694   4.140   0.514   0.942
 4469SOL     OW13695   4.862   0.380   1.678
 4469SOL    HW113696   4.817   0.443   1.742
 4469SOL    HW213697   4.955   0.411   1.661
 4470SOL     OW13698   4.884   0.207   1.477
 4470SOL    HW113699   4.884   0.271   1.554
 4470SOL    HW213700   4.912   0.255   1.394
 4471SOL     OW13701   3.812   1.801   0.927
 4471SOL    HW113702   3.770   1.715   0.900
 4471SOL    HW213703   3.906   1.804   0.893
 4472SOL     OW13704   4.228   1.568   0.910
 4472SOL    HW113705   4.294   1.642   0.919
 4472SOL    HW213706   4.272   1.489   0.868
 4473SOL     OW13707   4.726   0.796   1.238
 4473SOL    HW113708   4.767   0.764   1.324
 4473SOL    HW213709   4.630   0.769   1.235
 4474SOL     OW13710   3.764   0.544   1.114
 4474SOL    HW113711   3.849   0.511   1.073
 4474SOL    HW213712   3.777   0.559   1.212
 4475SOL     OW13713   3.913   0.520   1.722
 4475SOL    HW113714   3.972   0.480   1.652
 4475SOL    HW213715   3.855   0.591   1.681
 4476SOL     OW13716   5.093   0.950   1.660
 4476SOL    HW113717   5.132   1.039   1.680
 4476SOL    HW213718   5.103   0.930   1.563
 4477SOL     OW13719   4.539   0.572   0.325
 4477SOL    HW113720   4.546   0.483   0.279
 4477SOL    HW213721   4.445   0.606   0.317
 4478SOL     OW13722   5.381   0.604   1.206
 4478SOL    HW113723   5.343   0.535   1.268
 4478SOL    HW213724   5.463   0.568   1.162
 4479SOL     OW13725   3.976   1.564   1.744
 4479SOL    HW113726   3.946   1.621   1.820
 4479SOL    HW213727   3.969   1.467   1.770
 4480SOL     OW13728   4.395   0.464   1.269
 4480SOL    HW113729   4.361   0.375   1.239
 4480SOL    HW213730   4.421   0.518   1.189
 4481SOL     OW13731   4.654   1.678   1.465
 4481SOL    HW113732   4.630   1.660   1.370
 4481SOL    HW213733   4.684   1.772   1.475
 4482SOL     OW13734   4.197   0.500   0.191
 4482SOL    HW113735   4.258   0.580   0.195
 4482SOL    HW213736   4.102   0.531   0.198
 4483SOL     OW13737   3.883   1.137   1.466
 4483SOL    HW113738   3.905   1.076   1.542
 4483SOL    HW213739   3.893   1.088   1.380
 4484SOL     OW13740   5.071   1.059   1.234
 4484SOL    HW113741   5.095   0.996   1.160
 4484SOL    HW213742   4.981   1.099   1.216
 4485SOL     OW13743   5.026   0.855   0.309
 4485SOL    HW113744   4.940   0.824   0.351
 4485SOL    HW213745   5.022   0.841   0.210
 4486SOL     OW13746   5.483   1.747   1.154
 4486SOL    HW113747   5.544   1.777   1.081
 4486SOL    HW213748   5.445   1.658   1.132
 4487SOL     OW13749   4.976   1.731   1.128
 4487SOL    HW113750   5.060   1.736   1.074
 4487SOL    HW213751   4.953   1.635   1.146
 4488SOL     OW13752   3.807   1.258   1.022
 4488SOL    HW113753   3.802   1.257   1.122
 4488SOL    HW213754   3.724   1.217   0.984
 4489SOL     OW13755   4.412   1.662   1.716
 4489SOL    HW113756   4.356   1.743   1.725
 4489SOL    HW213757   4.464   1.666   1.630
 4490SOL     OW13758   4.627   0.086   0.133
 4490SOL    HW113759   4.678   0.087   0.047
 4490SOL    HW213760   4.683   0.044   0.204
 4491SOL     OW13761   5.450   0.135   0.523
 4491SOL    HW113762   5.523   0.118   0.456
 4491SOL    HW213763   5.419   0.048   0.561
 4492SOL     OW13764   5.112   1.573   0.477
 4492SOL    HW113765   5.179   1.585   0.403
 4492SOL    HW213766   5.072   1.662   0.500
 4493SOL     OW13767   3.854   1.794   1.851
 4493SOL    HW113768   3.813   1.720   1.904
 4493SOL    HW213769   3.918   1.845   1.909
 4494SOL     OW13770   5.004   0.927   0.672
 4494SOL    HW113771   5.064   0.846   0.674
 4494SOL    HW213772   5.044   0.996   0.612
 4495SOL     OW13773   4.554   1.273   1.422
 4495SOL    HW113774   4.549   1.306   1.517
 4495SOL    HW213775   4.468   1.292   1.376
 4496SOL     OW13776   4.396   1.616   0.154
 4496SOL    HW113777   4.405   1.626   0.055
 4496SOL    HW213778   4.356   1.527   0.175
 4497SOL     OW13779   5.374   1.720   1.394
 4497SOL    HW113780   5.427   1.730   1.310
 4497SOL    HW213781   5.347   1.810   1.428
 4498SOL     OW13782   5.565   0.175   0.963
 4498SOL    HW113783   5.604   0.090   0.927
 4498SOL    HW213784   5.467   0.177   0.944
 4499SOL     OW13785   3.987   0.326   0.720
 4499SOL    HW113786   3.908   0.377   0.686
 4499SOL    HW213787   3.978   0.311   0.818
 4500SOL     OW13788   4.918   1.612   0.031
 4500SOL    HW113789   4.924   1.519   0.068
 4500SOL    HW213790   4.859   1.612  -0.049
 4501SOL     OW13791   4.546   1.002   1.372
 4501SOL    HW113792   4.586   1.001   1.280
 4501SOL    HW213793   4.556   1.094   1.412
 4502SOL     OW13794   4.640   0.910   0.291
 4502SOL    HW113795   4.703   0.948   0.223
 4502SOL    HW213796   4.680   0.827   0.330
 4503SOL     OW13797   5.228   1.607   0.044
 4503SOL    HW113798   5.136   1.644   0.051
 4503SOL    HW213799   5.266   1.627  -0.046
 4504SOL     OW13800   4.096   1.288   1.490
 4504SOL    HW113801   4.083   1.381   1.456
 4504SOL    HW213802   4.012   1.236   1.477
 4505SOL     OW13803   5.338   1.292   1.289
 4505SOL    HW113804   5.398   1.295   1.369
 4505SOL    HW213805   5.263   1.356   1.302
 4506SOL     OW13806   4.763   1.098   0.696
 4506SOL    HW113807   4.693   1.051   0.750
 4506SOL    HW213808   4.822   1.030   0.653
 4507SOL     OW13809   4.738   0.236   0.971
 4507SOL    HW113810   4.730   0.200   0.878
 4507SOL    HW213811   4.736   0.160   1.036
 4508SOL     OW13812   4.314   1.487   0.491
 4508SOL    HW113813   4.356   1.429   0.421
 4508SOL    HW213814   4.270   1.566   0.447
 4509SOL     OW13815   5.433   0.385   1.381
 4509SOL    HW113816   5.506   0.454   1.385
 4509SOL    HW213817   5.461   0.310   1.322
 4510SOL     OW13818   3.979   1.348   0.290
 4510SOL    HW113819   3.883   1.349   0.263
 4510SOL    HW213820   3.991   1.401   0.374
 4511SOL     OW13821   3.829   1.013   1.726
 4511SOL    HW113822   3.752   0.980   1.780
 4511SOL    HW213823   3.914   0.983   1.768
 4512SOL     OW13824   4.396   0.203   1.489
 4512SOL    HW113825   4.486   0.187   1.449
 4512SOL    HW213826   4.404   0.208   1.588
 4513SOL     OW13827   3.799   0.345   0.033
 4513SOL    HW113828   3.707   0.317   0.004
 4513SOL    HW213829   3.830   0.422  -0.023
 4514SOL     OW13830   5.164   0.856   1.398
 4514SOL    HW113831   5.107   0.908   1.335
 4514SOL    HW213832   5.260   0.868   1.374
 4515SOL     OW13833   3.796   0.166   0.318
 4515SOL    HW113834   3.779   0.249   0.264
 4515SOL    HW213835   3.886   0.129   0.296
 4516SOL     OW13836   4.907   1.335   0.119
 4516SOL    HW113837   4.808   1.324   0.121
 4516SOL    HW213838   4.941   1.350   0.212
 4517SOL     OW13839   4.337   0.842   1.431
 4517SOL    HW113840   4.393   0.923   1.414
 4517SOL    HW213841   4.396   0.762   1.434
 4518SOL     OW13842   5.217   1.767   0.959
 4518SOL    HW113843   5.250   1.831   0.890
 4518SOL    HW213844   5.283   1.761   1.034
 4519SOL     OW13845   4.440   0.565   1.708
 4519SOL    HW113846   4.459   0.630   1.782
 4519SOL    HW213847   4.500   0.485   1.717
 4520SOL     OW13848   5.174   1.220   1.633
 4520SOL    HW113849   5.165   1.210   1.732
 4520SOL    HW213850   5.270   1.213   1.607
 4521SOL     OW13851   4.114   1.741   1.560
 4521SOL    HW113852   4.023   1.782   1.558
 4521SOL    HW213853   4.107   1.647   1.592
 4522SOL     OW13854   5.398   0.883   1.254
 4522SOL    HW113855   5.371   0.794   1.217
 4522SOL    HW213856   5.399   0.951   1.181
 4523SOL     OW13857   4.949   0.325   0.449
 4523SOL    HW113858   5.014   0.251   0.438
 4523SOL    HW213859   4.969   0.375   0.533
 4524SOL     OW13860   4.318   0.745   0.652
 4524SOL    HW113861   4.368   0.830   0.633
 4524SOL    HW213862   4.230   0.747   0.604
 4525SOL     OW13863   5.501   0.342   1.642
 4525SOL    HW113864   5.484   0.373   1.548
 4525SOL    HW213865   5.417   0.305   1.680
 4526SOL     OW13866   5.454   0.934   1.517
 4526SOL    HW113867   5.492   1.025   1.532
 4526SOL    HW213868   5.446   0.917   1.418
 4527SOL     OW13869   4.583   1.374   0.016
 4527SOL    HW113870   4.537   1.389   0.104
 4527SOL    HW213871   4.627   1.459  -0.014
 4528SOL     OW13872   4.385   1.790   0.953
 4528SOL    HW113873   4.339   1.878   0.940
 4528SOL    HW213874   4.484   1.802   0.946
 4529SOL     OW13875   4.583   0.956   0.861
 4529SOL    HW113876   4.637   0.887   0.909
 4529SOL    HW213877   4.551   1.025   0.927
 4530SOL     OW13878   4.807   0.984   0.087
 4530SOL    HW113879   4.784   1.037   0.005
 4530SOL    HW213880   4.888   0.928   0.068
 4531SOL     OW13881   5.585   1.569   0.851
 4531SOL    HW113882   5.514   1.557   0.781
 4531SOL    HW213883   5.586   1.490   0.911
 4532SOL     OW13884   3.945   1.314   1.844
 4532SOL    HW113885   3.880   1.241   1.823
 4532SOL    HW213886   3.949   1.328   1.942
 4533SOL     OW13887   3.803   1.240   0.653
 4533SOL    HW113888   3.802   1.193   0.741
 4533SOL    HW213889   3.885   1.212   0.602
 4534SOL     OW13890   4.396   1.391   1.624
 4534SOL    HW113891   4.318   1.341   1.662
 4534SOL    HW213892   4.393   1.486   1.655
 4535SOL     OW13893   5.548   0.192   1.227
 4535SOL    HW113894   5.544   0.102   1.271
 4535SOL    HW213895   5.551   0.181   1.128
 4536SOL     OW13896   4.152   0.424   0.520
 4536SOL    HW113897   4.182   0.352   0.458
 4536SOL    HW213898   4.113   0.384   0.603
 4537SOL     OW13899   5.429   1.487   1.104
 4537SOL    HW113900   5.336   1.462   1.077
 4537SOL    HW213901   5.455   1.437   1.186
 4538SOL     OW13902   4.041   0.547   1.280
 4538SOL    HW113903   4.079   0.488   1.352
 4538SOL    HW213904   4.081   0.521   1.192
 4539SOL     OW13905   4.536   1.586   0.687
 4539SOL    HW113906   4.568   1.596   0.593
 4539SOL    HW213907   4.457   1.524   0.689
 4540SOL     OW13908   5.148   0.214   1.112
 4540SOL    HW113909   5.200   0.149   1.167
 4540SOL    HW213910   5.099   0.277   1.173
 4541SOL     OW13911   4.725   0.034   1.154
 4541SOL    HW113912   4.662  -0.038   1.123
 4541SOL    HW213913   4.818  -0.002   1.154
 4542SOL     OW13914   4.494   1.330   0.301
 4542SOL    HW113915   4.448   1.243   0.318
 4542SOL    HW213916   4.585   1.327   0.342
 4543SOL     OW13917   4.342   1.567   1.284
 4543SOL    HW113918   4.337   1.649   1.341
 4543SOL    HW213919   4.431   1.564   1.239
 4544SOL     OW13920   5.076   0.052   0.168
 4544SOL    HW113921   5.111   0.011   0.084
 4544SOL    HW213922   4.986   0.014   0.188
 4545SOL     OW13923   5.024   0.453   0.691
 4545SOL    HW113924   4.965   0.533   0.695
 4545SOL    HW213925   5.039   0.418   0.784
 4546SOL     OW13926   5.317   0.221   0.882
 4546SOL    HW113927   5.233   0.220   0.936
 4546SOL    HW213928   5.319   0.304   0.826
 4547SOL     OW13929   3.763   1.077   0.300
 4547SOL    HW113930   3.862   1.066   0.291
 4547SOL    HW213931   3.723   0.991   0.332
 4548SOL     OW13932   4.599   1.646   0.337
 4548SOL    HW113933   4.522   1.611   0.283
 4548SOL    HW213934   4.567   1.717   0.399
 4549SOL     OW13935   3.954   0.628   1.975
 4549SOL    HW113936   3.861   0.626   2.012
 4549SOL    HW213937   3.955   0.589   1.883
 4550SOL     OW13938   3.949   0.275   2.858
 4550SOL    HW113939   3.984   0.258   2.950
 4550SOL    HW213940   3.861   0.230   2.846
 4551SOL     OW13941   3.743   0.368   2.509
 4551SOL    HW113942   3.661   0.411   2.548
 4551SOL    HW213943   3.715   0.295   2.446
 4552SOL     OW13944   4.293   1.275   3.027
 4552SOL    HW113945   4.200   1.268   2.990
 4552SOL    HW213946   4.304   1.364   3.071
 4553SOL     OW13947   5.279   1.511   2.565
 4553SOL    HW113948   5.222   1.495   2.646
 4553SOL    HW213949   5.220   1.521   2.485
 4554SOL     OW13950   4.859   0.703   2.579
 4554SOL    HW113951   4.916   0.781   2.554
 4554SOL    HW213952   4.799   0.729   2.655
 4555SOL     OW13953   5.479   0.607   2.093
 4555SOL    HW113954   5.467   0.594   1.994
 4555SOL    HW213955   5.449   0.526   2.142
 4556SOL     OW13956   4.492   1.144   2.885
 4556SOL    HW113957   4.414   1.161   2.945
 4556SOL    HW213958   4.526   1.231   2.849
 4557SOL     OW13959   4.574   0.798   3.685
 4557SOL    HW113960   4.570   0.874   3.750
 4557SOL    HW213961   4.596   0.834   3.594
 4558SOL     OW13962   4.409   1.012   2.527
 4558SOL    HW113963   4.478   0.996   2.597
 4558SOL    HW213964   4.336   1.069   2.565
 4559SOL     OW13965   4.410   1.161   3.665
 4559SOL    HW113966   4.470   1.240   3.679
 4559SOL    HW213967   4.324   1.192   3.624
 4560SOL     OW13968   4.059   1.435   2.923
 4560SOL    HW113969   3.981   1.404   2.870
 4560SOL    HW213970   4.117   1.493   2.866
 4561SOL     OW13971   5.184   1.505   3.201
 4561SOL    HW113972   5.208   1.599   3.227
 4561SOL    HW213973   5.168   1.451   3.283
 4562SOL     OW13974   4.162   0.392   3.361
 4562SOL    HW113975   4.244   0.336   3.370
 4562SOL    HW213976   4.081   0.334   3.365
 4563SOL     OW13977   5.327   0.447   2.599
 4563SOL    HW113978   5.253   0.493   2.549
 4563SOL    HW213979   5.378   0.515   2.652
 4564SOL     OW13980   3.955   1.713   2.345
 4564SOL    HW113981   3.989   1.790   2.399
 4564SOL    HW213982   3.999   1.713   2.255
 4565SOL     OW13983   4.851   1.341   3.552
 4565SOL    HW113984   4.898   1.341   3.640
 4565SOL    HW213985   4.803   1.254   3.541
 4566SOL     OW13986   3.954   1.434   2.400
 4566SOL    HW113987   3.928   1.530   2.400
 4566SOL    HW213988   3.883   1.380   2.445
 4567SOL     OW13989   3.964   1.091   2.748
 4567SOL    HW113990   3.978   1.007   2.800
 4567SOL    HW213991   3.909   1.155   2.803
 4568SOL     OW13992   4.344   1.786   3.301
 4568SOL    HW113993   4.252   1.769   3.336
 4568SOL    HW213994   4.372   1.878   3.327
 4569SOL     OW13995   4.330   0.964   1.985
 4569SOL    HW113996   4.337   1.048   1.931
 4569SOL    HW213997   4.376   0.977   2.073
 4570SOL     OW13998   5.318   0.114   3.342
 4570SOL    HW113999   5.300   0.181   3.270
 4570SOL    HW214000   5.315   0.160   3.431
 4571SOL     OW14001   3.846   0.643   2.425
 4571SOL    HW114002   3.801   0.555   2.442
 4571SOL    HW214003   3.845   0.697   2.509
 4572SOL     OW14004   5.566   1.767   2.221
 4572SOL    HW114005   5.620   1.738   2.301
 4572SOL    HW214006   5.596   1.857   2.192
 4573SOL     OW14007   3.751   1.596   1.979
 4573SOL    HW114008   3.732   1.500   2.000
 4573SOL    HW214009   3.718   1.654   2.054
 4574SOL     OW14010   5.413   0.922   2.474
 4574SOL    HW114011   5.508   0.893   2.482
 4574SOL    HW214012   5.405   0.987   2.399
 4575SOL     OW14013   5.365   1.108   2.294
 4575SOL    HW114014   5.451   1.110   2.242
 4575SOL    HW214015   5.379   1.155   2.382
 4576SOL     OW14016   3.837   0.737   3.459
 4576SOL    HW114017   3.925   0.724   3.504
 4576SOL    HW214018   3.824   0.834   3.437
 4577SOL     OW14019   4.337   1.365   2.588
 4577SOL    HW114020   4.288   1.278   2.597
 4577SOL    HW214021   4.314   1.408   2.501
 4578SOL     OW14022   5.017   1.228   3.285
 4578SOL    HW114023   5.054   1.155   3.227
 4578SOL    HW214024   5.069   1.233   3.370
 4579SOL     OW14025   4.533   0.004   2.364
 4579SOL    HW114026   4.573   0.095   2.355
 4579SOL    HW214027   4.433   0.012   2.370
 4580SOL     OW14028   3.921   0.976   3.126
 4580SOL    HW114029   4.010   0.931   3.112
 4580SOL    HW214030   3.848   0.911   3.107
 4581SOL     OW14031   5.249   0.999   2.052
 4581SOL    HW114032   5.186   0.923   2.065
 4581SOL    HW214033   5.297   1.017   2.138
 4582SOL     OW14034   4.911   1.792   3.478
 4582SOL    HW114035   4.935   1.852   3.402
 4582SOL    HW214036   4.918   1.697   3.448
 4583SOL     OW14037   4.041   0.251   3.663
 4583SOL    HW114038   4.112   0.322   3.669
 4583SOL    HW214039   3.953   0.290   3.691
 4584SOL     OW14040   5.190   1.417   2.815
 4584SOL    HW114041   5.131   1.423   2.895
 4584SOL    HW214042   5.175   1.329   2.769
 4585SOL     OW14043   5.391   1.714   2.434
 4585SOL    HW114044   5.350   1.691   2.346
 4585SOL    HW214045   5.373   1.640   2.499
 4586SOL     OW14046   4.322   0.729   2.132
 4586SOL    HW114047   4.346   0.798   2.064
 4586SOL    HW214048   4.244   0.762   2.186
 4587SOL     OW14049   5.005   0.345   2.806
 4587SOL    HW114050   4.919   0.295   2.793
 4587SOL    HW214051   5.067   0.291   2.862
 4588SOL     OW14052   5.300   1.662   2.169
 4588SOL    HW114053   5.389   1.708   2.172
 4588SOL    HW214054   5.279   1.638   2.074
 4589SOL     OW14055   4.531   0.605   3.327
 4589SOL    HW114056   4.484   0.602   3.416
 4589SOL    HW214057   4.480   0.550   3.261
 4590SOL     OW14058   5.118   0.469   3.536
 4590SOL    HW114059   5.098   0.512   3.624
 4590SOL    HW214060   5.196   0.407   3.545
 4591SOL     OW14061   4.697   0.890   3.434
 4591SOL    HW114062   4.743   0.806   3.405
 4591SOL    HW214063   4.641   0.924   3.359
 4592SOL     OW14064   4.715   0.410   3.104
 4592SOL    HW114065   4.638   0.444   3.158
 4592SOL    HW214066   4.681   0.359   3.025
 4593SOL     OW14067   4.765   0.701   2.291
 4593SOL    HW114068   4.791   0.697   2.387
 4593SOL    HW214069   4.680   0.650   2.277
 4594SOL     OW14070   3.800   0.811   2.651
 4594SOL    HW114071   3.899   0.799   2.660
 4594SOL    HW214072   3.776   0.906   2.672
 4595SOL     OW14073   3.854   1.821   3.433
 4595SOL    HW114074   3.844   1.806   3.532
 4595SOL    HW214075   3.768   1.857   3.397
 4596SOL     OW14076   4.589   0.348   2.057
 4596SOL    HW114077   4.648   0.411   2.008
 4596SOL    HW214078   4.608   0.254   2.028
 4597SOL     OW14079   5.443   0.585   3.693
 4597SOL    HW114080   5.417   0.674   3.657
 4597SOL    HW214081   5.441   0.517   3.620
 4598SOL     OW14082   5.086   1.144   2.407
 4598SOL    HW114083   5.169   1.115   2.359
 4598SOL    HW214084   5.037   1.211   2.351
 4599SOL     OW14085   4.274   0.196   2.747
 4599SOL    HW114086   4.269   0.191   2.847
 4599SOL    HW214087   4.276   0.292   2.718
 4600SOL     OW14088   4.732   1.456   2.339
 4600SOL    HW114089   4.686   1.528   2.287
 4600SOL    HW214090   4.728   1.476   2.437
 4601SOL     OW14091   4.075   1.801   2.715
 4601SOL    HW114092   4.125   1.715   2.721
 4601SOL    HW214093   4.140   1.878   2.712
 4602SOL     OW14094   5.519   1.066   2.735
 4602SOL    HW114095   5.457   1.051   2.659
 4602SOL    HW214096   5.467   1.077   2.820
 4603SOL     OW14097   4.951   1.550   3.368
 4603SOL    HW114098   4.957   1.473   3.432
 4603SOL    HW214099   4.899   1.524   3.288
 4604SOL     OW14100   4.045   0.943   2.104
 4604SOL    HW114101   4.127   0.982   2.062
 4604SOL    HW214102   4.018   0.861   2.055
 4605SOL     OW14103   5.182   0.735   2.590
 4605SOL    HW114104   5.177   0.670   2.665
 4605SOL    HW214105   5.262   0.794   2.603
 4606SOL     OW14106   4.185   1.266   3.589
 4606SOL    HW114107   4.135   1.267   3.503
 4606SOL    HW214108   4.122   1.248   3.665
 4607SOL     OW14109   4.835   1.776   2.099
 4607SOL    HW114110   4.775   1.714   2.149
 4607SOL    HW214111   4.866   1.732   2.014
 4608SOL     OW14112   3.926   0.285   3.360
 4608SOL    HW114113   3.846   0.345   3.347
 4608SOL    HW214114   3.916   0.236   3.446
 4609SOL     OW14115   5.356   1.377   1.943
 4609SOL    HW114116   5.324   1.471   1.933
 4609SOL    HW214117   5.280   1.314   1.931
 4610SOL     OW14118   4.188   1.743   2.185
 4610SOL    HW114119   4.221   1.782   2.271
 4610SOL    HW214120   4.264   1.736   2.120
 4611SOL     OW14121   5.124   0.107   2.288
 4611SOL    HW114122   5.100   0.070   2.198
 4611SOL    HW214123   5.223   0.123   2.292
 4612SOL     OW14124   3.973   1.785   3.103
 4612SOL    HW114125   4.030   1.720   3.153
 4612SOL    HW214126   3.957   1.752   3.010
 4613SOL     OW14127   4.664   1.698   2.766
 4613SOL    HW114128   4.744   1.641   2.787
 4613SOL    HW214129   4.615   1.658   2.689
 4614SOL     OW14130   4.106   0.700   2.342
 4614SOL    HW114131   4.151   0.610   2.339
 4614SOL    HW214132   4.012   0.689   2.375
 4615SOL     OW14133   5.271   0.222   3.591
 4615SOL    HW114134   5.266   0.259   3.683
 4615SOL    HW214135   5.199   0.153   3.579
 4616SOL     OW14136   4.338   0.122   1.979
 4616SOL    HW114137   4.436   0.100   1.986
 4616SOL    HW214138   4.307   0.105   1.886
 4617SOL     OW14139   4.505   0.264   3.611
 4617SOL    HW114140   4.572   0.203   3.654
 4617SOL    HW214141   4.432   0.283   3.676
 4618SOL     OW14142   4.612   1.514   3.057
 4618SOL    HW114143   4.589   1.489   2.963
 4618SOL    HW214144   4.673   1.445   3.096
 4619SOL     OW14145   5.075   0.590   3.295
 4619SOL    HW114146   5.103   0.547   3.380
 4619SOL    HW214147   5.100   0.686   3.296
 4620SOL     OW14148   4.527   1.402   2.786
 4620SOL    HW114149   4.617   1.416   2.744
 4620SOL    HW214150   4.456   1.404   2.715
 4621SOL     OW14151   4.646   0.503   2.761
 4621SOL    HW114152   4.621   0.494   2.665
 4621SOL    HW214153   4.694   0.421   2.792
 4622SOL     OW14154   4.263   0.064   2.374
 4622SOL    HW114155   4.182   0.065   2.432
 4622SOL    HW214156   4.266   0.147   2.319
 4623SOL     OW14157   5.158   1.188   1.903
 4623SOL    HW114158   5.190   1.112   1.960
 4623SOL    HW214159   5.066   1.215   1.933
 4624SOL     OW14160   4.021   0.035   2.033
 4624SOL    HW114161   4.070   0.119   2.012
 4624SOL    HW214162   4.083  -0.030   2.078
 4625SOL     OW14163   4.659   0.236   2.342
 4625SOL    HW114164   4.611   0.277   2.264
 4625SOL    HW214165   4.758   0.234   2.323
 4626SOL     OW14166   4.800   0.683   3.326
 4626SOL    HW114167   4.720   0.622   3.329
 4626SOL    HW214168   4.881   0.630   3.302
 4627SOL     OW14169   4.951   1.570   2.655
 4627SOL    HW114170   4.972   1.644   2.590
 4627SOL    HW214171   5.019   1.570   2.728
 4628SOL     OW14172   4.183   1.152   2.603
 4628SOL    HW114173   4.112   1.125   2.668
 4628SOL    HW214174   4.157   1.124   2.510
 4629SOL     OW14175   4.995   1.797   2.453
 4629SOL    HW114176   5.039   1.861   2.389
 4629SOL    HW214177   4.945   1.849   2.523
 4630SOL     OW14178   4.756   0.549   1.878
 4630SOL    HW114179   4.715   0.631   1.839
 4630SOL    HW214180   4.820   0.575   1.951
 4631SOL     OW14181   3.802   0.556   3.248
 4631SOL    HW114182   3.894   0.555   3.207
 4631SOL    HW214183   3.796   0.630   3.315
 4632SOL     OW14184   4.285   0.222   3.009
 4632SOL    HW114185   4.323   0.138   3.046
 4632SOL    HW214186   4.197   0.241   3.053
 4633SOL     OW14187   4.590   0.454   2.504
 4633SOL    HW114188   4.558   0.526   2.442
 4633SOL    HW214189   4.614   0.373   2.451
 4634SOL     OW14190   4.741   0.039   2.615
 4634SOL    HW114191   4.669   0.044   2.546
 4634SOL    HW214192   4.717  -0.030   2.684
 4635SOL     OW14193   5.153   1.173   2.729
 4635SOL    HW114194   5.098   1.089   2.722
 4635SOL    HW214195   5.179   1.202   2.637
 4636SOL     OW14196   5.190   0.590   2.854
 4636SOL    HW114197   5.160   0.495   2.861
 4636SOL    HW214198   5.263   0.606   2.920
 4637SOL     OW14199   5.581   0.833   2.239
 4637SOL    HW114200   5.623   0.769   2.303
 4637SOL    HW214201   5.543   0.782   2.161
 4638SOL     OW14202   4.212   1.385   2.036
 4638SOL    HW114203   4.125   1.370   2.083
 4638SOL    HW214204   4.195   1.411   1.941
 4639SOL     OW14205   5.388   1.280   2.519
 4639SOL    HW114206   5.487   1.288   2.533
 4639SOL    HW214207   5.343   1.364   2.550
 4640SOL     OW14208   5.114   0.575   1.940
 4640SOL    HW114209   5.060   0.554   2.021
 4640SOL    HW214210   5.205   0.534   1.949
 4641SOL     OW14211   4.251   0.256   2.190
 4641SOL    HW114212   4.278   0.197   2.115
 4641SOL    HW214213   4.251   0.351   2.159
 4642SOL     OW14214   5.478   1.223   3.450
 4642SOL    HW114215   5.569   1.184   3.437
 4642SOL    HW214216   5.486   1.319   3.474
 4643SOL     OW14217   4.788   1.347   3.202
 4643SOL    HW114218   4.708   1.324   3.257
 4643SOL    HW214219   4.871   1.321   3.251
 4644SOL     OW14220   5.316   1.629   3.487
 4644SOL    HW114221   5.343   1.663   3.397
 4644SOL    HW214222   5.395   1.591   3.533
 4645SOL     OW14223   4.835   1.195   2.962
 4645SOL    HW114224   4.795   1.239   3.043
 4645SOL    HW214225   4.794   1.232   2.879
 4646SOL     OW14226   5.362   1.099   2.941
 4646SOL    HW114227   5.367   1.180   3.000
 4646SOL    HW214228   5.276   1.101   2.890
 4647SOL     OW14229   4.639   0.089   3.264
 4647SOL    HW114230   4.664   0.069   3.169
 4647SOL    HW214231   4.711   0.145   3.306
 4648SOL     OW14232   4.704   1.116   3.581
 4648SOL    HW114233   4.605   1.122   3.591
 4648SOL    HW214234   4.727   1.036   3.525
 4649SOL     OW14235   4.429   1.050   2.230
 4649SOL    HW114236   4.415   1.057   2.329
 4649SOL    HW214237   4.513   0.999   2.212
 4650SOL     OW14238   4.134   0.813   3.113
 4650SOL    HW114239   4.220   0.825   3.163
 4650SOL    HW214240   4.092   0.726   3.140
 4651SOL     OW14241   4.998   0.386   3.124
 4651SOL    HW114242   5.019   0.460   3.188
 4651SOL    HW214243   4.909   0.403   3.081
 4652SOL     OW14244   3.788   1.564   3.193
 4652SOL    HW114245   3.742   1.646   3.159
 4652SOL    HW214246   3.886   1.583   3.202
 4653SOL     OW14247   4.091   1.100   2.363
 4653SOL    HW114248   4.084   1.183   2.307
 4653SOL    HW214249   4.095   1.020   2.303
 4654SOL     OW14250   4.290   0.537   2.727
 4654SOL    HW114251   4.302   0.603   2.653
 4654SOL    HW214252   4.336   0.571   2.810
 4655SOL     OW14253   4.976   1.348   2.250
 4655SOL    HW114254   5.026   1.425   2.290
 4655SOL    HW214255   4.881   1.350   2.282
 4656SOL     OW14256   4.996   1.445   3.004
 4656SOL    HW114257   5.043   1.458   3.091
 4656SOL    HW214258   4.930   1.371   3.013
 4657SOL     OW14259   5.306   0.639   2.334
 4657SOL    HW114260   5.275   0.700   2.407
 4657SOL    HW214261   5.356   0.691   2.265
 4658SOL     OW14262   4.078   1.510   3.191
 4658SOL    HW114263   4.057   1.466   3.104
 4658SOL    HW214264   4.175   1.536   3.194
 4659SOL     OW14265   4.126   0.751   3.460
 4659SOL    HW114266   4.194   0.806   3.413
 4659SOL    HW214267   4.166   0.663   3.487
 4660SOL     OW14268   5.311   0.779   3.532
 4660SOL    HW114269   5.219   0.817   3.527
 4660SOL    HW214270   5.371   0.826   3.467
 4661SOL     OW14271   4.737   0.105   3.632
 4661SOL    HW114272   4.743   0.190   3.580
 4661SOL    HW214273   4.769   0.029   3.575
 4662SOL     OW14274   4.228   0.050   3.602
 4662SOL    HW114275   4.186  -0.007   3.532
 4662SOL    HW214276   4.162   0.119   3.634
 4663SOL     OW14277   4.297   0.870   2.891
 4663SOL    HW114278   4.341   0.959   2.882
 4663SOL    HW214279   4.234   0.870   2.968
 4664SOL     OW14280   5.084   0.862   2.907
 4664SOL    HW114281   5.009   0.862   2.841
 4664SOL    HW214282   5.121   0.770   2.916
 4665SOL     OW14283   4.933   0.525   2.137
 4665SOL    HW114284   4.946   0.441   2.191
 4665SOL    HW214285   4.904   0.599   2.197
 4666SOL     OW14286   4.031   0.213   3.093
 4666SOL    HW114287   4.008   0.250   3.183
 4666SOL    HW214288   4.001   0.118   3.087
 4667SOL     OW14289   3.761   1.310   3.144
 4667SOL    HW114290   3.814   1.261   3.212
 4667SOL    HW214291   3.783   1.408   3.149
 4668SOL     OW14292   4.456   0.634   2.926
 4668SOL    HW114293   4.515   0.608   2.850
 4668SOL    HW214294   4.428   0.730   2.915
 4669SOL     OW14295   5.452   0.935   3.716
 4669SOL    HW114296   5.406   0.928   3.627
 4669SOL    HW214297   5.390   0.979   3.782
 4670SOL     OW14298   4.031   0.063   2.480
 4670SOL    HW114299   4.020   0.157   2.513
 4670SOL    HW214300   4.026   0.000   2.557
 4671SOL     OW14301   5.346   0.367   2.236
 4671SOL    HW114302   5.348   0.291   2.300
 4671SOL    HW214303   5.298   0.444   2.276
 4672SOL     OW14304   4.747   0.766   2.828
 4672SOL    HW114305   4.762   0.787   2.924
 4672SOL    HW214306   4.717   0.671   2.819
 4673SOL     OW14307   4.704   1.573   3.562
 4673SOL    HW114308   4.684   1.617   3.474
 4673SOL    HW214309   4.743   1.482   3.546
 4674SOL     OW14310   5.583   1.518   3.467
 4674SOL    HW114311   5.597   1.545   3.372
 4674SOL    HW214312   5.666   1.540   3.520
 4675SOL     OW14313   4.074   0.898   3.666
 4675SOL    HW114314   4.150   0.942   3.714
 4675SOL    HW214315   4.109   0.851   3.584
 4676SOL     OW14316   5.264   0.274   1.987
 4676SOL    HW114317   5.203   0.199   2.010
 4676SOL    HW214318   5.286   0.326   2.070
 4677SOL     OW14319   5.027   0.838   1.904
 4677SOL    HW114320   5.061   0.745   1.919
 4677SOL    HW214321   5.045   0.865   1.809
 4678SOL     OW14322   4.792   1.333   2.711
 4678SOL    HW114323   4.799   1.249   2.656
 4678SOL    HW214324   4.854   1.402   2.675
 4679SOL     OW14325   4.043   0.810   2.811
 4679SOL    HW114326   4.136   0.846   2.816
 4679SOL    HW214327   4.037   0.725   2.863
 4680SOL     OW14328   4.063   0.509   2.868
 4680SOL    HW114329   4.011   0.426   2.851
 4680SOL    HW214330   4.140   0.514   2.804
 4681SOL     OW14331   4.862   0.380   3.540
 4681SOL    HW114332   4.817   0.443   3.604
 4681SOL    HW214333   4.955   0.411   3.523
 4682SOL     OW14334   4.884   0.207   3.339
 4682SOL    HW114335   4.884   0.271   3.416
 4682SOL    HW214336   4.912   0.255   3.256
 4683SOL     OW14337   3.732   1.326   2.062
 4683SOL    HW114338   3.639   1.347   2.031
 4683SOL    HW214339   3.742   1.227   2.075
 4684SOL     OW14340   3.812   1.801   2.789
 4684SOL    HW114341   3.770   1.715   2.762
 4684SOL    HW214342   3.906   1.804   2.755
 4685SOL     OW14343   4.228   1.568   2.772
 4685SOL    HW114344   4.294   1.642   2.781
 4685SOL    HW214345   4.272   1.489   2.730
 4686SOL     OW14346   4.726   0.796   3.100
 4686SOL    HW114347   4.767   0.764   3.186
 4686SOL    HW214348   4.630   0.769   3.097
 4687SOL     OW14349   3.764   0.544   2.976
 4687SOL    HW114350   3.849   0.511   2.935
 4687SOL    HW214351   3.777   0.559   3.074
 4688SOL     OW14352   3.913   0.520   3.584
 4688SOL    HW114353   3.972   0.480   3.514
 4688SOL    HW214354   3.855   0.591   3.543
 4689SOL     OW14355   5.093   0.950   3.522
 4689SOL    HW114356   5.132   1.039   3.542
 4689SOL    HW214357   5.103   0.930   3.425
 4690SOL     OW14358   4.539   0.572   2.187
 4690SOL    HW114359   4.546   0.483   2.141
 4690SOL    HW214360   4.445   0.606   2.179
 4691SOL     OW14361   5.381   0.604   3.068
 4691SOL    HW114362   5.343   0.535   3.130
 4691SOL    HW214363   5.463   0.568   3.024
 4692SOL     OW14364   3.976   1.564   3.606
 4692SOL    HW114365   3.946   1.621   3.682
 4692SOL    HW214366   3.969   1.467   3.632
 4693SOL     OW14367   4.395   0.464   3.131
 4693SOL    HW114368   4.361   0.375   3.101
 4693SOL    HW214369   4.421   0.518   3.051
 4694SOL     OW14370   4.654   1.678   3.327
 4694SOL    HW114371   4.630   1.660   3.232
 4694SOL    HW214372   4.684   1.772   3.337
 4695SOL     OW14373   4.197   0.500   2.053
 4695SOL    HW114374   4.258   0.580   2.057
 4695SOL    HW214375   4.102   0.531   2.060
 4696SOL     OW14376   3.883   1.137   3.328
 4696SOL    HW114377   3.905   1.076   3.404
 4696SOL    HW214378   3.893   1.088   3.242
 4697SOL     OW14379   5.071   1.059   3.096
 4697SOL    HW114380   5.095   0.996   3.022
 4697SOL    HW214381   4.981   1.099   3.078
 4698SOL     OW14382   5.026   0.855   2.171
 4698SOL    HW114383   4.940   0.824   2.213
 4698SOL    HW214384   5.022   0.841   2.072
 4699SOL     OW14385   5.483   1.747   3.016
 4699SOL    HW114386   5.544   1.777   2.943
 4699SOL    HW214387   5.445   1.658   2.994
 4700SOL     OW14388   4.976   1.731   2.990
 4700SOL    HW114389   5.060   1.736   2.936
 4700SOL    HW214390   4.953   1.635   3.008
 4701SOL     OW14391   3.807   1.258   2.884
 4701SOL    HW114392   3.802   1.257   2.984
 4701SOL    HW214393   3.724   1.217   2.846
 4702SOL     OW14394   4.412   1.662   3.578
 4702SOL    HW114395   4.356   1.743   3.587
 4702SOL    HW214396   4.464   1.666   3.492
 4703SOL     OW14397   5.450   0.135   2.385
 4703SOL    HW114398   5.523   0.118   2.318
 4703SOL    HW214399   5.419   0.048   2.423
 4704SOL     OW14400   5.112   1.573   2.339
 4704SOL    HW114401   5.179   1.585   2.265
 4704SOL    HW214402   5.072   1.662   2.362
 4705SOL     OW14403   3.854   1.794   3.713
 4705SOL    HW114404   3.813   1.720   3.766
 4705SOL    HW214405   3.918   1.845   3.771
 4706SOL     OW14406   5.004   0.927   2.534
 4706SOL    HW114407   5.064   0.846   2.536
 4706SOL    HW214408   5.044   0.996   2.474
 4707SOL     OW14409   4.554   1.273   3.284
 4707SOL    HW114410   4.549   1.306   3.379
 4707SOL    HW214411   4.468   1.292   3.238
 4708SOL     OW14412   4.396   1.616   2.016
 4708SOL    HW114413   4.405   1.626   1.917
 4708SOL    HW214414   4.356   1.527   2.037
 4709SOL     OW14415   5.374   1.720   3.256
 4709SOL    HW114416   5.427   1.730   3.172
 4709SOL    HW214417   5.347   1.810   3.290
 4710SOL     OW14418   5.565   0.175   2.825
 4710SOL    HW114419   5.604   0.090   2.789
 4710SOL    HW214420   5.467   0.177   2.806
 4711SOL     OW14421   3.987   0.326   2.582
 4711SOL    HW114422   3.908   0.377   2.548
 4711SOL    HW214423   3.978   0.311   2.680
 4712SOL     OW14424   4.918   1.612   1.893
 4712SOL    HW114425   4.924   1.519   1.930
 4712SOL    HW214426   4.859   1.612   1.813
 4713SOL     OW14427   4.546   1.002   3.234
 4713SOL    HW114428   4.586   1.001   3.142
 4713SOL    HW214429   4.556   1.094   3.274
 4714SOL     OW14430   4.640   0.910   2.153
 4714SOL    HW114431   4.703   0.948   2.085
 4714SOL    HW214432   4.680   0.827   2.192
 4715SOL     OW14433   5.228   1.607   1.906
 4715SOL    HW114434   5.136   1.644   1.913
 4715SOL    HW214435   5.266   1.627   1.816
 4716SOL     OW14436   4.096   1.288   3.352
 4716SOL    HW114437   4.083   1.381   3.318
 4716SOL    HW214438   4.012   1.236   3.339
 4717SOL     OW14439   5.338   1.292   3.151
 4717SOL    HW114440   5.398   1.295   3.231
 4717SOL    HW214441   5.263   1.356   3.164
 4718SOL     OW14442   4.763   1.098   2.558
 4718SOL    HW114443   4.693   1.051   2.612
 4718SOL    HW214444   4.822   1.030   2.515
 4719SOL     OW14445   4.738   0.236   2.833
 4719SOL    HW114446   4.730   0.200   2.740
 4719SOL    HW214447   4.736   0.160   2.898
 4720SOL     OW14448   4.314   1.487   2.353
 4720SOL    HW114449   4.356   1.429   2.283
 4720SOL    HW214450   4.270   1.566   2.309
 4721SOL     OW14451   5.433   0.385   3.243
 4721SOL    HW114452   5.506   0.454   3.247
 4721SOL    HW214453   5.461   0.310   3.184
 4722SOL     OW14454   3.979   1.348   2.152
 4722SOL    HW114455   3.883   1.349   2.125
 4722SOL    HW214456   3.991   1.401   2.236
 4723SOL     OW14457   3.829   1.013   3.588
 4723SOL    HW114458   3.752   0.980   3.642
 4723SOL    HW214459   3.914   0.983   3.630
 4724SOL     OW14460   4.396   0.203   3.351
 4724SOL    HW114461   4.486   0.187   3.311
 4724SOL    HW214462   4.404   0.208   3.450
 4725SOL     OW14463   3.799   0.345   1.895
 4725SOL    HW114464   3.707   0.317   1.866
 4725SOL    HW214465   3.830   0.422   1.839
 4726SOL     OW14466   5.164   0.856   3.260
 4726SOL    HW114467   5.107   0.908   3.197
 4726SOL    HW214468   5.260   0.868   3.236
 4727SOL     OW14469   3.796   0.166   2.180
 4727SOL    HW114470   3.779   0.249   2.126
 4727SOL    HW214471   3.886   0.129   2.158
 4728SOL     OW14472   4.907   1.335   1.981
 4728SOL    HW114473   4.808   1.324   1.983
 4728SOL    HW214474   4.941   1.350   2.074
 4729SOL     OW14475   4.337   0.842   3.293
 4729SOL    HW114476   4.393   0.923   3.276
 4729SOL    HW214477   4.396   0.762   3.296
 4730SOL     OW14478   5.217   1.767   2.821
 4730SOL    HW114479   5.250   1.831   2.752
 4730SOL    HW214480   5.283   1.761   2.896
 4731SOL     OW14481   4.440   0.565   3.570
 4731SOL    HW114482   4.459   0.630   3.644
 4731SOL    HW214483   4.500   0.485   3.579
 4732SOL     OW14484   5.174   1.220   3.495
 4732SOL    HW114485   5.165   1.210   3.594
 4732SOL    HW214486   5.270   1.213   3.469
 4733SOL     OW14487   4.114   1.741   3.422
 4733SOL    HW114488   4.023   1.782   3.420
 4733SOL    HW214489   4.107   1.647   3.454
 4734SOL     OW14490   5.398   0.883   3.116
 4734SOL    HW114491   5.371   0.794   3.079
 4734SOL    HW214492   5.399   0.951   3.043
 4735SOL     OW14493   4.949   0.325   2.311
 4735SOL    HW114494   5.014   0.251   2.300
 4735SOL    HW214495   4.969   0.375   2.395
 4736SOL     OW14496   4.318   0.745   2.514
 4736SOL    HW114497   4.368   0.830   2.495
 4736SOL    HW214498   4.230   0.747   2.466
 4737SOL     OW14499   5.501   0.342   3.504
 4737SOL    HW114500   5.484   0.373   3.410
 4737SOL    HW214501   5.417   0.305   3.542
 4738SOL     OW14502   5.454   0.934   3.379
 4738SOL    HW114503   5.492   1.025   3.394
 4738SOL    HW214504   5.446   0.917   3.280
 4739SOL     OW14505   4.583   1.374   1.878
 4739SOL    HW114506   4.537   1.389   1.966
 4739SOL    HW214507   4.627   1.459   1.848
 4740SOL     OW14508   4.385   1.790   2.815
 4740SOL    HW114509   4.339   1.878   2.802
 4740SOL    HW214510   4.484   1.802   2.808
 4741SOL     OW14511   4.583   0.956   2.723
 4741SOL    HW114512   4.637   0.887   2.771
 4741SOL    HW214513   4.551   1.025   2.789
 4742SOL     OW14514   4.807   0.984   1.949
 4742SOL    HW114515   4.784   1.037   1.867
 4742SOL    HW214516   4.888   0.928   1.930
 4743SOL     OW14517   5.585   1.569   2.713
 4743SOL    HW114518   5.514   1.557   2.643
 4743SOL    HW214519   5.586   1.490   2.773
 4744SOL     OW14520   3.945   1.314   3.706
 4744SOL    HW114521   3.880   1.241   3.685
 4744SOL    HW214522   3.949   1.328   3.804
 4745SOL     OW14523   3.803   1.240   2.515
 4745SOL    HW114524   3.802   1.193   2.603
 4745SOL    HW214525   3.885   1.212   2.464
 4746SOL     OW14526   4.396   1.391   3.486
 4746SOL    HW114527   4.318   1.341   3.524
 4746SOL    HW214528   4.393   1.486   3.517
 4747SOL     OW14529   5.548   0.192   3.089
 4747SOL    HW114530   5.544   0.102   3.133
 4747SOL    HW214531   5.551   0.181   2.990
 4748SOL     OW14532   4.152   0.424   2.382
 4748SOL    HW114533   4.182   0.352   2.320
 4748SOL    HW214534   4.113   0.384   2.465
 4749SOL     OW14535   5.429   1.487   2.966
 4749SOL    HW114536   5.336   1.462   2.939
 4749SOL    HW214537   5.455   1.437   3.048
 4750SOL     OW14538   4.041   0.547   3.142
 4750SOL    HW114539   4.079   0.488   3.214
 4750SOL    HW214540   4.081   0.521   3.054
 4751SOL     OW14541   4.536   1.586   2.549
 4751SOL    HW114542   4.568   1.596   2.455
 4751SOL    HW214543   4.457   1.524   2.551
 4752SOL     OW14544   5.148   0.214   2.974
 4752SOL    HW114545   5.200   0.149   3.029
 4752SOL    HW214546   5.099   0.277   3.035
 4753SOL     OW14547   4.725   0.034   3.016
 4753SOL    HW114548   4.662  -0.038   2.985
 4753SOL    HW214549   4.818  -0.002   3.016
 4754SOL     OW14550   4.494   1.330   2.163
 4754SOL    HW114551   4.448   1.243   2.180
 4754SOL    HW214552   4.585   1.327   2.204
 4755SOL     OW14553   4.342   1.567   3.146
 4755SOL    HW114554   4.337   1.649   3.203
 4755SOL    HW214555   4.431   1.564   3.101
 4756SOL     OW14556   5.076   0.052   2.030
 4756SOL    HW114557   5.111   0.011   1.946
 4756SOL    HW214558   4.986   0.014   2.050
 4757SOL     OW14559   5.024   0.453   2.553
 4757SOL    HW114560   4.965   0.533   2.557
 4757SOL    HW214561   5.039   0.418   2.646
 4758SOL     OW14562   5.317   0.221   2.744
 4758SOL    HW114563   5.233   0.220   2.798
 4758SOL    HW214564   5.319   0.304   2.688
 4759SOL     OW14565   3.763   1.077   2.162
 4759SOL    HW114566   3.862   1.066   2.153
 4759SOL    HW214567   3.723   0.991   2.194
 4760SOL     OW14568   4.599   1.646   2.199
 4760SOL    HW114569   4.522   1.611   2.145
 4760SOL    HW214570   4.567   1.717   2.261
 4761SOL     OW14571   3.954   0.628   3.837
 4761SOL    HW114572   3.861   0.626   3.874
 4761SOL    HW214573   3.955   0.589   3.745
 4762SOL     OW14574   3.949   0.275   4.720
 4762SOL    HW114575   3.984   0.258   4.812
 4762SOL    HW214576   3.861   0.230   4.708
 4763SOL     OW14577   3.743   0.368   4.371
 4763SOL    HW114578   3.661   0.411   4.410
 4763SOL    HW214579   3.715   0.295   4.308
 4764SOL     OW14580   4.293   1.275   4.889
 4764SOL    HW114581   4.200   1.268   4.852
 4764SOL    HW214582   4.304   1.364   4.933
 4765SOL     OW14583   5.279   1.511   4.427
 4765SOL    HW114584   5.222   1.495   4.508
 4765SOL    HW214585   5.220   1.521   4.347
 4766SOL     OW14586   4.859   0.703   4.441
 4766SOL    HW114587   4.916   0.781   4.416
 4766SOL    HW214588   4.799   0.729   4.517
 4767SOL     OW14589   5.479   0.607   3.955
 4767SOL    HW114590   5.467   0.594   3.856
 4767SOL    HW214591   5.449   0.526   4.004
 4768SOL     OW14592   4.492   1.144   4.747
 4768SOL    HW114593   4.414   1.161   4.807
 4768SOL    HW214594   4.526   1.231   4.711
 4769SOL     OW14595   4.574   0.798   5.547
 4769SOL    HW114596   4.570   0.874   5.612
 4769SOL    HW214597   4.596   0.834   5.456
 4770SOL     OW14598   4.409   1.012   4.389
 4770SOL    HW114599   4.478   0.996   4.459
 4770SOL    HW214600   4.336   1.069   4.427
 4771SOL     OW14601   4.410   1.161   5.527
 4771SOL    HW114602   4.470   1.240   5.541
 4771SOL    HW214603   4.324   1.192   5.486
 4772SOL     OW14604   4.059   1.435   4.785
 4772SOL    HW114605   3.981   1.404   4.732
 4772SOL    HW214606   4.117   1.493   4.728
 4773SOL     OW14607   5.184   1.505   5.063
 4773SOL    HW114608   5.208   1.599   5.089
 4773SOL    HW214609   5.168   1.451   5.145
 4774SOL     OW14610   4.162   0.392   5.223
 4774SOL    HW114611   4.244   0.336   5.232
 4774SOL    HW214612   4.081   0.334   5.227
 4775SOL     OW14613   5.327   0.447   4.461
 4775SOL    HW114614   5.253   0.493   4.411
 4775SOL    HW214615   5.378   0.515   4.514
 4776SOL     OW14616   3.955   1.713   4.207
 4776SOL    HW114617   3.989   1.790   4.261
 4776SOL    HW214618   3.999   1.713   4.117
 4777SOL     OW14619   4.851   1.341   5.414
 4777SOL    HW114620   4.898   1.341   5.502
 4777SOL    HW214621   4.803   1.254   5.403
 4778SOL     OW14622   3.954   1.434   4.262
 4778SOL    HW114623   3.928   1.530   4.262
 4778SOL    HW214624   3.883   1.380   4.307
 4779SOL     OW14625   3.964   1.091   4.610
 4779SOL    HW114626   3.978   1.007   4.662
 4779SOL    HW214627   3.909   1.155   4.665
 4780SOL     OW14628   4.344   1.786   5.163
 4780SOL    HW114629   4.252   1.769   5.198
 4780SOL    HW214630   4.372   1.878   5.189
 4781SOL     OW14631   4.330   0.964   3.847
 4781SOL    HW114632   4.337   1.048   3.793
 4781SOL    HW214633   4.376   0.977   3.935
 4782SOL     OW14634   5.318   0.114   5.204
 4782SOL    HW114635   5.300   0.181   5.132
 4782SOL    HW214636   5.315   0.160   5.293
 4783SOL     OW14637   3.846   0.643   4.287
 4783SOL    HW114638   3.801   0.555   4.304
 4783SOL    HW214639   3.845   0.697   4.371
 4784SOL     OW14640   5.566   1.767   4.083
 4784SOL    HW114641   5.620   1.738   4.163
 4784SOL    HW214642   5.596   1.857   4.054
 4785SOL     OW14643   3.751   1.596   3.841
 4785SOL    HW114644   3.732   1.500   3.862
 4785SOL    HW214645   3.718   1.654   3.916
 4786SOL     OW14646   5.413   0.922   4.336
 4786SOL    HW114647   5.508   0.893   4.344
 4786SOL    HW214648   5.405   0.987   4.261
 4787SOL     OW14649   5.365   1.108   4.156
 4787SOL    HW114650   5.451   1.110   4.104
 4787SOL    HW214651   5.379   1.155   4.244
 4788SOL     OW14652   3.837   0.737   5.321
 4788SOL    HW114653   3.925   0.724   5.366
 4788SOL    HW214654   3.824   0.834   5.299
 4789SOL     OW14655   4.337   1.365   4.450
 4789SOL    HW114656   4.288   1.278   4.459
 4789SOL    HW214657   4.314   1.408   4.363
 4790SOL     OW14658   5.017   1.228   5.147
 4790SOL    HW114659   5.054   1.155   5.089
 4790SOL    HW214660   5.069   1.233   5.232
 4791SOL     OW14661   4.533   0.004   4.226
 4791SOL    HW114662   4.573   0.095   4.217
 4791SOL    HW214663   4.433   0.012   4.232
 4792SOL     OW14664   3.921   0.976   4.988
 4792SOL    HW114665   4.010   0.931   4.974
 4792SOL    HW214666   3.848   0.911   4.969
 4793SOL     OW14667   5.249   0.999   3.914
 4793SOL    HW114668   5.186   0.923   3.927
 4793SOL    HW214669   5.297   1.017   4.000
 4794SOL     OW14670   4.911   1.792   5.340
 4794SOL    HW114671   4.935   1.852   5.264
 4794SOL    HW214672   4.918   1.697   5.310
 4795SOL     OW14673   4.041   0.251   5.525
 4795SOL    HW114674   4.112   0.322   5.531
 4795SOL    HW214675   3.953   0.290   5.553
 4796SOL     OW14676   5.190   1.417   4.677
 4796SOL    HW114677   5.131   1.423   4.757
 4796SOL    HW214678   5.175   1.329   4.631
 4797SOL     OW14679   5.391   1.714   4.296
 4797SOL    HW114680   5.350   1.691   4.208
 4797SOL    HW214681   5.373   1.640   4.361
 4798SOL     OW14682   4.322   0.729   3.994
 4798SOL    HW114683   4.346   0.798   3.926
 4798SOL    HW214684   4.244   0.762   4.048
 4799SOL     OW14685   5.005   0.345   4.668
 4799SOL    HW114686   4.919   0.295   4.655
 4799SOL    HW214687   5.067   0.291   4.724
 4800SOL     OW14688   5.300   1.662   4.031
 4800SOL    HW114689   5.389   1.708   4.034
 4800SOL    HW214690   5.279   1.638   3.936
 4801SOL     OW14691   4.531   0.605   5.189
 4801SOL    HW114692   4.484   0.602   5.278
 4801SOL    HW214693   4.480   0.550   5.123
 4802SOL     OW14694   5.118   0.469   5.398
 4802SOL    HW114695   5.098   0.512   5.486
 4802SOL    HW214696   5.196   0.407   5.407
 4803SOL     OW14697   4.697   0.890   5.296
 4803SOL    HW114698   4.743   0.806   5.267
 4803SOL    HW214699   4.641   0.924   5.221
 4804SOL     OW14700   4.715   0.410   4.966
 4804SOL    HW114701   4.638   0.444   5.020
 4804SOL    HW214702   4.681   0.359   4.887
 4805SOL     OW14703   4.765   0.701   4.153
 4805SOL    HW114704   4.791   0.697   4.249
 4805SOL    HW214705   4.680   0.650   4.139
 4806SOL     OW14706   3.800   0.811   4.513
 4806SOL    HW114707   3.899   0.799   4.522
 4806SOL    HW214708   3.776   0.906   4.534
 4807SOL     OW14709   3.854   1.821   5.295
 4807SOL    HW114710   3.844   1.806   5.394
 4807SOL    HW214711   3.768   1.857   5.259
 4808SOL     OW14712   4.589   0.348   3.919
 4808SOL    HW114713   4.648   0.411   3.870
 4808SOL    HW214714   4.608   0.254   3.890
 4809SOL     OW14715   5.443   0.585   5.555
 4809SOL    HW114716   5.417   0.674   5.519
 4809SOL    HW214717   5.441   0.517   5.482
 4810SOL     OW14718   5.086   1.144   4.269
 4810SOL    HW114719   5.169   1.115   4.221
 4810SOL    HW214720   5.037   1.211   4.213
 4811SOL     OW14721   4.274   0.196   4.609
 4811SOL    HW114722   4.269   0.191   4.709
 4811SOL    HW214723   4.276   0.292   4.580
 4812SOL     OW14724   4.732   1.456   4.201
 4812SOL    HW114725   4.686   1.528   4.149
 4812SOL    HW214726   4.728   1.476   4.299
 4813SOL     OW14727   4.075   1.801   4.577
 4813SOL    HW114728   4.125   1.715   4.583
 4813SOL    HW214729   4.140   1.878   4.574
 4814SOL     OW14730   5.519   1.066   4.597
 4814SOL    HW114731   5.457   1.051   4.521
 4814SOL    HW214732   5.467   1.077   4.682
 4815SOL     OW14733   4.951   1.550   5.230
 4815SOL    HW114734   4.957   1.473   5.294
 4815SOL    HW214735   4.899   1.524   5.150
 4816SOL     OW14736   4.045   0.943   3.966
 4816SOL    HW114737   4.127   0.982   3.924
 4816SOL    HW214738   4.018   0.861   3.917
 4817SOL     OW14739   5.182   0.735   4.452
 4817SOL    HW114740   5.177   0.670   4.527
 4817SOL    HW214741   5.262   0.794   4.465
 4818SOL     OW14742   4.185   1.266   5.451
 4818SOL    HW114743   4.135   1.267   5.365
 4818SOL    HW214744   4.122   1.248   5.527
 4819SOL     OW14745   4.835   1.776   3.961
 4819SOL    HW114746   4.775   1.714   4.011
 4819SOL    HW214747   4.866   1.732   3.876
 4820SOL     OW14748   3.926   0.285   5.222
 4820SOL    HW114749   3.846   0.345   5.209
 4820SOL    HW214750   3.916   0.236   5.308
 4821SOL     OW14751   5.356   1.377   3.805
 4821SOL    HW114752   5.324   1.471   3.795
 4821SOL    HW214753   5.280   1.314   3.793
 4822SOL     OW14754   4.188   1.743   4.047
 4822SOL    HW114755   4.221   1.782   4.133
 4822SOL    HW214756   4.264   1.736   3.982
 4823SOL     OW14757   5.124   0.107   4.150
 4823SOL    HW114758   5.100   0.070   4.060
 4823SOL    HW214759   5.223   0.123   4.154
 4824SOL     OW14760   3.973   1.785   4.965
 4824SOL    HW114761   4.030   1.720   5.015
 4824SOL    HW214762   3.957   1.752   4.872
 4825SOL     OW14763   4.664   1.698   4.628
 4825SOL    HW114764   4.744   1.641   4.649
 4825SOL    HW214765   4.615   1.658   4.551
 4826SOL     OW14766   4.106   0.700   4.204
 4826SOL    HW114767   4.151   0.610   4.201
 4826SOL    HW214768   4.012   0.689   4.237
 4827SOL     OW14769   5.271   0.222   5.453
 4827SOL    HW114770   5.266   0.259   5.545
 4827SOL    HW214771   5.199   0.153   5.441
 4828SOL     OW14772   4.338   0.122   3.841
 4828SOL    HW114773   4.436   0.100   3.848
 4828SOL    HW214774   4.307   0.105   3.748
 4829SOL     OW14775   4.505   0.264   5.473
 4829SOL    HW114776   4.572   0.203   5.516
 4829SOL    HW214777   4.432   0.283   5.538
 4830SOL     OW14778   4.612   1.514   4.919
 4830SOL    HW114779   4.589   1.489   4.825
 4830SOL    HW214780   4.673   1.445   4.958
 4831SOL     OW14781   5.075   0.590   5.157
 4831SOL    HW114782   5.103   0.547   5.242
 4831SOL    HW214783   5.100   0.686   5.158
 4832SOL     OW14784   4.527   1.402   4.648
 4832SOL    HW114785   4.617   1.416   4.606
 4832SOL    HW214786   4.456   1.404   4.577
 4833SOL     OW14787   4.646   0.503   4.623
 4833SOL    HW114788   4.621   0.494   4.527
 4833SOL    HW214789   4.694   0.421   4.654
 4834SOL     OW14790   4.263   0.064   4.236
 4834SOL    HW114791   4.182   0.065   4.294
 4834SOL    HW214792   4.266   0.147   4.181
 4835SOL     OW14793   5.158   1.188   3.765
 4835SOL    HW114794   5.190   1.112   3.822
 4835SOL    HW214795   5.066   1.215   3.795
 4836SOL     OW14796   4.021   0.035   3.895
 4836SOL    HW114797   4.070   0.119   3.874
 4836SOL    HW214798   4.083  -0.030   3.940
 4837SOL     OW14799   4.659   0.236   4.204
 4837SOL    HW114800   4.611   0.277   4.126
 4837SOL    HW214801   4.758   0.234   4.185
 4838SOL     OW14802   4.800   0.683   5.188
 4838SOL    HW114803   4.720   0.622   5.191
 4838SOL    HW214804   4.881   0.630   5.164
 4839SOL     OW14805   4.951   1.570   4.517
 4839SOL    HW114806   4.972   1.644   4.452
 4839SOL    HW214807   5.019   1.570   4.590
 4840SOL     OW14808   4.183   1.152   4.465
 4840SOL    HW114809   4.112   1.125   4.530
 4840SOL    HW214810   4.157   1.124   4.372
 4841SOL     OW14811   4.995   1.797   4.315
 4841SOL    HW114812   5.039   1.861   4.251
 4841SOL    HW214813   4.945   1.849   4.385
 4842SOL     OW14814   4.756   0.549   3.740
 4842SOL    HW114815   4.715   0.631   3.701
 4842SOL    HW214816   4.820   0.575   3.813
 4843SOL     OW14817   3.802   0.556   5.110
 4843SOL    HW114818   3.894   0.555   5.069
 4843SOL    HW214819   3.796   0.630   5.177
 4844SOL     OW14820   4.285   0.222   4.871
 4844SOL    HW114821   4.323   0.138   4.908
 4844SOL    HW214822   4.197   0.241   4.915
 4845SOL     OW14823   4.590   0.454   4.366
 4845SOL    HW114824   4.558   0.526   4.304
 4845SOL    HW214825   4.614   0.373   4.313
 4846SOL     OW14826   4.741   0.039   4.477
 4846SOL    HW114827   4.669   0.044   4.408
 4846SOL    HW214828   4.717  -0.030   4.546
 4847SOL     OW14829   5.153   1.173   4.591
 4847SOL    HW114830   5.098   1.089   4.584
 4847SOL    HW214831   5.179   1.202   4.499
 4848SOL     OW14832   5.190   0.590   4.716
 4848SOL    HW114833   5.160   0.495   4.723
 4848SOL    HW214834   5.263   0.606   4.782
 4849SOL     OW14835   5.581   0.833   4.101
 4849SOL    HW114836   5.623   0.769   4.165
 4849SOL    HW214837   5.543   0.782   4.023
 4850SOL     OW14838   4.212   1.385   3.898
 4850SOL    HW114839   4.125   1.370   3.945
 4850SOL    HW214840   4.195   1.411   3.803
 4851SOL     OW14841   5.388   1.280   4.381
 4851SOL    HW114842   5.487   1.288   4.395
 4851SOL    HW214843   5.343   1.364   4.412
 4852SOL     OW14844   5.114   0.575   3.802
 4852SOL    HW114845   5.060   0.554   3.883
 4852SOL    HW214846   5.205   0.534   3.811
 4853SOL     OW14847   4.251   0.256   4.052
 4853SOL    HW114848   4.278   0.197   3.977
 4853SOL    HW214849   4.251   0.351   4.021
 4854SOL     OW14850   5.478   1.223   5.312
 4854SOL    HW114851   5.569   1.184   5.299
 4854SOL    HW214852   5.486   1.319   5.336
 4855SOL     OW14853   4.788   1.347   5.064
 4855SOL    HW114854   4.708   1.324   5.119
 4855SOL    HW214855   4.871   1.321   5.113
 4856SOL     OW14856   5.316   1.629   5.349
 4856SOL    HW114857   5.343   1.663   5.259
 4856SOL    HW214858   5.395   1.591   5.395
 4857SOL     OW14859   4.835   1.195   4.824
 4857SOL    HW114860   4.795   1.239   4.905
 4857SOL    HW214861   4.794   1.232   4.741
 4858SOL     OW14862   5.362   1.099   4.803
 4858SOL    HW114863   5.367   1.180   4.862
 4858SOL    HW214864   5.276   1.101   4.752
 4859SOL     OW14865   4.639   0.089   5.126
 4859SOL    HW114866   4.664   0.069   5.031
 4859SOL    HW214867   4.711   0.145   5.168
 4860SOL     OW14868   4.704   1.116   5.443
 4860SOL    HW114869   4.605   1.122   5.453
 4860SOL    HW214870   4.727   1.036   5.387
 4861SOL     OW14871   4.429   1.050   4.092
 4861SOL    HW114872   4.415   1.057   4.191
 4861SOL    HW214873   4.513   0.999   4.074
 4862SOL     OW14874   4.134   0.813   4.975
 4862SOL    HW114875   4.220   0.825   5.025
 4862SOL    HW214876   4.092   0.726   5.002
 4863SOL     OW14877   4.998   0.386   4.986
 4863SOL    HW114878   5.019   0.460   5.050
 4863SOL    HW214879   4.909   0.403   4.943
 4864SOL     OW14880   3.788   1.564   5.055
 4864SOL    HW114881   3.742   1.646   5.021
 4864SOL    HW214882   3.886   1.583   5.064
 4865SOL     OW14883   4.091   1.100   4.225
 4865SOL    HW114884   4.084   1.183   4.169
 4865SOL    HW214885   4.095   1.020   4.165
 4866SOL     OW14886   4.290   0.537   4.589
 4866SOL    HW114887   4.302   0.603   4.515
 4866SOL    HW214888   4.336   0.571   4.672
 4867SOL     OW14889   4.976   1.348   4.112
 4867SOL    HW114890   5.026   1.425   4.152
 4867SOL    HW214891   4.881   1.350   4.144
 4868SOL     OW14892   4.996   1.445   4.866
 4868SOL    HW114893   5.043   1.458   4.953
 4868SOL    HW214894   4.930   1.371   4.875
 4869SOL     OW14895   5.306   0.639   4.196
 4869SOL    HW114896   5.275   0.700   4.269
 4869SOL    HW214897   5.356   0.691   4.127
 4870SOL     OW14898   4.078   1.510   5.053
 4870SOL    HW114899   4.057   1.466   4.966
 4870SOL    HW214900   4.175   1.536   5.056
 4871SOL     OW14901   4.126   0.751   5.322
 4871SOL    HW114902   4.194   0.806   5.275
 4871SOL    HW214903   4.166   0.663   5.349
 4872SOL     OW14904   5.311   0.779   5.394
 4872SOL    HW114905   5.219   0.817   5.389
 4872SOL    HW214906   5.371   0.826   5.329
 4873SOL     OW14907   4.737   0.105   5.494
 4873SOL    HW114908   4.743   0.190   5.442
 4873SOL    HW214909   4.769   0.029   5.437
 4874SOL     OW14910   4.228   0.050   5.464
 4874SOL    HW114911   4.186  -0.007   5.394
 4874SOL    HW214912   4.162   0.119   5.496
 4875SOL     OW14913   4.297   0.870   4.753
 4875SOL    HW114914   4.341   0.959   4.744
 4875SOL    HW214915   4.234   0.870   4.830
 4876SOL     OW14916   5.084   0.862   4.769
 4876SOL    HW114917   5.009   0.862   4.703
 4876SOL    HW214918   5.121   0.770   4.778
 4877SOL     OW14919   4.933   0.525   3.999
 4877SOL    HW114920   4.946   0.441   4.053
 4877SOL    HW214921   4.904   0.599   4.059
 4878SOL     OW14922   4.031   0.213   4.955
 4878SOL    HW114923   4.008   0.250   5.045
 4878SOL    HW214924   4.001   0.118   4.949
 4879SOL     OW14925   3.761   1.310   5.006
 4879SOL    HW114926   3.814   1.261   5.074
 4879SOL    HW214927   3.783   1.408   5.011
 4880SOL     OW14928   4.456   0.634   4.788
 4880SOL    HW114929   4.515   0.608   4.712
 4880SOL    HW214930   4.428   0.730   4.777
 4881SOL     OW14931   5.452   0.935   5.578
 4881SOL    HW114932   5.406   0.928   5.489
 4881SOL    HW214933   5.390   0.979   5.644
 4882SOL     OW14934   4.031   0.063   4.342
 4882SOL    HW114935   4.020   0.157   4.375
 4882SOL    HW214936   4.026   0.000   4.419
 4883SOL     OW14937   5.346   0.367   4.098
 4883SOL    HW114938   5.348   0.291   4.162
 4883SOL    HW214939   5.298   0.444   4.138
 4884SOL     OW14940   4.747   0.766   4.690
 4884SOL    HW114941   4.762   0.787   4.786
 4884SOL    HW214942   4.717   0.671   4.681
 4885SOL     OW14943   4.704   1.573   5.424
 4885SOL    HW114944   4.684   1.617   5.336
 4885SOL    HW214945   4.743   1.482   5.408
 4886SOL     OW14946   5.583   1.518   5.329
 4886SOL    HW114947   5.597   1.545   5.234
 4886SOL    HW214948   5.666   1.540   5.382
 4887SOL     OW14949   4.074   0.898   5.528
 4887SOL    HW114950   4.150   0.942   5.576
 4887SOL    HW214951   4.109   0.851   5.446
 4888SOL     OW14952   5.264   0.274   3.849
 4888SOL    HW114953   5.203   0.199   3.872
 4888SOL    HW214954   5.286   0.326   3.932
 4889SOL     OW14955   5.027   0.838   3.766
 4889SOL    HW114956   5.061   0.745   3.781
 4889SOL    HW214957   5.045   0.865   3.671
 4890SOL     OW14958   4.792   1.333   4.573
 4890SOL    HW114959   4.799   1.249   4.518
 4890SOL    HW214960   4.854   1.402   4.537
 4891SOL     OW14961   4.043   0.810   4.673
 4891SOL    HW114962   4.136   0.846   4.678
 4891SOL    HW214963   4.037   0.725   4.725
 4892SOL     OW14964   4.063   0.509   4.730
 4892SOL    HW114965   4.011   0.426   4.713
 4892SOL    HW214966   4.140   0.514   4.666
 4893SOL     OW14967   4.862   0.380   5.402
 4893SOL    HW114968   4.817   0.443   5.466
 4893SOL    HW214969   4.955   0.411   5.385
 4894SOL     OW14970   4.884   0.207   5.201
 4894SOL    HW114971   4.884   0.271   5.278
 4894SOL    HW214972   4.912   0.255   5.118
 4895SOL     OW14973   3.732   1.326   3.924
 4895SOL    HW114974   3.639   1.347   3.893
 4895SOL    HW214975   3.742   1.227   3.937
 4896SOL     OW14976   3.812   1.801   4.651
 4896SOL    HW114977   3.770   1.715   4.624
 4896SOL    HW214978   3.906   1.804   4.617
 4897SOL     OW14979   4.228   1.568   4.634
 4897SOL    HW114980   4.294   1.642   4.643
 4897SOL    HW214981   4.272   1.489   4.592
 4898SOL     OW14982   4.726   0.796   4.962
 4898SOL    HW114983   4.767   0.764   5.048
 4898SOL    HW214984   4.630   0.769   4.959
 4899SOL     OW14985   3.764   0.544   4.838
 4899SOL    HW114986   3.849   0.511   4.797
 4899SOL    HW214987   3.777   0.559   4.936
 4900SOL     OW14988   3.913   0.520   5.446
 4900SOL    HW114989   3.972   0.480   5.376
 4900SOL    HW214990   3.855   0.591   5.405
 4901SOL     OW14991   5.093   0.950   5.384
 4901SOL    HW114992   5.132   1.039   5.404
 4901SOL    HW214993   5.103   0.930   5.287
 4902SOL     OW14994   4.539   0.572   4.049
 4902SOL    HW114995   4.546   0.483   4.003
 4902SOL    HW214996   4.445   0.606   4.041
 4903SOL     OW14997   5.381   0.604   4.930
 4903SOL    HW114998   5.343   0.535   4.992
 4903SOL    HW214999   5.463   0.568   4.886
 4904SOL     OW15000   3.976   1.564   5.468
 4904SOL    HW115001   3.946   1.621   5.544
 4904SOL    HW215002   3.969   1.467   5.494
 4905SOL     OW15003   4.395   0.464   4.993
 4905SOL    HW115004   4.361   0.375   4.963
 4905SOL    HW215005   4.421   0.518   4.913
 4906SOL     OW15006   4.654   1.678   5.189
 4906SOL    HW115007   4.630   1.660   5.094
 4906SOL    HW215008   4.684   1.772   5.199
 4907SOL     OW15009   4.197   0.500   3.915
 4907SOL    HW115010   4.258   0.580   3.919
 4907SOL    HW215011   4.102   0.531   3.922
 4908SOL     OW15012   3.883   1.137   5.190
 4908SOL    HW115013   3.905   1.076   5.266
 4908SOL    HW215014   3.893   1.088   5.104
 4909SOL     OW15015   5.071   1.059   4.958
 4909SOL    HW115016   5.095   0.996   4.884
 4909SOL    HW215017   4.981   1.099   4.940
 4910SOL     OW15018   5.026   0.855   4.033
 4910SOL    HW115019   4.940   0.824   4.075
 4910SOL    HW215020   5.022   0.841   3.934
 4911SOL     OW15021   5.483   1.747   4.878
 4911SOL    HW115022   5.544   1.777   4.805
 4911SOL    HW215023   5.445   1.658   4.856
 4912SOL     OW15024   4.976   1.731   4.852
 4912SOL    HW115025   5.060   1.736   4.798
 4912SOL    HW215026   4.953   1.635   4.870
 4913SOL     OW15027   3.807   1.258   4.746
 4913SOL    HW115028   3.802   1.257   4.846
 4913SOL    HW215029   3.724   1.217   4.708
 4914SOL     OW15030   4.412   1.662   5.440
 4914SOL    HW115031   4.356   1.743   5.449
 4914SOL    HW215032   4.464   1.666   5.354
 4915SOL     OW15033   5.450   0.135   4.247
 4915SOL    HW115034   5.523   0.118   4.180
 4915SOL    HW215035   5.419   0.048   4.285
 4916SOL     OW15036   5.112   1.573   4.201
 4916SOL    HW115037   5.179   1.585   4.127
 4916SOL    HW215038   5.072   1.662   4.224
 4917SOL     OW15039   3.854   1.794   5.575
 4917SOL    HW115040   3.813   1.720   5.628
 4917SOL    HW215041   3.918   1.845   5.633
 4918SOL     OW15042   5.004   0.927   4.396
 4918SOL    HW115043   5.064   0.846   4.398
 4918SOL    HW215044   5.044   0.996   4.336
 4919SOL     OW15045   4.554   1.273   5.146
 4919SOL    HW115046   4.549   1.306   5.241
 4919SOL    HW215047   4.468   1.292   5.100
 4920SOL     OW15048   4.396   1.616   3.878
 4920SOL    HW115049   4.405   1.626   3.779
 4920SOL    HW215050   4.356   1.527   3.899
 4921SOL     OW15051   5.374   1.720   5.118
 4921SOL    HW115052   5.427   1.730   5.034
 4921SOL    HW215053   5.347   1.810   5.152
 4922SOL     OW15054   5.565   0.175   4.687
 4922SOL    HW115055   5.604   0.090   4.651
 4922SOL    HW215056   5.467   0.177   4.668
 4923SOL     OW15057   3.987   0.326   4.444
 4923SOL    HW115058   3.908   0.377   4.410
 4923SOL    HW215059   3.978   0.311   4.542
 4924SOL     OW15060   4.918   1.612   3.755
 4924SOL    HW115061   4.924   1.519   3.792
 4924SOL    HW215062   4.859   1.612   3.675
 4925SOL     OW15063   4.546   1.002   5.096
 4925SOL    HW115064   4.586   1.001   5.004
 4925SOL    HW215065   4.556   1.094   5.136
 4926SOL     OW15066   4.640   0.910   4.015
 4926SOL    HW115067   4.703   0.948   3.947
 4926SOL    HW215068   4.680   0.827   4.054
 4927SOL     OW15069   5.228   1.607   3.768
 4927SOL    HW115070   5.136   1.644   3.775
 4927SOL    HW215071   5.266   1.627   3.678
 4928SOL     OW15072   4.096   1.288   5.214
 4928SOL    HW115073   4.083   1.381   5.180
 4928SOL    HW215074   4.012   1.236   5.201
 4929SOL     OW15075   5.338   1.292   5.013
 4929SOL    HW115076   5.398   1.295   5.093
 4929SOL    HW215077   5.263   1.356   5.026
 4930SOL     OW15078   4.763   1.098   4.420
 4930SOL    HW115079   4.693   1.051   4.474
 4930SOL    HW215080   4.822   1.030   4.377
 4931SOL     OW15081   4.738   0.236   4.695
 4931SOL    HW115082   4.730   0.200   4.602
 4931SOL    HW215083   4.736   0.160   4.760
 4932SOL     OW15084   4.314   1.487   4.215
 4932SOL    HW115085   4.356   1.429   4.145
 4932SOL    HW215086   4.270   1.566   4.171
 4933SOL     OW15087   5.433   0.385   5.105
 4933SOL    HW115088   5.506   0.454   5.109
 4933SOL    HW215089   5.461   0.310   5.046
 4934SOL     OW15090   3.979   1.348   4.014
 4934SOL    HW115091   3.883   1.349   3.987
 4934SOL    HW215092   3.991   1.401   4.098
 4935SOL     OW15093   3.829   1.013   5.450
 4935SOL    HW115094   3.752   0.980   5.504
 4935SOL    HW215095   3.914   0.983   5.492
 4936SOL     OW15096   4.396   0.203   5.213
 4936SOL    HW115097   4.486   0.187   5.173
 4936SOL    HW215098   4.404   0.208   5.312
 4937SOL     OW15099   3.799   0.345   3.757
 4937SOL    HW115100   3.707   0.317   3.728
 4937SOL    HW215101   3.830   0.422   3.701
 4938SOL     OW15102   5.164   0.856   5.122
 4938SOL    HW115103   5.107   0.908   5.059
 4938SOL    HW215104   5.260   0.868   5.098
 4939SOL     OW15105   3.796   0.166   4.042
 4939SOL    HW115106   3.779   0.249   3.988
 4939SOL    HW215107   3.886   0.129   4.020
 4940SOL     OW15108   4.907   1.335   3.843
 4940SOL    HW115109   4.808   1.324   3.845
 4940SOL    HW215110   4.941   1.350   3.936
 4941SOL     OW15111   4.337   0.842   5.155
 4941SOL    HW115112   4.393   0.923   5.138
 4941SOL    HW215113   4.396   0.762   5.158
 4942SOL     OW15114   5.217   1.767   4.683
 4942SOL    HW115115   5.250   1.831   4.614
 4942SOL    HW215116   5.283   1.761   4.758
 4943SOL     OW15117   4.440   0.565   5.432
 4943SOL    HW115118   4.459   0.630   5.506
 4943SOL    HW215119   4.500   0.485   5.441
 4944SOL     OW15120   5.174   1.220   5.357
 4944SOL    HW115121   5.165   1.210   5.456
 4944SOL    HW215122   5.270   1.213   5.331
 4945SOL     OW15123   4.114   1.741   5.284
 4945SOL    HW115124   4.023   1.782   5.282
 4945SOL    HW215125   4.107   1.647   5.316
 4946SOL     OW15126   5.398   0.883   4.978
 4946SOL    HW115127   5.371   0.794   4.941
 4946SOL    HW215128   5.399   0.951   4.905
 4947SOL     OW15129   4.949   0.325   4.173
 4947SOL    HW115130   5.014   0.251   4.162
 4947SOL    HW215131   4.969   0.375   4.257
 4948SOL     OW15132   4.318   0.745   4.376
 4948SOL    HW115133   4.368   0.830   4.357
 4948SOL    HW215134   4.230   0.747   4.328
 4949SOL     OW15135   5.501   0.342   5.366
 4949SOL    HW115136   5.484   0.373   5.272
 4949SOL    HW215137   5.417   0.305   5.404
 4950SOL     OW15138   5.454   0.934   5.241
 4950SOL    HW115139   5.492   1.025   5.256
 4950SOL    HW215140   5.446   0.917   5.142
 4951SOL     OW15141   4.583   1.374   3.740
 4951SOL    HW115142   4.537   1.389   3.828
 4951SOL    HW215143   4.627   1.459   3.710
 4952SOL     OW15144   4.385   1.790   4.677
 4952SOL    HW115145   4.339   1.878   4.664
 4952SOL    HW215146   4.484   1.802   4.670
 4953SOL     OW15147   4.583   0.956   4.585
 4953SOL    HW115148   4.637   0.887   4.633
 4953SOL    HW215149   4.551   1.025   4.651
 4954SOL     OW15150   4.807   0.984   3.811
 4954SOL    HW115151   4.784   1.037   3.729
 4954SOL    HW215152   4.888   0.928   3.792
 4955SOL     OW15153   5.585   1.569   4.575
 4955SOL    HW115154   5.514   1.557   4.505
 4955SOL    HW215155   5.586   1.490   4.635
 4956SOL     OW15156   3.945   1.314   5.568
 4956SOL    HW115157   3.880   1.241   5.547
 4956SOL    HW215158   3.949   1.328   5.666
 4957SOL     OW15159   3.803   1.240   4.377
 4957SOL    HW115160   3.802   1.193   4.465
 4957SOL    HW215161   3.885   1.212   4.326
 4958SOL     OW15162   4.396   1.391   5.348
 4958SOL    HW115163   4.318   1.341   5.386
 4958SOL    HW215164   4.393   1.486   5.379
 4959SOL     OW15165   5.548   0.192   4.951
 4959SOL    HW115166   5.544   0.102   4.995
 4959SOL    HW215167   5.551   0.181   4.852
 4960SOL     OW15168   4.152   0.424   4.244
 4960SOL    HW115169   4.182   0.352   4.182
 4960SOL    HW215170   4.113   0.384   4.327
 4961SOL     OW15171   5.429   1.487   4.828
 4961SOL    HW115172   5.336   1.462   4.801
 4961SOL    HW215173   5.455   1.437   4.910
 4962SOL     OW15174   4.041   0.547   5.004
 4962SOL    HW115175   4.079   0.488   5.076
 4962SOL    HW215176   4.081   0.521   4.916
 4963SOL     OW15177   4.536   1.586   4.411
 4963SOL    HW115178   4.568   1.596   4.317
 4963SOL    HW215179   4.457   1.524   4.413
 4964SOL     OW15180   5.148   0.214   4.836
 4964SOL    HW115181   5.200   0.149   4.891
 4964SOL    HW215182   5.099   0.277   4.897
 4965SOL     OW15183   4.725   0.034   4.878
 4965SOL    HW115184   4.662  -0.038   4.847
 4965SOL    HW215185   4.818  -0.002   4.878
 4966SOL     OW15186   4.494   1.330   4.025
 4966SOL    HW115187   4.448   1.243   4.042
 4966SOL    HW215188   4.585   1.327   4.066
 4967SOL     OW15189   4.342   1.567   5.008
 4967SOL    HW115190   4.337   1.649   5.065
 4967SOL    HW215191   4.431   1.564   4.963
 4968SOL     OW15192   5.076   0.052   3.892
 4968SOL    HW115193   5.111   0.011   3.808
 4968SOL    HW215194   4.986   0.014   3.912
 4969SOL     OW15195   5.024   0.453   4.415
 4969SOL    HW115196   4.965   0.533   4.419
 4969SOL    HW215197   5.039   0.418   4.508
 4970SOL     OW15198   5.317   0.221   4.606
 4970SOL    HW115199   5.233   0.220   4.660
 4970SOL    HW215200   5.319   0.304   4.550
 4971SOL     OW15201   3.763   1.077   4.024
 4971SOL    HW115202   3.862   1.066   4.015
 4971SOL    HW215203   3.723   0.991   4.056
 4972SOL     OW15204   4.599   1.646   4.061
 4972SOL    HW115205   4.522   1.611   4.007
 4972SOL    HW215206   4.567   1.717   4.123
 4973SOL     OW15207   3.954   0.628   5.699
 4973SOL    HW115208   3.861   0.626   5.736
 4973SOL    HW215209   3.955   0.589   5.607
 4974SOL     OW15210   5.479   0.607   5.817
 4974SOL    HW115211   5.467   0.594   5.718
 4974SOL    HW215212   5.449   0.526   5.866
 4975SOL     OW15213   3.955   1.713   6.069
 4975SOL    HW115214   3.989   1.790   6.123
 4975SOL    HW215215   3.999   1.713   5.979
 4976SOL     OW15216   4.330   0.964   5.709
 4976SOL    HW115217   4.337   1.048   5.655
 4976SOL    HW215218   4.376   0.977   5.797
 4977SOL     OW15219   5.566   1.767   5.945
 4977SOL    HW115220   5.620   1.738   6.025
 4977SOL    HW215221   5.596   1.857   5.916
 4978SOL     OW15222   3.751   1.596   5.703
 4978SOL    HW115223   3.732   1.500   5.724
 4978SOL    HW215224   3.718   1.654   5.778
 4979SOL     OW15225   5.413   0.922   6.198
 4979SOL    HW115226   5.508   0.893   6.206
 4979SOL    HW215227   5.405   0.987   6.123
 4980SOL     OW15228   5.365   1.108   6.018
 4980SOL    HW115229   5.451   1.110   5.966
 4980SOL    HW215230   5.379   1.155   6.106
 4981SOL     OW15231   5.249   0.999   5.776
 4981SOL    HW115232   5.186   0.923   5.789
 4981SOL    HW215233   5.297   1.017   5.862
 4982SOL     OW15234   4.322   0.729   5.856
 4982SOL    HW115235   4.346   0.798   5.788
 4982SOL    HW215236   4.244   0.762   5.910
 4983SOL     OW15237   4.589   0.348   5.781
 4983SOL    HW115238   4.648   0.411   5.732
 4983SOL    HW215239   4.608   0.254   5.752
 4984SOL     OW15240   4.045   0.943   5.828
 4984SOL    HW115241   4.127   0.982   5.786
 4984SOL    HW215242   4.018   0.861   5.779
 4985SOL     OW15243   4.835   1.776   5.823
 4985SOL    HW115244   4.775   1.714   5.873
 4985SOL    HW215245   4.866   1.732   5.738
 4986SOL     OW15246   5.356   1.377   5.667
 4986SOL    HW115247   5.324   1.471   5.657
 4986SOL    HW215248   5.280   1.314   5.655
 4987SOL     OW15249   4.188   1.743   5.909
 4987SOL    HW115250   4.221   1.782   5.995
 4987SOL    HW215251   4.264   1.736   5.844
 4988SOL     OW15252   4.338   0.122   5.703
 4988SOL    HW115253   4.436   0.100   5.710
 4988SOL    HW215254   4.307   0.105   5.610
 4989SOL     OW15255   5.158   1.188   5.627
 4989SOL    HW115256   5.190   1.112   5.684
 4989SOL    HW215257   5.066   1.215   5.657
 4990SOL     OW15258   4.021   0.035   5.757
 4990SOL    HW115259   4.070   0.119   5.736
 4990SOL    HW215260   4.083  -0.030   5.802
 4991SOL     OW15261   4.756   0.549   5.602
 4991SOL    HW115262   4.715   0.631   5.563
 4991SOL    HW215263   4.820   0.575   5.675
 4992SOL     OW15264   5.581   0.833   5.963
 4992SOL    HW115265   5.623   0.769   6.027
 4992SOL    HW215266   5.543   0.782   5.885
 4993SOL     OW15267   4.212   1.385   5.760
 4993SOL    HW115268   4.125   1.370   5.807
 4993SOL    HW215269   4.195   1.411   5.665
 4994SOL     OW15270   5.388   1.280   6.243
 4994SOL    HW115271   5.487   1.288   6.257
 4994SOL    HW215272   5.343   1.364   6.274
 4995SOL     OW15273   5.114   0.575   5.664
 4995SOL    HW115274   5.060   0.554   5.745
 4995SOL    HW215275   5.205   0.534   5.673
 4996SOL     OW15276   4.251   0.256   5.914
 4996SOL    HW115277   4.278   0.197   5.839
 4996SOL    HW215278   4.251   0.351   5.883
 4997SOL     OW15279   4.091   1.100   6.087
 4997SOL    HW115280   4.084   1.183   6.031
 4997SOL    HW215281   4.095   1.020   6.027
 4998SOL     OW15282   4.933   0.525   5.861
 4998SOL    HW115283   4.946   0.441   5.915
 4998SOL    HW215284   4.904   0.599   5.921
 4999SOL     OW15285   5.264   0.274   5.711
 4999SOL    HW115286   5.203   0.199   5.734
 4999SOL    HW215287   5.286   0.326   5.794
 5000SOL     OW15288   5.027   0.838   5.628
 5000SOL    HW115289   5.061   0.745   5.643
 5000SOL    HW215290   5.045   0.865   5.533
 5001SOL     OW15291   3.732   1.326   5.786
 5001SOL    HW115292   3.639   1.347   5.755
 5001SOL    HW215293   3.742   1.227   5.799
 5002SOL     OW15294   4.539   0.572   5.911
 5002SOL    HW115295   4.546   0.483   5.865
 5002SOL    HW215296   4.445   0.606   5.903
 5003SOL     OW15297   4.197   0.500   5.777
 5003SOL    HW115298   4.258   0.580   5.781
 5003SOL    HW215299   4.102   0.531   5.784
 5004SOL     OW15300   5.450   0.135   6.109
 5004SOL    HW115301   5.523   0.118   6.042
 5004SOL    HW215302   5.419   0.048   6.147
 5005SOL     OW15303   4.396   1.616   5.740
 5005SOL    HW115304   4.405   1.626   5.641
 5005SOL    HW215305   4.356   1.527   5.761
 5006SOL     OW15306   4.918   1.612   5.617
 5006SOL    HW115307   4.924   1.519   5.654
 5006SOL    HW215308   4.859   1.612   5.537
 5007SOL     OW15309   4.640   0.910   5.877
 5007SOL    HW115310   4.703   0.948   5.809
 5007SOL    HW215311   4.680   0.827   5.916
 5008SOL     OW15312   5.228   1.607   5.630
 5008SOL    HW115313   5.136   1.644   5.637
 5008SOL    HW215314   5.266   1.627   5.540
 5009SOL     OW15315   4.763   1.098   6.282
 5009SOL    HW115316   4.693   1.051   6.336
 5009SOL    HW215317   4.822   1.030   6.239
 5010SOL     OW15318   3.979   1.348   5.876
 5010SOL    HW115319   3.883   1.349   5.849
 5010SOL    HW215320   3.991   1.401   5.960
 5011SOL     OW15321   3.799   0.345   5.619
 5011SOL    HW115322   3.707   0.317   5.590
 5011SOL    HW215323   3.830   0.422   5.563
 5012SOL     OW15324   3.796   0.166   5.904
 5012SOL    HW115325   3.779   0.249   5.850
 5012SOL    HW215326   3.886   0.129   5.882
 5013SOL     OW15327   4.907   1.335   5.705
 5013SOL    HW115328   4.808   1.324   5.707
 5013SOL    HW215329   4.941   1.350   5.798
 5014SOL     OW15330   4.949   0.325   6.035
 5014SOL    HW115331   5.014   0.251   6.024
 5014SOL    HW215332   4.969   0.375   6.119
 5015SOL     OW15333   4.583   1.374   5.602
 5015SOL    HW115334   4.537   1.389   5.690
 5015SOL    HW215335   4.627   1.459   5.572
 5016SOL     OW15336   4.807   0.984   5.673
 5016SOL    HW115337   4.784   1.037   5.591
 5016SOL    HW215338   4.888   0.928   5.654
 5017SOL     OW15339   5.076   0.052   5.754
 5017SOL    HW115340   5.111   0.011   5.670
 5017SOL    HW215341   4.986   0.014   5.774
 5018SOL     OW15342   3.763   1.077   5.886
 5018SOL    HW115343   3.862   1.066   5.877
 5018SOL    HW215344   3.723   0.991   5.918
 5019SOL     OW15345   4.599   1.646   5.923
 5019SOL    HW115346   4.522   1.611   5.869
 5019SOL    HW215347   4.567   1.717   5.985
 5020SOL     OW15348   3.954   2.490   0.113
 5020SOL    HW115349   3.861   2.488   0.150
 5020SOL    HW215350   3.955   2.451   0.021
 5021SOL     OW15351   3.949   2.137   0.996
 5021SOL    HW115352   3.984   2.120   1.088
 5021SOL    HW215353   3.861   2.092   0.984
 5022SOL     OW15354   3.743   2.230   0.647
 5022SOL    HW115355   3.661   2.273   0.686
 5022SOL    HW215356   3.715   2.157   0.584
 5023SOL     OW15357   4.293   3.137   1.165
 5023SOL    HW115358   4.200   3.130   1.128
 5023SOL    HW215359   4.304   3.226   1.209
 5024SOL     OW15360   5.279   3.373   0.703
 5024SOL    HW115361   5.222   3.357   0.784
 5024SOL    HW215362   5.220   3.383   0.623
 5025SOL     OW15363   4.859   2.565   0.717
 5025SOL    HW115364   4.916   2.643   0.692
 5025SOL    HW215365   4.799   2.591   0.793
 5026SOL     OW15366   5.479   2.469   0.231
 5026SOL    HW115367   5.467   2.456   0.132
 5026SOL    HW215368   5.449   2.388   0.280
 5027SOL     OW15369   4.492   3.006   1.023
 5027SOL    HW115370   4.414   3.023   1.083
 5027SOL    HW215371   4.526   3.093   0.987
 5028SOL     OW15372   4.574   2.660   1.823
 5028SOL    HW115373   4.570   2.736   1.888
 5028SOL    HW215374   4.596   2.696   1.732
 5029SOL     OW15375   4.409   2.874   0.665
 5029SOL    HW115376   4.478   2.858   0.735
 5029SOL    HW215377   4.336   2.931   0.703
 5030SOL     OW15378   4.410   3.023   1.803
 5030SOL    HW115379   4.470   3.102   1.817
 5030SOL    HW215380   4.324   3.054   1.762
 5031SOL     OW15381   4.059   3.297   1.061
 5031SOL    HW115382   3.981   3.266   1.008
 5031SOL    HW215383   4.117   3.355   1.004
 5032SOL     OW15384   5.184   3.367   1.339
 5032SOL    HW115385   5.208   3.461   1.365
 5032SOL    HW215386   5.168   3.313   1.421
 5033SOL     OW15387   4.162   2.254   1.499
 5033SOL    HW115388   4.244   2.198   1.508
 5033SOL    HW215389   4.081   2.196   1.503
 5034SOL     OW15390   5.327   2.309   0.737
 5034SOL    HW115391   5.253   2.355   0.687
 5034SOL    HW215392   5.378   2.377   0.790
 5035SOL     OW15393   3.955   3.575   0.483
 5035SOL    HW115394   3.989   3.652   0.537
 5035SOL    HW215395   3.999   3.575   0.393
 5036SOL     OW15396   4.851   3.203   1.690
 5036SOL    HW115397   4.898   3.203   1.778
 5036SOL    HW215398   4.803   3.116   1.679
 5037SOL     OW15399   3.954   3.296   0.538
 5037SOL    HW115400   3.928   3.392   0.538
 5037SOL    HW215401   3.883   3.242   0.583
 5038SOL     OW15402   3.964   2.953   0.886
 5038SOL    HW115403   3.978   2.869   0.938
 5038SOL    HW215404   3.909   3.017   0.941
 5039SOL     OW15405   4.344   3.648   1.439
 5039SOL    HW115406   4.252   3.631   1.474
 5039SOL    HW215407   4.372   3.740   1.465
 5040SOL     OW15408   4.330   2.826   0.123
 5040SOL    HW115409   4.337   2.910   0.069
 5040SOL    HW215410   4.376   2.839   0.211
 5041SOL     OW15411   5.318   1.976   1.480
 5041SOL    HW115412   5.300   2.043   1.408
 5041SOL    HW215413   5.315   2.022   1.569
 5042SOL     OW15414   3.846   2.505   0.563
 5042SOL    HW115415   3.801   2.417   0.580
 5042SOL    HW215416   3.845   2.559   0.647
 5043SOL     OW15417   5.566   3.629   0.359
 5043SOL    HW115418   5.620   3.600   0.439
 5043SOL    HW215419   5.596   3.719   0.330
 5044SOL     OW15420   3.751   3.458   0.117
 5044SOL    HW115421   3.732   3.362   0.138
 5044SOL    HW215422   3.718   3.516   0.192
 5045SOL     OW15423   5.413   2.784   0.612
 5045SOL    HW115424   5.508   2.755   0.620
 5045SOL    HW215425   5.405   2.849   0.537
 5046SOL     OW15426   5.365   2.970   0.432
 5046SOL    HW115427   5.451   2.972   0.380
 5046SOL    HW215428   5.379   3.017   0.520
 5047SOL     OW15429   3.837   2.599   1.597
 5047SOL    HW115430   3.925   2.586   1.642
 5047SOL    HW215431   3.824   2.696   1.575
 5048SOL     OW15432   4.337   3.227   0.726
 5048SOL    HW115433   4.288   3.140   0.735
 5048SOL    HW215434   4.314   3.270   0.639
 5049SOL     OW15435   5.017   3.090   1.423
 5049SOL    HW115436   5.054   3.017   1.365
 5049SOL    HW215437   5.069   3.095   1.508
 5050SOL     OW15438   4.533   1.866   0.502
 5050SOL    HW115439   4.573   1.957   0.493
 5050SOL    HW215440   4.433   1.874   0.508
 5051SOL     OW15441   3.921   2.838   1.264
 5051SOL    HW115442   4.010   2.793   1.250
 5051SOL    HW215443   3.848   2.773   1.245
 5052SOL     OW15444   5.249   2.861   0.190
 5052SOL    HW115445   5.186   2.785   0.203
 5052SOL    HW215446   5.297   2.879   0.276
 5053SOL     OW15447   4.911   3.654   1.616
 5053SOL    HW115448   4.935   3.714   1.540
 5053SOL    HW215449   4.918   3.559   1.586
 5054SOL     OW15450   4.041   2.113   1.801
 5054SOL    HW115451   4.112   2.184   1.807
 5054SOL    HW215452   3.953   2.152   1.829
 5055SOL     OW15453   5.190   3.279   0.953
 5055SOL    HW115454   5.131   3.285   1.033
 5055SOL    HW215455   5.175   3.191   0.907
 5056SOL     OW15456   5.391   3.576   0.572
 5056SOL    HW115457   5.350   3.553   0.484
 5056SOL    HW215458   5.373   3.502   0.637
 5057SOL     OW15459   4.322   2.591   0.270
 5057SOL    HW115460   4.346   2.660   0.202
 5057SOL    HW215461   4.244   2.624   0.324
 5058SOL     OW15462   5.005   2.207   0.944
 5058SOL    HW115463   4.919   2.157   0.931
 5058SOL    HW215464   5.067   2.153   1.000
 5059SOL     OW15465   5.300   3.524   0.307
 5059SOL    HW115466   5.389   3.570   0.310
 5059SOL    HW215467   5.279   3.500   0.212
 5060SOL     OW15468   4.531   2.467   1.465
 5060SOL    HW115469   4.484   2.464   1.554
 5060SOL    HW215470   4.480   2.412   1.399
 5061SOL     OW15471   5.118   2.331   1.674
 5061SOL    HW115472   5.098   2.374   1.762
 5061SOL    HW215473   5.196   2.269   1.683
 5062SOL     OW15474   4.697   2.752   1.572
 5062SOL    HW115475   4.743   2.668   1.543
 5062SOL    HW215476   4.641   2.786   1.497
 5063SOL     OW15477   4.715   2.272   1.242
 5063SOL    HW115478   4.638   2.306   1.296
 5063SOL    HW215479   4.681   2.221   1.163
 5064SOL     OW15480   4.765   2.563   0.429
 5064SOL    HW115481   4.791   2.559   0.525
 5064SOL    HW215482   4.680   2.512   0.415
 5065SOL     OW15483   3.800   2.673   0.789
 5065SOL    HW115484   3.899   2.661   0.798
 5065SOL    HW215485   3.776   2.768   0.810
 5066SOL     OW15486   3.854   3.683   1.571
 5066SOL    HW115487   3.844   3.668   1.670
 5066SOL    HW215488   3.768   3.719   1.535
 5067SOL     OW15489   4.589   2.210   0.195
 5067SOL    HW115490   4.648   2.273   0.146
 5067SOL    HW215491   4.608   2.116   0.166
 5068SOL     OW15492   5.443   2.447   1.831
 5068SOL    HW115493   5.417   2.536   1.795
 5068SOL    HW215494   5.441   2.379   1.758
 5069SOL     OW15495   5.086   3.006   0.545
 5069SOL    HW115496   5.169   2.977   0.497
 5069SOL    HW215497   5.037   3.073   0.489
 5070SOL     OW15498   4.274   2.058   0.885
 5070SOL    HW115499   4.269   2.053   0.985
 5070SOL    HW215500   4.276   2.154   0.856
 5071SOL     OW15501   4.732   3.318   0.477
 5071SOL    HW115502   4.686   3.390   0.425
 5071SOL    HW215503   4.728   3.338   0.575
 5072SOL     OW15504   4.075   3.663   0.853
 5072SOL    HW115505   4.125   3.577   0.859
 5072SOL    HW215506   4.140   3.740   0.850
 5073SOL     OW15507   5.519   2.928   0.873
 5073SOL    HW115508   5.457   2.913   0.797
 5073SOL    HW215509   5.467   2.939   0.958
 5074SOL     OW15510   4.951   3.412   1.506
 5074SOL    HW115511   4.957   3.335   1.570
 5074SOL    HW215512   4.899   3.386   1.426
 5075SOL     OW15513   4.045   2.805   0.242
 5075SOL    HW115514   4.127   2.844   0.200
 5075SOL    HW215515   4.018   2.723   0.193
 5076SOL     OW15516   5.182   2.597   0.728
 5076SOL    HW115517   5.177   2.532   0.803
 5076SOL    HW215518   5.262   2.656   0.741
 5077SOL     OW15519   4.185   3.128   1.727
 5077SOL    HW115520   4.135   3.129   1.641
 5077SOL    HW215521   4.122   3.110   1.803
 5078SOL     OW15522   4.835   3.638   0.237
 5078SOL    HW115523   4.775   3.576   0.287
 5078SOL    HW215524   4.866   3.594   0.152
 5079SOL     OW15525   3.926   2.147   1.498
 5079SOL    HW115526   3.846   2.207   1.485
 5079SOL    HW215527   3.916   2.098   1.584
 5080SOL     OW15528   5.356   3.239   0.081
 5080SOL    HW115529   5.324   3.333   0.071
 5080SOL    HW215530   5.280   3.176   0.069
 5081SOL     OW15531   4.188   3.605   0.323
 5081SOL    HW115532   4.221   3.644   0.409
 5081SOL    HW215533   4.264   3.598   0.258
 5082SOL     OW15534   5.124   1.969   0.426
 5082SOL    HW115535   5.100   1.932   0.336
 5082SOL    HW215536   5.223   1.985   0.430
 5083SOL     OW15537   3.973   3.647   1.241
 5083SOL    HW115538   4.030   3.582   1.291
 5083SOL    HW215539   3.957   3.614   1.148
 5084SOL     OW15540   4.664   3.560   0.904
 5084SOL    HW115541   4.744   3.503   0.925
 5084SOL    HW215542   4.615   3.520   0.827
 5085SOL     OW15543   4.106   2.562   0.480
 5085SOL    HW115544   4.151   2.472   0.477
 5085SOL    HW215545   4.012   2.551   0.513
 5086SOL     OW15546   5.271   2.084   1.729
 5086SOL    HW115547   5.266   2.121   1.821
 5086SOL    HW215548   5.199   2.015   1.717
 5087SOL     OW15549   4.338   1.984   0.117
 5087SOL    HW115550   4.436   1.962   0.124
 5087SOL    HW215551   4.307   1.967   0.024
 5088SOL     OW15552   4.505   2.126   1.749
 5088SOL    HW115553   4.572   2.065   1.792
 5088SOL    HW215554   4.432   2.145   1.814
 5089SOL     OW15555   4.612   3.376   1.195
 5089SOL    HW115556   4.589   3.351   1.101
 5089SOL    HW215557   4.673   3.307   1.234
 5090SOL     OW15558   5.075   2.452   1.433
 5090SOL    HW115559   5.103   2.409   1.518
 5090SOL    HW215560   5.100   2.548   1.434
 5091SOL     OW15561   4.527   3.264   0.924
 5091SOL    HW115562   4.617   3.278   0.882
 5091SOL    HW215563   4.456   3.266   0.853
 5092SOL     OW15564   4.646   2.365   0.899
 5092SOL    HW115565   4.621   2.356   0.803
 5092SOL    HW215566   4.694   2.283   0.930
 5093SOL     OW15567   4.263   1.926   0.512
 5093SOL    HW115568   4.182   1.927   0.570
 5093SOL    HW215569   4.266   2.009   0.457
 5094SOL     OW15570   5.158   3.050   0.041
 5094SOL    HW115571   5.190   2.974   0.098
 5094SOL    HW215572   5.066   3.077   0.071
 5095SOL     OW15573   4.659   2.098   0.480
 5095SOL    HW115574   4.611   2.139   0.402
 5095SOL    HW215575   4.758   2.096   0.461
 5096SOL     OW15576   4.800   2.545   1.464
 5096SOL    HW115577   4.720   2.484   1.467
 5096SOL    HW215578   4.881   2.492   1.440
 5097SOL     OW15579   4.951   3.432   0.793
 5097SOL    HW115580   4.972   3.506   0.728
 5097SOL    HW215581   5.019   3.432   0.866
 5098SOL     OW15582   4.183   3.014   0.741
 5098SOL    HW115583   4.112   2.987   0.806
 5098SOL    HW215584   4.157   2.986   0.648
 5099SOL     OW15585   4.995   3.659   0.591
 5099SOL    HW115586   5.039   3.723   0.527
 5099SOL    HW215587   4.945   3.711   0.661
 5100SOL     OW15588   4.756   2.411   0.016
 5100SOL    HW115589   4.715   2.493  -0.023
 5100SOL    HW215590   4.820   2.437   0.089
 5101SOL     OW15591   3.802   2.418   1.386
 5101SOL    HW115592   3.894   2.417   1.345
 5101SOL    HW215593   3.796   2.492   1.453
 5102SOL     OW15594   4.285   2.084   1.147
 5102SOL    HW115595   4.323   2.000   1.184
 5102SOL    HW215596   4.197   2.103   1.191
 5103SOL     OW15597   4.590   2.316   0.642
 5103SOL    HW115598   4.558   2.388   0.580
 5103SOL    HW215599   4.614   2.235   0.589
 5104SOL     OW15600   4.741   1.901   0.753
 5104SOL    HW115601   4.669   1.906   0.684
 5104SOL    HW215602   4.717   1.832   0.822
 5105SOL     OW15603   5.153   3.035   0.867
 5105SOL    HW115604   5.098   2.951   0.860
 5105SOL    HW215605   5.179   3.064   0.775
 5106SOL     OW15606   5.190   2.452   0.992
 5106SOL    HW115607   5.160   2.357   0.999
 5106SOL    HW215608   5.263   2.468   1.058
 5107SOL     OW15609   5.581   2.695   0.377
 5107SOL    HW115610   5.623   2.631   0.441
 5107SOL    HW215611   5.543   2.644   0.299
 5108SOL     OW15612   4.212   3.247   0.174
 5108SOL    HW115613   4.125   3.232   0.221
 5108SOL    HW215614   4.195   3.273   0.079
 5109SOL     OW15615   5.388   3.142   0.657
 5109SOL    HW115616   5.487   3.150   0.671
 5109SOL    HW215617   5.343   3.226   0.688
 5110SOL     OW15618   5.114   2.437   0.078
 5110SOL    HW115619   5.060   2.416   0.159
 5110SOL    HW215620   5.205   2.396   0.087
 5111SOL     OW15621   4.251   2.118   0.328
 5111SOL    HW115622   4.278   2.059   0.253
 5111SOL    HW215623   4.251   2.213   0.297
 5112SOL     OW15624   5.478   3.085   1.588
 5112SOL    HW115625   5.569   3.046   1.575
 5112SOL    HW215626   5.486   3.181   1.612
 5113SOL     OW15627   4.788   3.209   1.340
 5113SOL    HW115628   4.708   3.186   1.395
 5113SOL    HW215629   4.871   3.183   1.389
 5114SOL     OW15630   5.316   3.491   1.625
 5114SOL    HW115631   5.343   3.525   1.535
 5114SOL    HW215632   5.395   3.453   1.671
 5115SOL     OW15633   4.835   3.057   1.100
 5115SOL    HW115634   4.795   3.101   1.181
 5115SOL    HW215635   4.794   3.094   1.017
 5116SOL     OW15636   5.362   2.961   1.079
 5116SOL    HW115637   5.367   3.042   1.138
 5116SOL    HW215638   5.276   2.963   1.028
 5117SOL     OW15639   4.639   1.951   1.402
 5117SOL    HW115640   4.664   1.931   1.307
 5117SOL    HW215641   4.711   2.007   1.444
 5118SOL     OW15642   4.704   2.978   1.719
 5118SOL    HW115643   4.605   2.984   1.729
 5118SOL    HW215644   4.727   2.898   1.663
 5119SOL     OW15645   4.429   2.912   0.368
 5119SOL    HW115646   4.415   2.919   0.467
 5119SOL    HW215647   4.513   2.861   0.350
 5120SOL     OW15648   4.134   2.675   1.251
 5120SOL    HW115649   4.220   2.687   1.301
 5120SOL    HW215650   4.092   2.588   1.278
 5121SOL     OW15651   4.998   2.248   1.262
 5121SOL    HW115652   5.019   2.322   1.326
 5121SOL    HW215653   4.909   2.265   1.219
 5122SOL     OW15654   3.788   3.426   1.331
 5122SOL    HW115655   3.742   3.508   1.297
 5122SOL    HW215656   3.886   3.445   1.340
 5123SOL     OW15657   4.091   2.962   0.501
 5123SOL    HW115658   4.084   3.045   0.445
 5123SOL    HW215659   4.095   2.882   0.441
 5124SOL     OW15660   4.290   2.399   0.865
 5124SOL    HW115661   4.302   2.465   0.791
 5124SOL    HW215662   4.336   2.433   0.948
 5125SOL     OW15663   4.976   3.210   0.388
 5125SOL    HW115664   5.026   3.287   0.428
 5125SOL    HW215665   4.881   3.212   0.420
 5126SOL     OW15666   4.996   3.307   1.142
 5126SOL    HW115667   5.043   3.320   1.229
 5126SOL    HW215668   4.930   3.233   1.151
 5127SOL     OW15669   5.306   2.501   0.472
 5127SOL    HW115670   5.275   2.562   0.545
 5127SOL    HW215671   5.356   2.553   0.403
 5128SOL     OW15672   4.078   3.372   1.329
 5128SOL    HW115673   4.057   3.328   1.242
 5128SOL    HW215674   4.175   3.398   1.332
 5129SOL     OW15675   4.126   2.613   1.598
 5129SOL    HW115676   4.194   2.668   1.551
 5129SOL    HW215677   4.166   2.525   1.625
 5130SOL     OW15678   5.311   2.641   1.670
 5130SOL    HW115679   5.219   2.679   1.665
 5130SOL    HW215680   5.371   2.688   1.605
 5131SOL     OW15681   4.737   1.967   1.770
 5131SOL    HW115682   4.743   2.052   1.718
 5131SOL    HW215683   4.769   1.891   1.713
 5132SOL     OW15684   4.228   1.912   1.740
 5132SOL    HW115685   4.186   1.855   1.670
 5132SOL    HW215686   4.162   1.981   1.772
 5133SOL     OW15687   4.297   2.732   1.029
 5133SOL    HW115688   4.341   2.821   1.020
 5133SOL    HW215689   4.234   2.732   1.106
 5134SOL     OW15690   5.084   2.724   1.045
 5134SOL    HW115691   5.009   2.724   0.979
 5134SOL    HW215692   5.121   2.632   1.054
 5135SOL     OW15693   4.933   2.387   0.275
 5135SOL    HW115694   4.946   2.303   0.329
 5135SOL    HW215695   4.904   2.461   0.335
 5136SOL     OW15696   4.031   2.075   1.231
 5136SOL    HW115697   4.008   2.112   1.321
 5136SOL    HW215698   4.001   1.980   1.225
 5137SOL     OW15699   3.761   3.172   1.282
 5137SOL    HW115700   3.814   3.123   1.350
 5137SOL    HW215701   3.783   3.270   1.287
 5138SOL     OW15702   4.456   2.496   1.064
 5138SOL    HW115703   4.515   2.470   0.988
 5138SOL    HW215704   4.428   2.592   1.053
 5139SOL     OW15705   5.452   2.797   1.854
 5139SOL    HW115706   5.406   2.790   1.765
 5139SOL    HW215707   5.390   2.841   1.920
 5140SOL     OW15708   4.031   1.925   0.618
 5140SOL    HW115709   4.020   2.019   0.651
 5140SOL    HW215710   4.026   1.862   0.695
 5141SOL     OW15711   5.346   2.229   0.374
 5141SOL    HW115712   5.348   2.153   0.438
 5141SOL    HW215713   5.298   2.306   0.414
 5142SOL     OW15714   4.747   2.628   0.966
 5142SOL    HW115715   4.762   2.649   1.062
 5142SOL    HW215716   4.717   2.533   0.957
 5143SOL     OW15717   4.704   3.435   1.700
 5143SOL    HW115718   4.684   3.479   1.612
 5143SOL    HW215719   4.743   3.344   1.684
 5144SOL     OW15720   5.583   3.380   1.605
 5144SOL    HW115721   5.597   3.407   1.510
 5144SOL    HW215722   5.666   3.402   1.658
 5145SOL     OW15723   4.074   2.760   1.804
 5145SOL    HW115724   4.150   2.804   1.852
 5145SOL    HW215725   4.109   2.713   1.722
 5146SOL     OW15726   5.264   2.136   0.125
 5146SOL    HW115727   5.203   2.061   0.148
 5146SOL    HW215728   5.286   2.188   0.208
 5147SOL     OW15729   5.027   2.700   0.042
 5147SOL    HW115730   5.061   2.607   0.057
 5147SOL    HW215731   5.045   2.727  -0.053
 5148SOL     OW15732   4.792   3.195   0.849
 5148SOL    HW115733   4.799   3.111   0.794
 5148SOL    HW215734   4.854   3.264   0.813
 5149SOL     OW15735   4.043   2.672   0.949
 5149SOL    HW115736   4.136   2.708   0.954
 5149SOL    HW215737   4.037   2.587   1.001
 5150SOL     OW15738   4.063   2.371   1.006
 5150SOL    HW115739   4.011   2.288   0.989
 5150SOL    HW215740   4.140   2.376   0.942
 5151SOL     OW15741   4.862   2.242   1.678
 5151SOL    HW115742   4.817   2.305   1.742
 5151SOL    HW215743   4.955   2.273   1.661
 5152SOL     OW15744   4.884   2.069   1.477
 5152SOL    HW115745   4.884   2.133   1.554
 5152SOL    HW215746   4.912   2.117   1.394
 5153SOL     OW15747   3.812   3.663   0.927
 5153SOL    HW115748   3.770   3.577   0.900
 5153SOL    HW215749   3.906   3.666   0.893
 5154SOL     OW15750   4.228   3.430   0.910
 5154SOL    HW115751   4.294   3.504   0.919
 5154SOL    HW215752   4.272   3.351   0.868
 5155SOL     OW15753   4.726   2.658   1.238
 5155SOL    HW115754   4.767   2.626   1.324
 5155SOL    HW215755   4.630   2.631   1.235
 5156SOL     OW15756   3.764   2.406   1.114
 5156SOL    HW115757   3.849   2.373   1.073
 5156SOL    HW215758   3.777   2.421   1.212
 5157SOL     OW15759   3.913   2.382   1.722
 5157SOL    HW115760   3.972   2.342   1.652
 5157SOL    HW215761   3.855   2.453   1.681
 5158SOL     OW15762   5.093   2.812   1.660
 5158SOL    HW115763   5.132   2.901   1.680
 5158SOL    HW215764   5.103   2.792   1.563
 5159SOL     OW15765   4.539   2.434   0.325
 5159SOL    HW115766   4.546   2.345   0.279
 5159SOL    HW215767   4.445   2.468   0.317
 5160SOL     OW15768   5.381   2.466   1.206
 5160SOL    HW115769   5.343   2.397   1.268
 5160SOL    HW215770   5.463   2.430   1.162
 5161SOL     OW15771   3.976   3.426   1.744
 5161SOL    HW115772   3.946   3.483   1.820
 5161SOL    HW215773   3.969   3.329   1.770
 5162SOL     OW15774   4.395   2.326   1.269
 5162SOL    HW115775   4.361   2.237   1.239
 5162SOL    HW215776   4.421   2.380   1.189
 5163SOL     OW15777   4.654   3.540   1.465
 5163SOL    HW115778   4.630   3.522   1.370
 5163SOL    HW215779   4.684   3.634   1.475
 5164SOL     OW15780   4.197   2.362   0.191
 5164SOL    HW115781   4.258   2.442   0.195
 5164SOL    HW215782   4.102   2.393   0.198
 5165SOL     OW15783   3.883   2.999   1.466
 5165SOL    HW115784   3.905   2.938   1.542
 5165SOL    HW215785   3.893   2.950   1.380
 5166SOL     OW15786   5.071   2.921   1.234
 5166SOL    HW115787   5.095   2.858   1.160
 5166SOL    HW215788   4.981   2.961   1.216
 5167SOL     OW15789   5.026   2.717   0.309
 5167SOL    HW115790   4.940   2.686   0.351
 5167SOL    HW215791   5.022   2.703   0.210
 5168SOL     OW15792   5.483   3.609   1.154
 5168SOL    HW115793   5.544   3.639   1.081
 5168SOL    HW215794   5.445   3.520   1.132
 5169SOL     OW15795   4.976   3.593   1.128
 5169SOL    HW115796   5.060   3.598   1.074
 5169SOL    HW215797   4.953   3.497   1.146
 5170SOL     OW15798   3.807   3.120   1.022
 5170SOL    HW115799   3.802   3.119   1.122
 5170SOL    HW215800   3.724   3.079   0.984
 5171SOL     OW15801   4.412   3.524   1.716
 5171SOL    HW115802   4.356   3.605   1.725
 5171SOL    HW215803   4.464   3.528   1.630
 5172SOL     OW15804   4.627   1.948   0.133
 5172SOL    HW115805   4.678   1.949   0.047
 5172SOL    HW215806   4.683   1.906   0.204
 5173SOL     OW15807   5.450   1.997   0.523
 5173SOL    HW115808   5.523   1.980   0.456
 5173SOL    HW215809   5.419   1.910   0.561
 5174SOL     OW15810   5.112   3.435   0.477
 5174SOL    HW115811   5.179   3.447   0.403
 5174SOL    HW215812   5.072   3.524   0.500
 5175SOL     OW15813   5.004   2.789   0.672
 5175SOL    HW115814   5.064   2.708   0.674
 5175SOL    HW215815   5.044   2.858   0.612
 5176SOL     OW15816   4.554   3.135   1.422
 5176SOL    HW115817   4.549   3.168   1.517
 5176SOL    HW215818   4.468   3.154   1.376
 5177SOL     OW15819   4.396   3.478   0.154
 5177SOL    HW115820   4.405   3.488   0.055
 5177SOL    HW215821   4.356   3.389   0.175
 5178SOL     OW15822   5.374   3.582   1.394
 5178SOL    HW115823   5.427   3.592   1.310
 5178SOL    HW215824   5.347   3.672   1.428
 5179SOL     OW15825   5.565   2.037   0.963
 5179SOL    HW115826   5.604   1.952   0.927
 5179SOL    HW215827   5.467   2.039   0.944
 5180SOL     OW15828   3.987   2.188   0.720
 5180SOL    HW115829   3.908   2.239   0.686
 5180SOL    HW215830   3.978   2.173   0.818
 5181SOL     OW15831   4.918   3.474   0.031
 5181SOL    HW115832   4.924   3.381   0.068
 5181SOL    HW215833   4.859   3.474  -0.049
 5182SOL     OW15834   4.546   2.864   1.372
 5182SOL    HW115835   4.586   2.863   1.280
 5182SOL    HW215836   4.556   2.956   1.412
 5183SOL     OW15837   4.640   2.772   0.291
 5183SOL    HW115838   4.703   2.810   0.223
 5183SOL    HW215839   4.680   2.689   0.330
 5184SOL     OW15840   5.228   3.469   0.044
 5184SOL    HW115841   5.136   3.506   0.051
 5184SOL    HW215842   5.266   3.489  -0.046
 5185SOL     OW15843   4.096   3.150   1.490
 5185SOL    HW115844   4.083   3.243   1.456
 5185SOL    HW215845   4.012   3.098   1.477
 5186SOL     OW15846   5.338   3.154   1.289
 5186SOL    HW115847   5.398   3.157   1.369
 5186SOL    HW215848   5.263   3.218   1.302
 5187SOL     OW15849   4.763   2.960   0.696
 5187SOL    HW115850   4.693   2.913   0.750
 5187SOL    HW215851   4.822   2.892   0.653
 5188SOL     OW15852   4.738   2.098   0.971
 5188SOL    HW115853   4.730   2.062   0.878
 5188SOL    HW215854   4.736   2.022   1.036
 5189SOL     OW15855   4.314   3.349   0.491
 5189SOL    HW115856   4.356   3.291   0.421
 5189SOL    HW215857   4.270   3.428   0.447
 5190SOL     OW15858   5.433   2.247   1.381
 5190SOL    HW115859   5.506   2.316   1.385
 5190SOL    HW215860   5.461   2.172   1.322
 5191SOL     OW15861   3.979   3.210   0.290
 5191SOL    HW115862   3.883   3.211   0.263
 5191SOL    HW215863   3.991   3.263   0.374
 5192SOL     OW15864   3.829   2.875   1.726
 5192SOL    HW115865   3.752   2.842   1.780
 5192SOL    HW215866   3.914   2.845   1.768
 5193SOL     OW15867   4.396   2.065   1.489
 5193SOL    HW115868   4.486   2.049   1.449
 5193SOL    HW215869   4.404   2.070   1.588
 5194SOL     OW15870   3.799   2.207   0.033
 5194SOL    HW115871   3.707   2.179   0.004
 5194SOL    HW215872   3.830   2.284  -0.023
 5195SOL     OW15873   5.164   2.718   1.398
 5195SOL    HW115874   5.107   2.770   1.335
 5195SOL    HW215875   5.260   2.730   1.374
 5196SOL     OW15876   3.796   2.028   0.318
 5196SOL    HW115877   3.779   2.111   0.264
 5196SOL    HW215878   3.886   1.991   0.296
 5197SOL     OW15879   4.907   3.197   0.119
 5197SOL    HW115880   4.808   3.186   0.121
 5197SOL    HW215881   4.941   3.212   0.212
 5198SOL     OW15882   4.337   2.704   1.431
 5198SOL    HW115883   4.393   2.785   1.414
 5198SOL    HW215884   4.396   2.624   1.434
 5199SOL     OW15885   5.217   3.629   0.959
 5199SOL    HW115886   5.250   3.693   0.890
 5199SOL    HW215887   5.283   3.623   1.034
 5200SOL     OW15888   4.440   2.427   1.708
 5200SOL    HW115889   4.459   2.492   1.782
 5200SOL    HW215890   4.500   2.347   1.717
 5201SOL     OW15891   5.174   3.082   1.633
 5201SOL    HW115892   5.165   3.072   1.732
 5201SOL    HW215893   5.270   3.075   1.607
 5202SOL     OW15894   4.114   3.603   1.560
 5202SOL    HW115895   4.023   3.644   1.558
 5202SOL    HW215896   4.107   3.509   1.592
 5203SOL     OW15897   5.398   2.745   1.254
 5203SOL    HW115898   5.371   2.656   1.217
 5203SOL    HW215899   5.399   2.813   1.181
 5204SOL     OW15900   4.949   2.187   0.449
 5204SOL    HW115901   5.014   2.113   0.438
 5204SOL    HW215902   4.969   2.237   0.533
 5205SOL     OW15903   4.318   2.607   0.652
 5205SOL    HW115904   4.368   2.692   0.633
 5205SOL    HW215905   4.230   2.609   0.604
 5206SOL     OW15906   5.501   2.204   1.642
 5206SOL    HW115907   5.484   2.235   1.548
 5206SOL    HW215908   5.417   2.167   1.680
 5207SOL     OW15909   5.454   2.796   1.517
 5207SOL    HW115910   5.492   2.887   1.532
 5207SOL    HW215911   5.446   2.779   1.418
 5208SOL     OW15912   4.583   3.236   0.016
 5208SOL    HW115913   4.537   3.251   0.104
 5208SOL    HW215914   4.627   3.321  -0.014
 5209SOL     OW15915   4.385   3.652   0.953
 5209SOL    HW115916   4.339   3.740   0.940
 5209SOL    HW215917   4.484   3.664   0.946
 5210SOL     OW15918   4.583   2.818   0.861
 5210SOL    HW115919   4.637   2.749   0.909
 5210SOL    HW215920   4.551   2.887   0.927
 5211SOL     OW15921   4.807   2.846   0.087
 5211SOL    HW115922   4.784   2.899   0.005
 5211SOL    HW215923   4.888   2.790   0.068
 5212SOL     OW15924   5.585   3.431   0.851
 5212SOL    HW115925   5.514   3.419   0.781
 5212SOL    HW215926   5.586   3.352   0.911
 5213SOL     OW15927   3.803   3.102   0.653
 5213SOL    HW115928   3.802   3.055   0.741
 5213SOL    HW215929   3.885   3.074   0.602
 5214SOL     OW15930   4.396   3.253   1.624
 5214SOL    HW115931   4.318   3.203   1.662
 5214SOL    HW215932   4.393   3.348   1.655
 5215SOL     OW15933   5.548   2.054   1.227
 5215SOL    HW115934   5.544   1.964   1.271
 5215SOL    HW215935   5.551   2.043   1.128
 5216SOL     OW15936   4.152   2.286   0.520
 5216SOL    HW115937   4.182   2.214   0.458
 5216SOL    HW215938   4.113   2.246   0.603
 5217SOL     OW15939   5.429   3.349   1.104
 5217SOL    HW115940   5.336   3.324   1.077
 5217SOL    HW215941   5.455   3.299   1.186
 5218SOL     OW15942   4.041   2.409   1.280
 5218SOL    HW115943   4.079   2.350   1.352
 5218SOL    HW215944   4.081   2.383   1.192
 5219SOL     OW15945   4.536   3.448   0.687
 5219SOL    HW115946   4.568   3.458   0.593
 5219SOL    HW215947   4.457   3.386   0.689
 5220SOL     OW15948   5.148   2.076   1.112
 5220SOL    HW115949   5.200   2.011   1.167
 5220SOL    HW215950   5.099   2.139   1.173
 5221SOL     OW15951   4.725   1.896   1.154
 5221SOL    HW115952   4.662   1.824   1.123
 5221SOL    HW215953   4.818   1.860   1.154
 5222SOL     OW15954   4.494   3.192   0.301
 5222SOL    HW115955   4.448   3.105   0.318
 5222SOL    HW215956   4.585   3.189   0.342
 5223SOL     OW15957   4.342   3.429   1.284
 5223SOL    HW115958   4.337   3.511   1.341
 5223SOL    HW215959   4.431   3.426   1.239
 5224SOL     OW15960   5.076   1.914   0.168
 5224SOL    HW115961   5.111   1.873   0.084
 5224SOL    HW215962   4.986   1.876   0.188
 5225SOL     OW15963   5.024   2.315   0.691
 5225SOL    HW115964   4.965   2.395   0.695
 5225SOL    HW215965   5.039   2.280   0.784
 5226SOL     OW15966   5.317   2.083   0.882
 5226SOL    HW115967   5.233   2.082   0.936
 5226SOL    HW215968   5.319   2.166   0.826
 5227SOL     OW15969   3.763   2.939   0.300
 5227SOL    HW115970   3.862   2.928   0.291
 5227SOL    HW215971   3.723   2.853   0.332
 5228SOL     OW15972   4.599   3.508   0.337
 5228SOL    HW115973   4.522   3.473   0.283
 5228SOL    HW215974   4.567   3.579   0.399
 5229SOL     OW15975   3.954   2.490   1.975
 5229SOL    HW115976   3.861   2.488   2.012
 5229SOL    HW215977   3.955   2.451   1.883
 5230SOL     OW15978   3.949   2.137   2.858
 5230SOL    HW115979   3.984   2.120   2.950
 5230SOL    HW215980   3.861   2.092   2.846
 5231SOL     OW15981   3.743   2.230   2.509
 5231SOL    HW115982   3.661   2.273   2.548
 5231SOL    HW215983   3.715   2.157   2.446
 5232SOL     OW15984   4.293   3.137   3.027
 5232SOL    HW115985   4.200   3.130   2.990
 5232SOL    HW215986   4.304   3.226   3.071
 5233SOL     OW15987   5.279   3.373   2.565
 5233SOL    HW115988   5.222   3.357   2.646
 5233SOL    HW215989   5.220   3.383   2.485
 5234SOL     OW15990   4.859   2.565   2.579
 5234SOL    HW115991   4.916   2.643   2.554
 5234SOL    HW215992   4.799   2.591   2.655
 5235SOL     OW15993   5.479   2.469   2.093
 5235SOL    HW115994   5.467   2.456   1.994
 5235SOL    HW215995   5.449   2.388   2.142
 5236SOL     OW15996   4.492   3.006   2.885
 5236SOL    HW115997   4.414   3.023   2.945
 5236SOL    HW215998   4.526   3.093   2.849
 5237SOL     OW15999   4.574   2.660   3.685
 5237SOL    HW116000   4.570   2.736   3.750
 5237SOL    HW216001   4.596   2.696   3.594
 5238SOL     OW16002   4.409   2.874   2.527
 5238SOL    HW116003   4.478   2.858   2.597
 5238SOL    HW216004   4.336   2.931   2.565
 5239SOL     OW16005   4.410   3.023   3.665
 5239SOL    HW116006   4.470   3.102   3.679
 5239SOL    HW216007   4.324   3.054   3.624
 5240SOL     OW16008   4.059   3.297   2.923
 5240SOL    HW116009   3.981   3.266   2.870
 5240SOL    HW216010   4.117   3.355   2.866
 5241SOL     OW16011   5.184   3.367   3.201
 5241SOL    HW116012   5.208   3.461   3.227
 5241SOL    HW216013   5.168   3.313   3.283
 5242SOL     OW16014   4.162   2.254   3.361
 5242SOL    HW116015   4.244   2.198   3.370
 5242SOL    HW216016   4.081   2.196   3.365
 5243SOL     OW16017   5.327   2.309   2.599
 5243SOL    HW116018   5.253   2.355   2.549
 5243SOL    HW216019   5.378   2.377   2.652
 5244SOL     OW16020   4.851   3.203   3.552
 5244SOL    HW116021   4.898   3.203   3.640
 5244SOL    HW216022   4.803   3.116   3.541
 5245SOL     OW16023   4.344   3.648   3.301
 5245SOL    HW116024   4.252   3.631   3.336
 5245SOL    HW216025   4.372   3.740   3.327
 5246SOL     OW16026   4.330   2.826   1.985
 5246SOL    HW116027   4.337   2.910   1.931
 5246SOL    HW216028   4.376   2.839   2.073
 5247SOL     OW16029   5.318   1.976   3.342
 5247SOL    HW116030   5.300   2.043   3.270
 5247SOL    HW216031   5.315   2.022   3.431
 5248SOL     OW16032   3.846   2.505   2.425
 5248SOL    HW116033   3.801   2.417   2.442
 5248SOL    HW216034   3.845   2.559   2.509
 5249SOL     OW16035   5.566   3.629   2.221
 5249SOL    HW116036   5.620   3.600   2.301
 5249SOL    HW216037   5.596   3.719   2.192
 5250SOL     OW16038   5.413   2.784   2.474
 5250SOL    HW116039   5.508   2.755   2.482
 5250SOL    HW216040   5.405   2.849   2.399
 5251SOL     OW16041   5.365   2.970   2.294
 5251SOL    HW116042   5.451   2.972   2.242
 5251SOL    HW216043   5.379   3.017   2.382
 5252SOL     OW16044   3.837   2.599   3.459
 5252SOL    HW116045   3.925   2.586   3.504
 5252SOL    HW216046   3.824   2.696   3.437
 5253SOL     OW16047   4.337   3.227   2.588
 5253SOL    HW116048   4.288   3.140   2.597
 5253SOL    HW216049   4.314   3.270   2.501
 5254SOL     OW16050   5.017   3.090   3.285
 5254SOL    HW116051   5.054   3.017   3.227
 5254SOL    HW216052   5.069   3.095   3.370
 5255SOL     OW16053   4.533   1.866   2.364
 5255SOL    HW116054   4.573   1.957   2.355
 5255SOL    HW216055   4.433   1.874   2.370
 5256SOL     OW16056   3.921   2.838   3.126
 5256SOL    HW116057   4.010   2.793   3.112
 5256SOL    HW216058   3.848   2.773   3.107
 5257SOL     OW16059   5.249   2.861   2.052
 5257SOL    HW116060   5.186   2.785   2.065
 5257SOL    HW216061   5.297   2.879   2.138
 5258SOL     OW16062   4.911   3.654   3.478
 5258SOL    HW116063   4.935   3.714   3.402
 5258SOL    HW216064   4.918   3.559   3.448
 5259SOL     OW16065   4.041   2.113   3.663
 5259SOL    HW116066   4.112   2.184   3.669
 5259SOL    HW216067   3.953   2.152   3.691
 5260SOL     OW16068   5.190   3.279   2.815
 5260SOL    HW116069   5.131   3.285   2.895
 5260SOL    HW216070   5.175   3.191   2.769
 5261SOL     OW16071   5.391   3.576   2.434
 5261SOL    HW116072   5.350   3.553   2.346
 5261SOL    HW216073   5.373   3.502   2.499
 5262SOL     OW16074   4.322   2.591   2.132
 5262SOL    HW116075   4.346   2.660   2.064
 5262SOL    HW216076   4.244   2.624   2.186
 5263SOL     OW16077   5.005   2.207   2.806
 5263SOL    HW116078   4.919   2.157   2.793
 5263SOL    HW216079   5.067   2.153   2.862
 5264SOL     OW16080   5.300   3.524   2.169
 5264SOL    HW116081   5.389   3.570   2.172
 5264SOL    HW216082   5.279   3.500   2.074
 5265SOL     OW16083   4.531   2.467   3.327
 5265SOL    HW116084   4.484   2.464   3.416
 5265SOL    HW216085   4.480   2.412   3.261
 5266SOL     OW16086   5.118   2.331   3.536
 5266SOL    HW116087   5.098   2.374   3.624
 5266SOL    HW216088   5.196   2.269   3.545
 5267SOL     OW16089   4.697   2.752   3.434
 5267SOL    HW116090   4.743   2.668   3.405
 5267SOL    HW216091   4.641   2.786   3.359
 5268SOL     OW16092   4.715   2.272   3.104
 5268SOL    HW116093   4.638   2.306   3.158
 5268SOL    HW216094   4.681   2.221   3.025
 5269SOL     OW16095   4.765   2.563   2.291
 5269SOL    HW116096   4.791   2.559   2.387
 5269SOL    HW216097   4.680   2.512   2.277
 5270SOL     OW16098   3.800   2.673   2.651
 5270SOL    HW116099   3.899   2.661   2.660
 5270SOL    HW216100   3.776   2.768   2.672
 5271SOL     OW16101   3.854   3.683   3.433
 5271SOL    HW116102   3.844   3.668   3.532
 5271SOL    HW216103   3.768   3.719   3.397
 5272SOL     OW16104   4.589   2.210   2.057
 5272SOL    HW116105   4.648   2.273   2.008
 5272SOL    HW216106   4.608   2.116   2.028
 5273SOL     OW16107   5.443   2.447   3.693
 5273SOL    HW116108   5.417   2.536   3.657
 5273SOL    HW216109   5.441   2.379   3.620
 5274SOL     OW16110   5.086   3.006   2.407
 5274SOL    HW116111   5.169   2.977   2.359
 5274SOL    HW216112   5.037   3.073   2.351
 5275SOL     OW16113   4.274   2.058   2.747
 5275SOL    HW116114   4.269   2.053   2.847
 5275SOL    HW216115   4.276   2.154   2.718
 5276SOL     OW16116   4.732   3.318   2.339
 5276SOL    HW116117   4.686   3.390   2.287
 5276SOL    HW216118   4.728   3.338   2.437
 5277SOL     OW16119   4.075   3.663   2.715
 5277SOL    HW116120   4.125   3.577   2.721
 5277SOL    HW216121   4.140   3.740   2.712
 5278SOL     OW16122   5.519   2.928   2.735
 5278SOL    HW116123   5.457   2.913   2.659
 5278SOL    HW216124   5.467   2.939   2.820
 5279SOL     OW16125   4.951   3.412   3.368
 5279SOL    HW116126   4.957   3.335   3.432
 5279SOL    HW216127   4.899   3.386   3.288
 5280SOL     OW16128   4.045   2.805   2.104
 5280SOL    HW116129   4.127   2.844   2.062
 5280SOL    HW216130   4.018   2.723   2.055
 5281SOL     OW16131   5.182   2.597   2.590
 5281SOL    HW116132   5.177   2.532   2.665
 5281SOL    HW216133   5.262   2.656   2.603
 5282SOL     OW16134   4.185   3.128   3.589
 5282SOL    HW116135   4.135   3.129   3.503
 5282SOL    HW216136   4.122   3.110   3.665
 5283SOL     OW16137   4.835   3.638   2.099
 5283SOL    HW116138   4.775   3.576   2.149
 5283SOL    HW216139   4.866   3.594   2.014
 5284SOL     OW16140   3.926   2.147   3.360
 5284SOL    HW116141   3.846   2.207   3.347
 5284SOL    HW216142   3.916   2.098   3.446
 5285SOL     OW16143   5.356   3.239   1.943
 5285SOL    HW116144   5.324   3.333   1.933
 5285SOL    HW216145   5.280   3.176   1.931
 5286SOL     OW16146   5.124   1.969   2.288
 5286SOL    HW116147   5.100   1.932   2.198
 5286SOL    HW216148   5.223   1.985   2.292
 5287SOL     OW16149   3.973   3.647   3.103
 5287SOL    HW116150   4.030   3.582   3.153
 5287SOL    HW216151   3.957   3.614   3.010
 5288SOL     OW16152   4.664   3.560   2.766
 5288SOL    HW116153   4.744   3.503   2.787
 5288SOL    HW216154   4.615   3.520   2.689
 5289SOL     OW16155   4.106   2.562   2.342
 5289SOL    HW116156   4.151   2.472   2.339
 5289SOL    HW216157   4.012   2.551   2.375
 5290SOL     OW16158   5.271   2.084   3.591
 5290SOL    HW116159   5.266   2.121   3.683
 5290SOL    HW216160   5.199   2.015   3.579
 5291SOL     OW16161   4.338   1.984   1.979
 5291SOL    HW116162   4.436   1.962   1.986
 5291SOL    HW216163   4.307   1.967   1.886
 5292SOL     OW16164   4.505   2.126   3.611
 5292SOL    HW116165   4.572   2.065   3.654
 5292SOL    HW216166   4.432   2.145   3.676
 5293SOL     OW16167   4.612   3.376   3.057
 5293SOL    HW116168   4.589   3.351   2.963
 5293SOL    HW216169   4.673   3.307   3.096
 5294SOL     OW16170   5.075   2.452   3.295
 5294SOL    HW116171   5.103   2.409   3.380
 5294SOL    HW216172   5.100   2.548   3.296
 5295SOL     OW16173   4.527   3.264   2.786
 5295SOL    HW116174   4.617   3.278   2.744
 5295SOL    HW216175   4.456   3.266   2.715
 5296SOL     OW16176   4.646   2.365   2.761
 5296SOL    HW116177   4.621   2.356   2.665
 5296SOL    HW216178   4.694   2.283   2.792
 5297SOL     OW16179   4.263   1.926   2.374
 5297SOL    HW116180   4.182   1.927   2.432
 5297SOL    HW216181   4.266   2.009   2.319
 5298SOL     OW16182   5.158   3.050   1.903
 5298SOL    HW116183   5.190   2.974   1.960
 5298SOL    HW216184   5.066   3.077   1.933
 5299SOL     OW16185   4.021   1.897   2.033
 5299SOL    HW116186   4.070   1.981   2.012
 5299SOL    HW216187   4.083   1.832   2.078
 5300SOL     OW16188   4.659   2.098   2.342
 5300SOL    HW116189   4.611   2.139   2.264
 5300SOL    HW216190   4.758   2.096   2.323
 5301SOL     OW16191   4.800   2.545   3.326
 5301SOL    HW116192   4.720   2.484   3.329
 5301SOL    HW216193   4.881   2.492   3.302
 5302SOL     OW16194   4.951   3.432   2.655
 5302SOL    HW116195   4.972   3.506   2.590
 5302SOL    HW216196   5.019   3.432   2.728
 5303SOL     OW16197   4.995   3.659   2.453
 5303SOL    HW116198   5.039   3.723   2.389
 5303SOL    HW216199   4.945   3.711   2.523
 5304SOL     OW16200   4.756   2.411   1.878
 5304SOL    HW116201   4.715   2.493   1.839
 5304SOL    HW216202   4.820   2.437   1.951
 5305SOL     OW16203   3.802   2.418   3.248
 5305SOL    HW116204   3.894   2.417   3.207
 5305SOL    HW216205   3.796   2.492   3.315
 5306SOL     OW16206   4.285   2.084   3.009
 5306SOL    HW116207   4.323   2.000   3.046
 5306SOL    HW216208   4.197   2.103   3.053
 5307SOL     OW16209   4.590   2.316   2.504
 5307SOL    HW116210   4.558   2.388   2.442
 5307SOL    HW216211   4.614   2.235   2.451
 5308SOL     OW16212   4.741   1.901   2.615
 5308SOL    HW116213   4.669   1.906   2.546
 5308SOL    HW216214   4.717   1.832   2.684
 5309SOL     OW16215   5.153   3.035   2.729
 5309SOL    HW116216   5.098   2.951   2.722
 5309SOL    HW216217   5.179   3.064   2.637
 5310SOL     OW16218   5.190   2.452   2.854
 5310SOL    HW116219   5.160   2.357   2.861
 5310SOL    HW216220   5.263   2.468   2.920
 5311SOL     OW16221   5.581   2.695   2.239
 5311SOL    HW116222   5.623   2.631   2.303
 5311SOL    HW216223   5.543   2.644   2.161
 5312SOL     OW16224   4.212   3.247   2.036
 5312SOL    HW116225   4.125   3.232   2.083
 5312SOL    HW216226   4.195   3.273   1.941
 5313SOL     OW16227   5.388   3.142   2.519
 5313SOL    HW116228   5.487   3.150   2.533
 5313SOL    HW216229   5.343   3.226   2.550
 5314SOL     OW16230   5.114   2.437   1.940
 5314SOL    HW116231   5.060   2.416   2.021
 5314SOL    HW216232   5.205   2.396   1.949
 5315SOL     OW16233   4.251   2.118   2.190
 5315SOL    HW116234   4.278   2.059   2.115
 5315SOL    HW216235   4.251   2.213   2.159
 5316SOL     OW16236   5.478   3.085   3.450
 5316SOL    HW116237   5.569   3.046   3.437
 5316SOL    HW216238   5.486   3.181   3.474
 5317SOL     OW16239   4.788   3.209   3.202
 5317SOL    HW116240   4.708   3.186   3.257
 5317SOL    HW216241   4.871   3.183   3.251
 5318SOL     OW16242   5.316   3.491   3.487
 5318SOL    HW116243   5.343   3.525   3.397
 5318SOL    HW216244   5.395   3.453   3.533
 5319SOL     OW16245   4.835   3.057   2.962
 5319SOL    HW116246   4.795   3.101   3.043
 5319SOL    HW216247   4.794   3.094   2.879
 5320SOL     OW16248   5.362   2.961   2.941
 5320SOL    HW116249   5.367   3.042   3.000
 5320SOL    HW216250   5.276   2.963   2.890
 5321SOL     OW16251   4.639   1.951   3.264
 5321SOL    HW116252   4.664   1.931   3.169
 5321SOL    HW216253   4.711   2.007   3.306
 5322SOL     OW16254   4.704   2.978   3.581
 5322SOL    HW116255   4.605   2.984   3.591
 5322SOL    HW216256   4.727   2.898   3.525
 5323SOL     OW16257   4.429   2.912   2.230
 5323SOL    HW116258   4.415   2.919   2.329
 5323SOL    HW216259   4.513   2.861   2.212
 5324SOL     OW16260   4.134   2.675   3.113
 5324SOL    HW116261   4.220   2.687   3.163
 5324SOL    HW216262   4.092   2.588   3.140
 5325SOL     OW16263   4.998   2.248   3.124
 5325SOL    HW116264   5.019   2.322   3.188
 5325SOL    HW216265   4.909   2.265   3.081
 5326SOL     OW16266   3.788   3.426   3.193
 5326SOL    HW116267   3.742   3.508   3.159
 5326SOL    HW216268   3.886   3.445   3.202
 5327SOL     OW16269   4.091   2.962   2.363
 5327SOL    HW116270   4.084   3.045   2.307
 5327SOL    HW216271   4.095   2.882   2.303
 5328SOL     OW16272   4.290   2.399   2.727
 5328SOL    HW116273   4.302   2.465   2.653
 5328SOL    HW216274   4.336   2.433   2.810
 5329SOL     OW16275   4.976   3.210   2.250
 5329SOL    HW116276   5.026   3.287   2.290
 5329SOL    HW216277   4.881   3.212   2.282
 5330SOL     OW16278   4.996   3.307   3.004
 5330SOL    HW116279   5.043   3.320   3.091
 5330SOL    HW216280   4.930   3.233   3.013
 5331SOL     OW16281   5.306   2.501   2.334
 5331SOL    HW116282   5.275   2.562   2.407
 5331SOL    HW216283   5.356   2.553   2.265
 5332SOL     OW16284   4.078   3.372   3.191
 5332SOL    HW116285   4.057   3.328   3.104
 5332SOL    HW216286   4.175   3.398   3.194
 5333SOL     OW16287   4.126   2.613   3.460
 5333SOL    HW116288   4.194   2.668   3.413
 5333SOL    HW216289   4.166   2.525   3.487
 5334SOL     OW16290   5.311   2.641   3.532
 5334SOL    HW116291   5.219   2.679   3.527
 5334SOL    HW216292   5.371   2.688   3.467
 5335SOL     OW16293   4.737   1.967   3.632
 5335SOL    HW116294   4.743   2.052   3.580
 5335SOL    HW216295   4.769   1.891   3.575
 5336SOL     OW16296   4.228   1.912   3.602
 5336SOL    HW116297   4.186   1.855   3.532
 5336SOL    HW216298   4.162   1.981   3.634
 5337SOL     OW16299   4.297   2.732   2.891
 5337SOL    HW116300   4.341   2.821   2.882
 5337SOL    HW216301   4.234   2.732   2.968
 5338SOL     OW16302   5.084   2.724   2.907
 5338SOL    HW116303   5.009   2.724   2.841
 5338SOL    HW216304   5.121   2.632   2.916
 5339SOL     OW16305   4.933   2.387   2.137
 5339SOL    HW116306   4.946   2.303   2.191
 5339SOL    HW216307   4.904   2.461   2.197
 5340SOL     OW16308   4.031   2.075   3.093
 5340SOL    HW116309   4.008   2.112   3.183
 5340SOL    HW216310   4.001   1.980   3.087
 5341SOL     OW16311   3.761   3.172   3.144
 5341SOL    HW116312   3.814   3.123   3.212
 5341SOL    HW216313   3.783   3.270   3.149
 5342SOL     OW16314   4.456   2.496   2.926
 5342SOL    HW116315   4.515   2.470   2.850
 5342SOL    HW216316   4.428   2.592   2.915
 5343SOL     OW16317   5.452   2.797   3.716
 5343SOL    HW116318   5.406   2.790   3.627
 5343SOL    HW216319   5.390   2.841   3.782
 5344SOL     OW16320   4.031   1.925   2.480
 5344SOL    HW116321   4.020   2.019   2.513
 5344SOL    HW216322   4.026   1.862   2.557
 5345SOL     OW16323   5.346   2.229   2.236
 5345SOL    HW116324   5.348   2.153   2.300
 5345SOL    HW216325   5.298   2.306   2.276
 5346SOL     OW16326   4.747   2.628   2.828
 5346SOL    HW116327   4.762   2.649   2.924
 5346SOL    HW216328   4.717   2.533   2.819
 5347SOL     OW16329   4.704   3.435   3.562
 5347SOL    HW116330   4.684   3.479   3.474
 5347SOL    HW216331   4.743   3.344   3.546
 5348SOL     OW16332   5.583   3.380   3.467
 5348SOL    HW116333   5.597   3.407   3.372
 5348SOL    HW216334   5.666   3.402   3.520
 5349SOL     OW16335   4.074   2.760   3.666
 5349SOL    HW116336   4.150   2.804   3.714
 5349SOL    HW216337   4.109   2.713   3.584
 5350SOL     OW16338   5.264   2.136   1.987
 5350SOL    HW116339   5.203   2.061   2.010
 5350SOL    HW216340   5.286   2.188   2.070
 5351SOL     OW16341   5.027   2.700   1.904
 5351SOL    HW116342   5.061   2.607   1.919
 5351SOL    HW216343   5.045   2.727   1.809
 5352SOL     OW16344   4.792   3.195   2.711
 5352SOL    HW116345   4.799   3.111   2.656
 5352SOL    HW216346   4.854   3.264   2.675
 5353SOL     OW16347   4.043   2.672   2.811
 5353SOL    HW116348   4.136   2.708   2.816
 5353SOL    HW216349   4.037   2.587   2.863
 5354SOL     OW16350   4.063   2.371   2.868
 5354SOL    HW116351   4.011   2.288   2.851
 5354SOL    HW216352   4.140   2.376   2.804
 5355SOL     OW16353   4.862   2.242   3.540
 5355SOL    HW116354   4.817   2.305   3.604
 5355SOL    HW216355   4.955   2.273   3.523
 5356SOL     OW16356   4.884   2.069   3.339
 5356SOL    HW116357   4.884   2.133   3.416
 5356SOL    HW216358   4.912   2.117   3.256
 5357SOL     OW16359   4.228   3.430   2.772
 5357SOL    HW116360   4.294   3.504   2.781
 5357SOL    HW216361   4.272   3.351   2.730
 5358SOL     OW16362   4.726   2.658   3.100
 5358SOL    HW116363   4.767   2.626   3.186
 5358SOL    HW216364   4.630   2.631   3.097
 5359SOL     OW16365   3.764   2.406   2.976
 5359SOL    HW116366   3.849   2.373   2.935
 5359SOL    HW216367   3.777   2.421   3.074
 5360SOL     OW16368   3.913   2.382   3.584
 5360SOL    HW116369   3.972   2.342   3.514
 5360SOL    HW216370   3.855   2.453   3.543
 5361SOL     OW16371   5.093   2.812   3.522
 5361SOL    HW116372   5.132   2.901   3.542
 5361SOL    HW216373   5.103   2.792   3.425
 5362SOL     OW16374   4.539   2.434   2.187
 5362SOL    HW116375   4.546   2.345   2.141
 5362SOL    HW216376   4.445   2.468   2.179
 5363SOL     OW16377   5.381   2.466   3.068
 5363SOL    HW116378   5.343   2.397   3.130
 5363SOL    HW216379   5.463   2.430   3.024
 5364SOL     OW16380   3.976   3.426   3.606
 5364SOL    HW116381   3.946   3.483   3.682
 5364SOL    HW216382   3.969   3.329   3.632
 5365SOL     OW16383   4.395   2.326   3.131
 5365SOL    HW116384   4.361   2.237   3.101
 5365SOL    HW216385   4.421   2.380   3.051
 5366SOL     OW16386   4.654   3.540   3.327
 5366SOL    HW116387   4.630   3.522   3.232
 5366SOL    HW216388   4.684   3.634   3.337
 5367SOL     OW16389   4.197   2.362   2.053
 5367SOL    HW116390   4.258   2.442   2.057
 5367SOL    HW216391   4.102   2.393   2.060
 5368SOL     OW16392   3.883   2.999   3.328
 5368SOL    HW116393   3.905   2.938   3.404
 5368SOL    HW216394   3.893   2.950   3.242
 5369SOL     OW16395   5.071   2.921   3.096
 5369SOL    HW116396   5.095   2.858   3.022
 5369SOL    HW216397   4.981   2.961   3.078
 5370SOL     OW16398   5.026   2.717   2.171
 5370SOL    HW116399   4.940   2.686   2.213
 5370SOL    HW216400   5.022   2.703   2.072
 5371SOL     OW16401   5.483   3.609   3.016
 5371SOL    HW116402   5.544   3.639   2.943
 5371SOL    HW216403   5.445   3.520   2.994
 5372SOL     OW16404   4.976   3.593   2.990
 5372SOL    HW116405   5.060   3.598   2.936
 5372SOL    HW216406   4.953   3.497   3.008
 5373SOL     OW16407   3.807   3.120   2.884
 5373SOL    HW116408   3.802   3.119   2.984
 5373SOL    HW216409   3.724   3.079   2.846
 5374SOL     OW16410   4.412   3.524   3.578
 5374SOL    HW116411   4.356   3.605   3.587
 5374SOL    HW216412   4.464   3.528   3.492
 5375SOL     OW16413   5.450   1.997   2.385
 5375SOL    HW116414   5.523   1.980   2.318
 5375SOL    HW216415   5.419   1.910   2.423
 5376SOL     OW16416   5.112   3.435   2.339
 5376SOL    HW116417   5.179   3.447   2.265
 5376SOL    HW216418   5.072   3.524   2.362
 5377SOL     OW16419   3.854   3.656   3.713
 5377SOL    HW116420   3.813   3.582   3.766
 5377SOL    HW216421   3.918   3.707   3.771
 5378SOL     OW16422   5.004   2.789   2.534
 5378SOL    HW116423   5.064   2.708   2.536
 5378SOL    HW216424   5.044   2.858   2.474
 5379SOL     OW16425   4.554   3.135   3.284
 5379SOL    HW116426   4.549   3.168   3.379
 5379SOL    HW216427   4.468   3.154   3.238
 5380SOL     OW16428   4.396   3.478   2.016
 5380SOL    HW116429   4.405   3.488   1.917
 5380SOL    HW216430   4.356   3.389   2.037
 5381SOL     OW16431   5.374   3.582   3.256
 5381SOL    HW116432   5.427   3.592   3.172
 5381SOL    HW216433   5.347   3.672   3.290
 5382SOL     OW16434   5.565   2.037   2.825
 5382SOL    HW116435   5.604   1.952   2.789
 5382SOL    HW216436   5.467   2.039   2.806
 5383SOL     OW16437   3.987   2.188   2.582
 5383SOL    HW116438   3.908   2.239   2.548
 5383SOL    HW216439   3.978   2.173   2.680
 5384SOL     OW16440   4.918   3.474   1.893
 5384SOL    HW116441   4.924   3.381   1.930
 5384SOL    HW216442   4.859   3.474   1.813
 5385SOL     OW16443   4.546   2.864   3.234
 5385SOL    HW116444   4.586   2.863   3.142
 5385SOL    HW216445   4.556   2.956   3.274
 5386SOL     OW16446   4.640   2.772   2.153
 5386SOL    HW116447   4.703   2.810   2.085
 5386SOL    HW216448   4.680   2.689   2.192
 5387SOL     OW16449   5.228   3.469   1.906
 5387SOL    HW116450   5.136   3.506   1.913
 5387SOL    HW216451   5.266   3.489   1.816
 5388SOL     OW16452   4.096   3.150   3.352
 5388SOL    HW116453   4.083   3.243   3.318
 5388SOL    HW216454   4.012   3.098   3.339
 5389SOL     OW16455   5.338   3.154   3.151
 5389SOL    HW116456   5.398   3.157   3.231
 5389SOL    HW216457   5.263   3.218   3.164
 5390SOL     OW16458   4.763   2.960   2.558
 5390SOL    HW116459   4.693   2.913   2.612
 5390SOL    HW216460   4.822   2.892   2.515
 5391SOL     OW16461   4.738   2.098   2.833
 5391SOL    HW116462   4.730   2.062   2.740
 5391SOL    HW216463   4.736   2.022   2.898
 5392SOL     OW16464   4.314   3.349   2.353
 5392SOL    HW116465   4.356   3.291   2.283
 5392SOL    HW216466   4.270   3.428   2.309
 5393SOL     OW16467   5.433   2.247   3.243
 5393SOL    HW116468   5.506   2.316   3.247
 5393SOL    HW216469   5.461   2.172   3.184
 5394SOL     OW16470   3.829   2.875   3.588
 5394SOL    HW116471   3.752   2.842   3.642
 5394SOL    HW216472   3.914   2.845   3.630
 5395SOL     OW16473   4.396   2.065   3.351
 5395SOL    HW116474   4.486   2.049   3.311
 5395SOL    HW216475   4.404   2.070   3.450
 5396SOL     OW16476   3.799   2.207   1.895
 5396SOL    HW116477   3.707   2.179   1.866
 5396SOL    HW216478   3.830   2.284   1.839
 5397SOL     OW16479   5.164   2.718   3.260
 5397SOL    HW116480   5.107   2.770   3.197
 5397SOL    HW216481   5.260   2.730   3.236
 5398SOL     OW16482   3.796   2.028   2.180
 5398SOL    HW116483   3.779   2.111   2.126
 5398SOL    HW216484   3.886   1.991   2.158
 5399SOL     OW16485   4.907   3.197   1.981
 5399SOL    HW116486   4.808   3.186   1.983
 5399SOL    HW216487   4.941   3.212   2.074
 5400SOL     OW16488   4.337   2.704   3.293
 5400SOL    HW116489   4.393   2.785   3.276
 5400SOL    HW216490   4.396   2.624   3.296
 5401SOL     OW16491   5.217   3.629   2.821
 5401SOL    HW116492   5.250   3.693   2.752
 5401SOL    HW216493   5.283   3.623   2.896
 5402SOL     OW16494   4.440   2.427   3.570
 5402SOL    HW116495   4.459   2.492   3.644
 5402SOL    HW216496   4.500   2.347   3.579
 5403SOL     OW16497   5.174   3.082   3.495
 5403SOL    HW116498   5.165   3.072   3.594
 5403SOL    HW216499   5.270   3.075   3.469
 5404SOL     OW16500   4.114   3.603   3.422
 5404SOL    HW116501   4.023   3.644   3.420
 5404SOL    HW216502   4.107   3.509   3.454
 5405SOL     OW16503   5.398   2.745   3.116
 5405SOL    HW116504   5.371   2.656   3.079
 5405SOL    HW216505   5.399   2.813   3.043
 5406SOL     OW16506   4.949   2.187   2.311
 5406SOL    HW116507   5.014   2.113   2.300
 5406SOL    HW216508   4.969   2.237   2.395
 5407SOL     OW16509   4.318   2.607   2.514
 5407SOL    HW116510   4.368   2.692   2.495
 5407SOL    HW216511   4.230   2.609   2.466
 5408SOL     OW16512   5.501   2.204   3.504
 5408SOL    HW116513   5.484   2.235   3.410
 5408SOL    HW216514   5.417   2.167   3.542
 5409SOL     OW16515   5.454   2.796   3.379
 5409SOL    HW116516   5.492   2.887   3.394
 5409SOL    HW216517   5.446   2.779   3.280
 5410SOL     OW16518   4.583   3.236   1.878
 5410SOL    HW116519   4.537   3.251   1.966
 5410SOL    HW216520   4.627   3.321   1.848
 5411SOL     OW16521   4.385   3.652   2.815
 5411SOL    HW116522   4.339   3.740   2.802
 5411SOL    HW216523   4.484   3.664   2.808
 5412SOL     OW16524   4.583   2.818   2.723
 5412SOL    HW116525   4.637   2.749   2.771
 5412SOL    HW216526   4.551   2.887   2.789
 5413SOL     OW16527   4.807   2.846   1.949
 5413SOL    HW116528   4.784   2.899   1.867
 5413SOL    HW216529   4.888   2.790   1.930
 5414SOL     OW16530   5.585   3.431   2.713
 5414SOL    HW116531   5.514   3.419   2.643
 5414SOL    HW216532   5.586   3.352   2.773
 5415SOL     OW16533   3.945   3.176   3.706
 5415SOL    HW116534   3.880   3.103   3.685
 5415SOL    HW216535   3.949   3.190   3.804
 5416SOL     OW16536   4.396   3.253   3.486
 5416SOL    HW116537   4.318   3.203   3.524
 5416SOL    HW216538   4.393   3.348   3.517
 5417SOL     OW16539   5.548   2.054   3.089
 5417SOL    HW116540   5.544   1.964   3.133
 5417SOL    HW216541   5.551   2.043   2.990
 5418SOL     OW16542   4.152   2.286   2.382
 5418SOL    HW116543   4.182   2.214   2.320
 5418SOL    HW216544   4.113   2.246   2.465
 5419SOL     OW16545   5.429   3.349   2.966
 5419SOL    HW116546   5.336   3.324   2.939
 5419SOL    HW216547   5.455   3.299   3.048
 5420SOL     OW16548   4.041   2.409   3.142
 5420SOL    HW116549   4.079   2.350   3.214
 5420SOL    HW216550   4.081   2.383   3.054
 5421SOL     OW16551   4.536   3.448   2.549
 5421SOL    HW116552   4.568   3.458   2.455
 5421SOL    HW216553   4.457   3.386   2.551
 5422SOL     OW16554   5.148   2.076   2.974
 5422SOL    HW116555   5.200   2.011   3.029
 5422SOL    HW216556   5.099   2.139   3.035
 5423SOL     OW16557   4.725   1.896   3.016
 5423SOL    HW116558   4.662   1.824   2.985
 5423SOL    HW216559   4.818   1.860   3.016
 5424SOL     OW16560   4.494   3.192   2.163
 5424SOL    HW116561   4.448   3.105   2.180
 5424SOL    HW216562   4.585   3.189   2.204
 5425SOL     OW16563   4.342   3.429   3.146
 5425SOL    HW116564   4.337   3.511   3.203
 5425SOL    HW216565   4.431   3.426   3.101
 5426SOL     OW16566   5.076   1.914   2.030
 5426SOL    HW116567   5.111   1.873   1.946
 5426SOL    HW216568   4.986   1.876   2.050
 5427SOL     OW16569   5.024   2.315   2.553
 5427SOL    HW116570   4.965   2.395   2.557
 5427SOL    HW216571   5.039   2.280   2.646
 5428SOL     OW16572   5.317   2.083   2.744
 5428SOL    HW116573   5.233   2.082   2.798
 5428SOL    HW216574   5.319   2.166   2.688
 5429SOL     OW16575   3.763   2.939   2.162
 5429SOL    HW116576   3.862   2.928   2.153
 5429SOL    HW216577   3.723   2.853   2.194
 5430SOL     OW16578   4.599   3.508   2.199
 5430SOL    HW116579   4.522   3.473   2.145
 5430SOL    HW216580   4.567   3.579   2.261
 5431SOL     OW16581   3.954   2.490   3.837
 5431SOL    HW116582   3.861   2.488   3.874
 5431SOL    HW216583   3.955   2.451   3.745
 5432SOL     OW16584   3.949   2.137   4.720
 5432SOL    HW116585   3.984   2.120   4.812
 5432SOL    HW216586   3.861   2.092   4.708
 5433SOL     OW16587   3.743   2.230   4.371
 5433SOL    HW116588   3.661   2.273   4.410
 5433SOL    HW216589   3.715   2.157   4.308
 5434SOL     OW16590   4.293   3.137   4.889
 5434SOL    HW116591   4.200   3.130   4.852
 5434SOL    HW216592   4.304   3.226   4.933
 5435SOL     OW16593   5.279   3.373   4.427
 5435SOL    HW116594   5.222   3.357   4.508
 5435SOL    HW216595   5.220   3.383   4.347
 5436SOL     OW16596   4.859   2.565   4.441
 5436SOL    HW116597   4.916   2.643   4.416
 5436SOL    HW216598   4.799   2.591   4.517
 5437SOL     OW16599   5.479   2.469   3.955
 5437SOL    HW116600   5.467   2.456   3.856
 5437SOL    HW216601   5.449   2.388   4.004
 5438SOL     OW16602   4.492   3.006   4.747
 5438SOL    HW116603   4.414   3.023   4.807
 5438SOL    HW216604   4.526   3.093   4.711
 5439SOL     OW16605   4.574   2.660   5.547
 5439SOL    HW116606   4.570   2.736   5.612
 5439SOL    HW216607   4.596   2.696   5.456
 5440SOL     OW16608   4.409   2.874   4.389
 5440SOL    HW116609   4.478   2.858   4.459
 5440SOL    HW216610   4.336   2.931   4.427
 5441SOL     OW16611   4.410   3.023   5.527
 5441SOL    HW116612   4.470   3.102   5.541
 5441SOL    HW216613   4.324   3.054   5.486
 5442SOL     OW16614   4.059   3.297   4.785
 5442SOL    HW116615   3.981   3.266   4.732
 5442SOL    HW216616   4.117   3.355   4.728
 5443SOL     OW16617   5.184   3.367   5.063
 5443SOL    HW116618   5.208   3.461   5.089
 5443SOL    HW216619   5.168   3.313   5.145
 5444SOL     OW16620   4.162   2.254   5.223
 5444SOL    HW116621   4.244   2.198   5.232
 5444SOL    HW216622   4.081   2.196   5.227
 5445SOL     OW16623   5.327   2.309   4.461
 5445SOL    HW116624   5.253   2.355   4.411
 5445SOL    HW216625   5.378   2.377   4.514
 5446SOL     OW16626   3.955   3.575   4.207
 5446SOL    HW116627   3.989   3.652   4.261
 5446SOL    HW216628   3.999   3.575   4.117
 5447SOL     OW16629   4.851   3.203   5.414
 5447SOL    HW116630   4.898   3.203   5.502
 5447SOL    HW216631   4.803   3.116   5.403
 5448SOL     OW16632   3.954   3.296   4.262
 5448SOL    HW116633   3.928   3.392   4.262
 5448SOL    HW216634   3.883   3.242   4.307
 5449SOL     OW16635   3.964   2.953   4.610
 5449SOL    HW116636   3.978   2.869   4.662
 5449SOL    HW216637   3.909   3.017   4.665
 5450SOL     OW16638   4.344   3.648   5.163
 5450SOL    HW116639   4.252   3.631   5.198
 5450SOL    HW216640   4.372   3.740   5.189
 5451SOL     OW16641   4.330   2.826   3.847
 5451SOL    HW116642   4.337   2.910   3.793
 5451SOL    HW216643   4.376   2.839   3.935
 5452SOL     OW16644   5.318   1.976   5.204
 5452SOL    HW116645   5.300   2.043   5.132
 5452SOL    HW216646   5.315   2.022   5.293
 5453SOL     OW16647   3.846   2.505   4.287
 5453SOL    HW116648   3.801   2.417   4.304
 5453SOL    HW216649   3.845   2.559   4.371
 5454SOL     OW16650   5.566   3.629   4.083
 5454SOL    HW116651   5.620   3.600   4.163
 5454SOL    HW216652   5.596   3.719   4.054
 5455SOL     OW16653   3.751   3.458   3.841
 5455SOL    HW116654   3.732   3.362   3.862
 5455SOL    HW216655   3.718   3.516   3.916
 5456SOL     OW16656   5.413   2.784   4.336
 5456SOL    HW116657   5.508   2.755   4.344
 5456SOL    HW216658   5.405   2.849   4.261
 5457SOL     OW16659   5.365   2.970   4.156
 5457SOL    HW116660   5.451   2.972   4.104
 5457SOL    HW216661   5.379   3.017   4.244
 5458SOL     OW16662   3.837   2.599   5.321
 5458SOL    HW116663   3.925   2.586   5.366
 5458SOL    HW216664   3.824   2.696   5.299
 5459SOL     OW16665   4.337   3.227   4.450
 5459SOL    HW116666   4.288   3.140   4.459
 5459SOL    HW216667   4.314   3.270   4.363
 5460SOL     OW16668   5.017   3.090   5.147
 5460SOL    HW116669   5.054   3.017   5.089
 5460SOL    HW216670   5.069   3.095   5.232
 5461SOL     OW16671   4.533   1.866   4.226
 5461SOL    HW116672   4.573   1.957   4.217
 5461SOL    HW216673   4.433   1.874   4.232
 5462SOL     OW16674   3.921   2.838   4.988
 5462SOL    HW116675   4.010   2.793   4.974
 5462SOL    HW216676   3.848   2.773   4.969
 5463SOL     OW16677   5.249   2.861   3.914
 5463SOL    HW116678   5.186   2.785   3.927
 5463SOL    HW216679   5.297   2.879   4.000
 5464SOL     OW16680   4.911   3.654   5.340
 5464SOL    HW116681   4.935   3.714   5.264
 5464SOL    HW216682   4.918   3.559   5.310
 5465SOL     OW16683   4.041   2.113   5.525
 5465SOL    HW116684   4.112   2.184   5.531
 5465SOL    HW216685   3.953   2.152   5.553
 5466SOL     OW16686   5.190   3.279   4.677
 5466SOL    HW116687   5.131   3.285   4.757
 5466SOL    HW216688   5.175   3.191   4.631
 5467SOL     OW16689   5.391   3.576   4.296
 5467SOL    HW116690   5.350   3.553   4.208
 5467SOL    HW216691   5.373   3.502   4.361
 5468SOL     OW16692   4.322   2.591   3.994
 5468SOL    HW116693   4.346   2.660   3.926
 5468SOL    HW216694   4.244   2.624   4.048
 5469SOL     OW16695   5.005   2.207   4.668
 5469SOL    HW116696   4.919   2.157   4.655
 5469SOL    HW216697   5.067   2.153   4.724
 5470SOL     OW16698   5.300   3.524   4.031
 5470SOL    HW116699   5.389   3.570   4.034
 5470SOL    HW216700   5.279   3.500   3.936
 5471SOL     OW16701   4.531   2.467   5.189
 5471SOL    HW116702   4.484   2.464   5.278
 5471SOL    HW216703   4.480   2.412   5.123
 5472SOL     OW16704   5.118   2.331   5.398
 5472SOL    HW116705   5.098   2.374   5.486
 5472SOL    HW216706   5.196   2.269   5.407
 5473SOL     OW16707   4.697   2.752   5.296
 5473SOL    HW116708   4.743   2.668   5.267
 5473SOL    HW216709   4.641   2.786   5.221
 5474SOL     OW16710   4.715   2.272   4.966
 5474SOL    HW116711   4.638   2.306   5.020
 5474SOL    HW216712   4.681   2.221   4.887
 5475SOL     OW16713   4.765   2.563   4.153
 5475SOL    HW116714   4.791   2.559   4.249
 5475SOL    HW216715   4.680   2.512   4.139
 5476SOL     OW16716   3.800   2.673   4.513
 5476SOL    HW116717   3.899   2.661   4.522
 5476SOL    HW216718   3.776   2.768   4.534
 5477SOL     OW16719   3.854   3.683   5.295
 5477SOL    HW116720   3.844   3.668   5.394
 5477SOL    HW216721   3.768   3.719   5.259
 5478SOL     OW16722   4.589   2.210   3.919
 5478SOL    HW116723   4.648   2.273   3.870
 5478SOL    HW216724   4.608   2.116   3.890
 5479SOL     OW16725   5.443   2.447   5.555
 5479SOL    HW116726   5.417   2.536   5.519
 5479SOL    HW216727   5.441   2.379   5.482
 5480SOL     OW16728   5.086   3.006   4.269
 5480SOL    HW116729   5.169   2.977   4.221
 5480SOL    HW216730   5.037   3.073   4.213
 5481SOL     OW16731   4.274   2.058   4.609
 5481SOL    HW116732   4.269   2.053   4.709
 5481SOL    HW216733   4.276   2.154   4.580
 5482SOL     OW16734   4.732   3.318   4.201
 5482SOL    HW116735   4.686   3.390   4.149
 5482SOL    HW216736   4.728   3.338   4.299
 5483SOL     OW16737   4.075   3.663   4.577
 5483SOL    HW116738   4.125   3.577   4.583
 5483SOL    HW216739   4.140   3.740   4.574
 5484SOL     OW16740   5.519   2.928   4.597
 5484SOL    HW116741   5.457   2.913   4.521
 5484SOL    HW216742   5.467   2.939   4.682
 5485SOL     OW16743   4.951   3.412   5.230
 5485SOL    HW116744   4.957   3.335   5.294
 5485SOL    HW216745   4.899   3.386   5.150
 5486SOL     OW16746   4.045   2.805   3.966
 5486SOL    HW116747   4.127   2.844   3.924
 5486SOL    HW216748   4.018   2.723   3.917
 5487SOL     OW16749   5.182   2.597   4.452
 5487SOL    HW116750   5.177   2.532   4.527
 5487SOL    HW216751   5.262   2.656   4.465
 5488SOL     OW16752   4.185   3.128   5.451
 5488SOL    HW116753   4.135   3.129   5.365
 5488SOL    HW216754   4.122   3.110   5.527
 5489SOL     OW16755   4.835   3.638   3.961
 5489SOL    HW116756   4.775   3.576   4.011
 5489SOL    HW216757   4.866   3.594   3.876
 5490SOL     OW16758   3.926   2.147   5.222
 5490SOL    HW116759   3.846   2.207   5.209
 5490SOL    HW216760   3.916   2.098   5.308
 5491SOL     OW16761   5.356   3.239   3.805
 5491SOL    HW116762   5.324   3.333   3.795
 5491SOL    HW216763   5.280   3.176   3.793
 5492SOL     OW16764   4.188   3.605   4.047
 5492SOL    HW116765   4.221   3.644   4.133
 5492SOL    HW216766   4.264   3.598   3.982
 5493SOL     OW16767   5.124   1.969   4.150
 5493SOL    HW116768   5.100   1.932   4.060
 5493SOL    HW216769   5.223   1.985   4.154
 5494SOL     OW16770   3.973   3.647   4.965
 5494SOL    HW116771   4.030   3.582   5.015
 5494SOL    HW216772   3.957   3.614   4.872
 5495SOL     OW16773   4.664   3.560   4.628
 5495SOL    HW116774   4.744   3.503   4.649
 5495SOL    HW216775   4.615   3.520   4.551
 5496SOL     OW16776   4.106   2.562   4.204
 5496SOL    HW116777   4.151   2.472   4.201
 5496SOL    HW216778   4.012   2.551   4.237
 5497SOL     OW16779   5.271   2.084   5.453
 5497SOL    HW116780   5.266   2.121   5.545
 5497SOL    HW216781   5.199   2.015   5.441
 5498SOL     OW16782   4.338   1.984   3.841
 5498SOL    HW116783   4.436   1.962   3.848
 5498SOL    HW216784   4.307   1.967   3.748
 5499SOL     OW16785   4.505   2.126   5.473
 5499SOL    HW116786   4.572   2.065   5.516
 5499SOL    HW216787   4.432   2.145   5.538
 5500SOL     OW16788   4.612   3.376   4.919
 5500SOL    HW116789   4.589   3.351   4.825
 5500SOL    HW216790   4.673   3.307   4.958
 5501SOL     OW16791   5.075   2.452   5.157
 5501SOL    HW116792   5.103   2.409   5.242
 5501SOL    HW216793   5.100   2.548   5.158
 5502SOL     OW16794   4.527   3.264   4.648
 5502SOL    HW116795   4.617   3.278   4.606
 5502SOL    HW216796   4.456   3.266   4.577
 5503SOL     OW16797   4.646   2.365   4.623
 5503SOL    HW116798   4.621   2.356   4.527
 5503SOL    HW216799   4.694   2.283   4.654
 5504SOL     OW16800   4.263   1.926   4.236
 5504SOL    HW116801   4.182   1.927   4.294
 5504SOL    HW216802   4.266   2.009   4.181
 5505SOL     OW16803   5.158   3.050   3.765
 5505SOL    HW116804   5.190   2.974   3.822
 5505SOL    HW216805   5.066   3.077   3.795
 5506SOL     OW16806   4.021   1.897   3.895
 5506SOL    HW116807   4.070   1.981   3.874
 5506SOL    HW216808   4.083   1.832   3.940
 5507SOL     OW16809   4.659   2.098   4.204
 5507SOL    HW116810   4.611   2.139   4.126
 5507SOL    HW216811   4.758   2.096   4.185
 5508SOL     OW16812   4.800   2.545   5.188
 5508SOL    HW116813   4.720   2.484   5.191
 5508SOL    HW216814   4.881   2.492   5.164
 5509SOL     OW16815   4.951   3.432   4.517
 5509SOL    HW116816   4.972   3.506   4.452
 5509SOL    HW216817   5.019   3.432   4.590
 5510SOL     OW16818   4.183   3.014   4.465
 5510SOL    HW116819   4.112   2.987   4.530
 5510SOL    HW216820   4.157   2.986   4.372
 5511SOL     OW16821   4.995   3.659   4.315
 5511SOL    HW116822   5.039   3.723   4.251
 5511SOL    HW216823   4.945   3.711   4.385
 5512SOL     OW16824   4.756   2.411   3.740
 5512SOL    HW116825   4.715   2.493   3.701
 5512SOL    HW216826   4.820   2.437   3.813
 5513SOL     OW16827   3.802   2.418   5.110
 5513SOL    HW116828   3.894   2.417   5.069
 5513SOL    HW216829   3.796   2.492   5.177
 5514SOL     OW16830   4.285   2.084   4.871
 5514SOL    HW116831   4.323   2.000   4.908
 5514SOL    HW216832   4.197   2.103   4.915
 5515SOL     OW16833   4.590   2.316   4.366
 5515SOL    HW116834   4.558   2.388   4.304
 5515SOL    HW216835   4.614   2.235   4.313
 5516SOL     OW16836   4.741   1.901   4.477
 5516SOL    HW116837   4.669   1.906   4.408
 5516SOL    HW216838   4.717   1.832   4.546
 5517SOL     OW16839   5.153   3.035   4.591
 5517SOL    HW116840   5.098   2.951   4.584
 5517SOL    HW216841   5.179   3.064   4.499
 5518SOL     OW16842   5.190   2.452   4.716
 5518SOL    HW116843   5.160   2.357   4.723
 5518SOL    HW216844   5.263   2.468   4.782
 5519SOL     OW16845   5.581   2.695   4.101
 5519SOL    HW116846   5.623   2.631   4.165
 5519SOL    HW216847   5.543   2.644   4.023
 5520SOL     OW16848   4.212   3.247   3.898
 5520SOL    HW116849   4.125   3.232   3.945
 5520SOL    HW216850   4.195   3.273   3.803
 5521SOL     OW16851   5.388   3.142   4.381
 5521SOL    HW116852   5.487   3.150   4.395
 5521SOL    HW216853   5.343   3.226   4.412
 5522SOL     OW16854   5.114   2.437   3.802
 5522SOL    HW116855   5.060   2.416   3.883
 5522SOL    HW216856   5.205   2.396   3.811
 5523SOL     OW16857   4.251   2.118   4.052
 5523SOL    HW116858   4.278   2.059   3.977
 5523SOL    HW216859   4.251   2.213   4.021
 5524SOL     OW16860   5.478   3.085   5.312
 5524SOL    HW116861   5.569   3.046   5.299
 5524SOL    HW216862   5.486   3.181   5.336
 5525SOL     OW16863   4.788   3.209   5.064
 5525SOL    HW116864   4.708   3.186   5.119
 5525SOL    HW216865   4.871   3.183   5.113
 5526SOL     OW16866   5.316   3.491   5.349
 5526SOL    HW116867   5.343   3.525   5.259
 5526SOL    HW216868   5.395   3.453   5.395
 5527SOL     OW16869   4.835   3.057   4.824
 5527SOL    HW116870   4.795   3.101   4.905
 5527SOL    HW216871   4.794   3.094   4.741
 5528SOL     OW16872   5.362   2.961   4.803
 5528SOL    HW116873   5.367   3.042   4.862
 5528SOL    HW216874   5.276   2.963   4.752
 5529SOL     OW16875   4.639   1.951   5.126
 5529SOL    HW116876   4.664   1.931   5.031
 5529SOL    HW216877   4.711   2.007   5.168
 5530SOL     OW16878   4.704   2.978   5.443
 5530SOL    HW116879   4.605   2.984   5.453
 5530SOL    HW216880   4.727   2.898   5.387
 5531SOL     OW16881   4.429   2.912   4.092
 5531SOL    HW116882   4.415   2.919   4.191
 5531SOL    HW216883   4.513   2.861   4.074
 5532SOL     OW16884   4.134   2.675   4.975
 5532SOL    HW116885   4.220   2.687   5.025
 5532SOL    HW216886   4.092   2.588   5.002
 5533SOL     OW16887   4.998   2.248   4.986
 5533SOL    HW116888   5.019   2.322   5.050
 5533SOL    HW216889   4.909   2.265   4.943
 5534SOL     OW16890   3.788   3.426   5.055
 5534SOL    HW116891   3.742   3.508   5.021
 5534SOL    HW216892   3.886   3.445   5.064
 5535SOL     OW16893   4.091   2.962   4.225
 5535SOL    HW116894   4.084   3.045   4.169
 5535SOL    HW216895   4.095   2.882   4.165
 5536SOL     OW16896   4.290   2.399   4.589
 5536SOL    HW116897   4.302   2.465   4.515
 5536SOL    HW216898   4.336   2.433   4.672
 5537SOL     OW16899   4.976   3.210   4.112
 5537SOL    HW116900   5.026   3.287   4.152
 5537SOL    HW216901   4.881   3.212   4.144
 5538SOL     OW16902   4.996   3.307   4.866
 5538SOL    HW116903   5.043   3.320   4.953
 5538SOL    HW216904   4.930   3.233   4.875
 5539SOL     OW16905   5.306   2.501   4.196
 5539SOL    HW116906   5.275   2.562   4.269
 5539SOL    HW216907   5.356   2.553   4.127
 5540SOL     OW16908   4.078   3.372   5.053
 5540SOL    HW116909   4.057   3.328   4.966
 5540SOL    HW216910   4.175   3.398   5.056
 5541SOL     OW16911   4.126   2.613   5.322
 5541SOL    HW116912   4.194   2.668   5.275
 5541SOL    HW216913   4.166   2.525   5.349
 5542SOL     OW16914   5.311   2.641   5.394
 5542SOL    HW116915   5.219   2.679   5.389
 5542SOL    HW216916   5.371   2.688   5.329
 5543SOL     OW16917   4.737   1.967   5.494
 5543SOL    HW116918   4.743   2.052   5.442
 5543SOL    HW216919   4.769   1.891   5.437
 5544SOL     OW16920   4.228   1.912   5.464
 5544SOL    HW116921   4.186   1.855   5.394
 5544SOL    HW216922   4.162   1.981   5.496
 5545SOL     OW16923   4.297   2.732   4.753
 5545SOL    HW116924   4.341   2.821   4.744
 5545SOL    HW216925   4.234   2.732   4.830
 5546SOL     OW16926   5.084   2.724   4.769
 5546SOL    HW116927   5.009   2.724   4.703
 5546SOL    HW216928   5.121   2.632   4.778
 5547SOL     OW16929   4.933   2.387   3.999
 5547SOL    HW116930   4.946   2.303   4.053
 5547SOL    HW216931   4.904   2.461   4.059
 5548SOL     OW16932   4.031   2.075   4.955
 5548SOL    HW116933   4.008   2.112   5.045
 5548SOL    HW216934   4.001   1.980   4.949
 5549SOL     OW16935   3.761   3.172   5.006
 5549SOL    HW116936   3.814   3.123   5.074
 5549SOL    HW216937   3.783   3.270   5.011
 5550SOL     OW16938   4.456   2.496   4.788
 5550SOL    HW116939   4.515   2.470   4.712
 5550SOL    HW216940   4.428   2.592   4.777
 5551SOL     OW16941   5.452   2.797   5.578
 5551SOL    HW116942   5.406   2.790   5.489
 5551SOL    HW216943   5.390   2.841   5.644
 5552SOL     OW16944   4.031   1.925   4.342
 5552SOL    HW116945   4.020   2.019   4.375
 5552SOL    HW216946   4.026   1.862   4.419
 5553SOL     OW16947   5.346   2.229   4.098
 5553SOL    HW116948   5.348   2.153   4.162
 5553SOL    HW216949   5.298   2.306   4.138
 5554SOL     OW16950   4.747   2.628   4.690
 5554SOL    HW116951   4.762   2.649   4.786
 5554SOL    HW216952   4.717   2.533   4.681
 5555SOL     OW16953   4.704   3.435   5.424
 5555SOL    HW116954   4.684   3.479   5.336
 5555SOL    HW216955   4.743   3.344   5.408
 5556SOL     OW16956   5.583   3.380   5.329
 5556SOL    HW116957   5.597   3.407   5.234
 5556SOL    HW216958   5.666   3.402   5.382
 5557SOL     OW16959   4.074   2.760   5.528
 5557SOL    HW116960   4.150   2.804   5.576
 5557SOL    HW216961   4.109   2.713   5.446
 5558SOL     OW16962   5.264   2.136   3.849
 5558SOL    HW116963   5.203   2.061   3.872
 5558SOL    HW216964   5.286   2.188   3.932
 5559SOL     OW16965   5.027   2.700   3.766
 5559SOL    HW116966   5.061   2.607   3.781
 5559SOL    HW216967   5.045   2.727   3.671
 5560SOL     OW16968   4.792   3.195   4.573
 5560SOL    HW116969   4.799   3.111   4.518
 5560SOL    HW216970   4.854   3.264   4.537
 5561SOL     OW16971   4.043   2.672   4.673
 5561SOL    HW116972   4.136   2.708   4.678
 5561SOL    HW216973   4.037   2.587   4.725
 5562SOL     OW16974   4.063   2.371   4.730
 5562SOL    HW116975   4.011   2.288   4.713
 5562SOL    HW216976   4.140   2.376   4.666
 5563SOL     OW16977   4.862   2.242   5.402
 5563SOL    HW116978   4.817   2.305   5.466
 5563SOL    HW216979   4.955   2.273   5.385
 5564SOL     OW16980   4.884   2.069   5.201
 5564SOL    HW116981   4.884   2.133   5.278
 5564SOL    HW216982   4.912   2.117   5.118
 5565SOL     OW16983   3.732   3.188   3.924
 5565SOL    HW116984   3.639   3.209   3.893
 5565SOL    HW216985   3.742   3.089   3.937
 5566SOL     OW16986   3.812   3.663   4.651
 5566SOL    HW116987   3.770   3.577   4.624
 5566SOL    HW216988   3.906   3.666   4.617
 5567SOL     OW16989   4.228   3.430   4.634
 5567SOL    HW116990   4.294   3.504   4.643
 5567SOL    HW216991   4.272   3.351   4.592
 5568SOL     OW16992   4.726   2.658   4.962
 5568SOL    HW116993   4.767   2.626   5.048
 5568SOL    HW216994   4.630   2.631   4.959
 5569SOL     OW16995   3.764   2.406   4.838
 5569SOL    HW116996   3.849   2.373   4.797
 5569SOL    HW216997   3.777   2.421   4.936
 5570SOL     OW16998   3.913   2.382   5.446
 5570SOL    HW116999   3.972   2.342   5.376
 5570SOL    HW217000   3.855   2.453   5.405
 5571SOL     OW17001   5.093   2.812   5.384
 5571SOL    HW117002   5.132   2.901   5.404
 5571SOL    HW217003   5.103   2.792   5.287
 5572SOL     OW17004   4.539   2.434   4.049
 5572SOL    HW117005   4.546   2.345   4.003
 5572SOL    HW217006   4.445   2.468   4.041
 5573SOL     OW17007   5.381   2.466   4.930
 5573SOL    HW117008   5.343   2.397   4.992
 5573SOL    HW217009   5.463   2.430   4.886
 5574SOL     OW17010   3.976   3.426   5.468
 5574SOL    HW117011   3.946   3.483   5.544
 5574SOL    HW217012   3.969   3.329   5.494
 5575SOL     OW17013   4.395   2.326   4.993
 5575SOL    HW117014   4.361   2.237   4.963
 5575SOL    HW217015   4.421   2.380   4.913
 5576SOL     OW17016   4.654   3.540   5.189
 5576SOL    HW117017   4.630   3.522   5.094
 5576SOL    HW217018   4.684   3.634   5.199
 5577SOL     OW17019   4.197   2.362   3.915
 5577SOL    HW117020   4.258   2.442   3.919
 5577SOL    HW217021   4.102   2.393   3.922
 5578SOL     OW17022   3.883   2.999   5.190
 5578SOL    HW117023   3.905   2.938   5.266
 5578SOL    HW217024   3.893   2.950   5.104
 5579SOL     OW17025   5.071   2.921   4.958
 5579SOL    HW117026   5.095   2.858   4.884
 5579SOL    HW217027   4.981   2.961   4.940
 5580SOL     OW17028   5.026   2.717   4.033
 5580SOL    HW117029   4.940   2.686   4.075
 5580SOL    HW217030   5.022   2.703   3.934
 5581SOL     OW17031   5.483   3.609   4.878
 5581SOL    HW117032   5.544   3.639   4.805
 5581SOL    HW217033   5.445   3.520   4.856
 5582SOL     OW17034   4.976   3.593   4.852
 5582SOL    HW117035   5.060   3.598   4.798
 5582SOL    HW217036   4.953   3.497   4.870
 5583SOL     OW17037   3.807   3.120   4.746
 5583SOL    HW117038   3.802   3.119   4.846
 5583SOL    HW217039   3.724   3.079   4.708
 5584SOL     OW17040   4.412   3.524   5.440
 5584SOL    HW117041   4.356   3.605   5.449
 5584SOL    HW217042   4.464   3.528   5.354
 5585SOL     OW17043   5.450   1.997   4.247
 5585SOL    HW117044   5.523   1.980   4.180
 5585SOL    HW217045   5.419   1.910   4.285
 5586SOL     OW17046   5.112   3.435   4.201
 5586SOL    HW117047   5.179   3.447   4.127
 5586SOL    HW217048   5.072   3.524   4.224
 5587SOL     OW17049   3.854   3.656   5.575
 5587SOL    HW117050   3.813   3.582   5.628
 5587SOL    HW217051   3.918   3.707   5.633
 5588SOL     OW17052   5.004   2.789   4.396
 5588SOL    HW117053   5.064   2.708   4.398
 5588SOL    HW217054   5.044   2.858   4.336
 5589SOL     OW17055   4.554   3.135   5.146
 5589SOL    HW117056   4.549   3.168   5.241
 5589SOL    HW217057   4.468   3.154   5.100
 5590SOL     OW17058   4.396   3.478   3.878
 5590SOL    HW117059   4.405   3.488   3.779
 5590SOL    HW217060   4.356   3.389   3.899
 5591SOL     OW17061   5.374   3.582   5.118
 5591SOL    HW117062   5.427   3.592   5.034
 5591SOL    HW217063   5.347   3.672   5.152
 5592SOL     OW17064   5.565   2.037   4.687
 5592SOL    HW117065   5.604   1.952   4.651
 5592SOL    HW217066   5.467   2.039   4.668
 5593SOL     OW17067   3.987   2.188   4.444
 5593SOL    HW117068   3.908   2.239   4.410
 5593SOL    HW217069   3.978   2.173   4.542
 5594SOL     OW17070   4.918   3.474   3.755
 5594SOL    HW117071   4.924   3.381   3.792
 5594SOL    HW217072   4.859   3.474   3.675
 5595SOL     OW17073   4.546   2.864   5.096
 5595SOL    HW117074   4.586   2.863   5.004
 5595SOL    HW217075   4.556   2.956   5.136
 5596SOL     OW17076   4.640   2.772   4.015
 5596SOL    HW117077   4.703   2.810   3.947
 5596SOL    HW217078   4.680   2.689   4.054
 5597SOL     OW17079   5.228   3.469   3.768
 5597SOL    HW117080   5.136   3.506   3.775
 5597SOL    HW217081   5.266   3.489   3.678
 5598SOL     OW17082   4.096   3.150   5.214
 5598SOL    HW117083   4.083   3.243   5.180
 5598SOL    HW217084   4.012   3.098   5.201
 5599SOL     OW17085   5.338   3.154   5.013
 5599SOL    HW117086   5.398   3.157   5.093
 5599SOL    HW217087   5.263   3.218   5.026
 5600SOL     OW17088   4.763   2.960   4.420
 5600SOL    HW117089   4.693   2.913   4.474
 5600SOL    HW217090   4.822   2.892   4.377
 5601SOL     OW17091   4.738   2.098   4.695
 5601SOL    HW117092   4.730   2.062   4.602
 5601SOL    HW217093   4.736   2.022   4.760
 5602SOL     OW17094   4.314   3.349   4.215
 5602SOL    HW117095   4.356   3.291   4.145
 5602SOL    HW217096   4.270   3.428   4.171
 5603SOL     OW17097   5.433   2.247   5.105
 5603SOL    HW117098   5.506   2.316   5.109
 5603SOL    HW217099   5.461   2.172   5.046
 5604SOL     OW17100   3.979   3.210   4.014
 5604SOL    HW117101   3.883   3.211   3.987
 5604SOL    HW217102   3.991   3.263   4.098
 5605SOL     OW17103   3.829   2.875   5.450
 5605SOL    HW117104   3.752   2.842   5.504
 5605SOL    HW217105   3.914   2.845   5.492
 5606SOL     OW17106   4.396   2.065   5.213
 5606SOL    HW117107   4.486   2.049   5.173
 5606SOL    HW217108   4.404   2.070   5.312
 5607SOL     OW17109   3.799   2.207   3.757
 5607SOL    HW117110   3.707   2.179   3.728
 5607SOL    HW217111   3.830   2.284   3.701
 5608SOL     OW17112   5.164   2.718   5.122
 5608SOL    HW117113   5.107   2.770   5.059
 5608SOL    HW217114   5.260   2.730   5.098
 5609SOL     OW17115   3.796   2.028   4.042
 5609SOL    HW117116   3.779   2.111   3.988
 5609SOL    HW217117   3.886   1.991   4.020
 5610SOL     OW17118   4.907   3.197   3.843
 5610SOL    HW117119   4.808   3.186   3.845
 5610SOL    HW217120   4.941   3.212   3.936
 5611SOL     OW17121   4.337   2.704   5.155
 5611SOL    HW117122   4.393   2.785   5.138
 5611SOL    HW217123   4.396   2.624   5.158
 5612SOL     OW17124   5.217   3.629   4.683
 5612SOL    HW117125   5.250   3.693   4.614
 5612SOL    HW217126   5.283   3.623   4.758
 5613SOL     OW17127   4.440   2.427   5.432
 5613SOL    HW117128   4.459   2.492   5.506
 5613SOL    HW217129   4.500   2.347   5.441
 5614SOL     OW17130   5.174   3.082   5.357
 5614SOL    HW117131   5.165   3.072   5.456
 5614SOL    HW217132   5.270   3.075   5.331
 5615SOL     OW17133   4.114   3.603   5.284
 5615SOL    HW117134   4.023   3.644   5.282
 5615SOL    HW217135   4.107   3.509   5.316
 5616SOL     OW17136   5.398   2.745   4.978
 5616SOL    HW117137   5.371   2.656   4.941
 5616SOL    HW217138   5.399   2.813   4.905
 5617SOL     OW17139   4.949   2.187   4.173
 5617SOL    HW117140   5.014   2.113   4.162
 5617SOL    HW217141   4.969   2.237   4.257
 5618SOL     OW17142   4.318   2.607   4.376
 5618SOL    HW117143   4.368   2.692   4.357
 5618SOL    HW217144   4.230   2.609   4.328
 5619SOL     OW17145   5.501   2.204   5.366
 5619SOL    HW117146   5.484   2.235   5.272
 5619SOL    HW217147   5.417   2.167   5.404
 5620SOL     OW17148   5.454   2.796   5.241
 5620SOL    HW117149   5.492   2.887   5.256
 5620SOL    HW217150   5.446   2.779   5.142
 5621SOL     OW17151   4.583   3.236   3.740
 5621SOL    HW117152   4.537   3.251   3.828
 5621SOL    HW217153   4.627   3.321   3.710
 5622SOL     OW17154   4.385   3.652   4.677
 5622SOL    HW117155   4.339   3.740   4.664
 5622SOL    HW217156   4.484   3.664   4.670
 5623SOL     OW17157   4.583   2.818   4.585
 5623SOL    HW117158   4.637   2.749   4.633
 5623SOL    HW217159   4.551   2.887   4.651
 5624SOL     OW17160   4.807   2.846   3.811
 5624SOL    HW117161   4.784   2.899   3.729
 5624SOL    HW217162   4.888   2.790   3.792
 5625SOL     OW17163   5.585   3.431   4.575
 5625SOL    HW117164   5.514   3.419   4.505
 5625SOL    HW217165   5.586   3.352   4.635
 5626SOL     OW17166   3.945   3.176   5.568
 5626SOL    HW117167   3.880   3.103   5.547
 5626SOL    HW217168   3.949   3.190   5.666
 5627SOL     OW17169   3.803   3.102   4.377
 5627SOL    HW117170   3.802   3.055   4.465
 5627SOL    HW217171   3.885   3.074   4.326
 5628SOL     OW17172   4.396   3.253   5.348
 5628SOL    HW117173   4.318   3.203   5.386
 5628SOL    HW217174   4.393   3.348   5.379
 5629SOL     OW17175   5.548   2.054   4.951
 5629SOL    HW117176   5.544   1.964   4.995
 5629SOL    HW217177   5.551   2.043   4.852
 5630SOL     OW17178   4.152   2.286   4.244
 5630SOL    HW117179   4.182   2.214   4.182
 5630SOL    HW217180   4.113   2.246   4.327
 5631SOL     OW17181   5.429   3.349   4.828
 5631SOL    HW117182   5.336   3.324   4.801
 5631SOL    HW217183   5.455   3.299   4.910
 5632SOL     OW17184   4.041   2.409   5.004
 5632SOL    HW117185   4.079   2.350   5.076
 5632SOL    HW217186   4.081   2.383   4.916
 5633SOL     OW17187   4.536   3.448   4.411
 5633SOL    HW117188   4.568   3.458   4.317
 5633SOL    HW217189   4.457   3.386   4.413
 5634SOL     OW17190   5.148   2.076   4.836
 5634SOL    HW117191   5.200   2.011   4.891
 5634SOL    HW217192   5.099   2.139   4.897
 5635SOL     OW17193   4.725   1.896   4.878
 5635SOL    HW117194   4.662   1.824   4.847
 5635SOL    HW217195   4.818   1.860   4.878
 5636SOL     OW17196   4.494   3.192   4.025
 5636SOL    HW117197   4.448   3.105   4.042
 5636SOL    HW217198   4.585   3.189   4.066
 5637SOL     OW17199   4.342   3.429   5.008
 5637SOL    HW117200   4.337   3.511   5.065
 5637SOL    HW217201   4.431   3.426   4.963
 5638SOL     OW17202   5.076   1.914   3.892
 5638SOL    HW117203   5.111   1.873   3.808
 5638SOL    HW217204   4.986   1.876   3.912
 5639SOL     OW17205   5.024   2.315   4.415
 5639SOL    HW117206   4.965   2.395   4.419
 5639SOL    HW217207   5.039   2.280   4.508
 5640SOL     OW17208   5.317   2.083   4.606
 5640SOL    HW117209   5.233   2.082   4.660
 5640SOL    HW217210   5.319   2.166   4.550
 5641SOL     OW17211   3.763   2.939   4.024
 5641SOL    HW117212   3.862   2.928   4.015
 5641SOL    HW217213   3.723   2.853   4.056
 5642SOL     OW17214   4.599   3.508   4.061
 5642SOL    HW117215   4.522   3.473   4.007
 5642SOL    HW217216   4.567   3.579   4.123
 5643SOL     OW17217   3.954   2.490   5.699
 5643SOL    HW117218   3.861   2.488   5.736
 5643SOL    HW217219   3.955   2.451   5.607
 5644SOL     OW17220   5.479   2.469   5.817
 5644SOL    HW117221   5.467   2.456   5.718
 5644SOL    HW217222   5.449   2.388   5.866
 5645SOL     OW17223   3.955   3.575   6.069
 5645SOL    HW117224   3.989   3.652   6.123
 5645SOL    HW217225   3.999   3.575   5.979
 5646SOL     OW17226   4.330   2.826   5.709
 5646SOL    HW117227   4.337   2.910   5.655
 5646SOL    HW217228   4.376   2.839   5.797
 5647SOL     OW17229   5.566   3.629   5.945
 5647SOL    HW117230   5.620   3.600   6.025
 5647SOL    HW217231   5.596   3.719   5.916
 5648SOL     OW17232   3.751   3.458   5.703
 5648SOL    HW117233   3.732   3.362   5.724
 5648SOL    HW217234   3.718   3.516   5.778
 5649SOL     OW17235   5.413   2.784   6.198
 5649SOL    HW117236   5.508   2.755   6.206
 5649SOL    HW217237   5.405   2.849   6.123
 5650SOL     OW17238   5.365   2.970   6.018
 5650SOL    HW117239   5.451   2.972   5.966
 5650SOL    HW217240   5.379   3.017   6.106
 5651SOL     OW17241   5.249   2.861   5.776
 5651SOL    HW117242   5.186   2.785   5.789
 5651SOL    HW217243   5.297   2.879   5.862
 5652SOL     OW17244   4.322   2.591   5.856
 5652SOL    HW117245   4.346   2.660   5.788
 5652SOL    HW217246   4.244   2.624   5.910
 5653SOL     OW17247   4.589   2.210   5.781
 5653SOL    HW117248   4.648   2.273   5.732
 5653SOL    HW217249   4.608   2.116   5.752
 5654SOL     OW17250   4.045   2.805   5.828
 5654SOL    HW117251   4.127   2.844   5.786
 5654SOL    HW217252   4.018   2.723   5.779
 5655SOL     OW17253   4.835   3.638   5.823
 5655SOL    HW117254   4.775   3.576   5.873
 5655SOL    HW217255   4.866   3.594   5.738
 5656SOL     OW17256   5.356   3.239   5.667
 5656SOL    HW117257   5.324   3.333   5.657
 5656SOL    HW217258   5.280   3.176   5.655
 5657SOL     OW17259   4.188   3.605   5.909
 5657SOL    HW117260   4.221   3.644   5.995
 5657SOL    HW217261   4.264   3.598   5.844
 5658SOL     OW17262   4.338   1.984   5.703
 5658SOL    HW117263   4.436   1.962   5.710
 5658SOL    HW217264   4.307   1.967   5.610
 5659SOL     OW17265   5.158   3.050   5.627
 5659SOL    HW117266   5.190   2.974   5.684
 5659SOL    HW217267   5.066   3.077   5.657
 5660SOL     OW17268   4.021   1.897   5.757
 5660SOL    HW117269   4.070   1.981   5.736
 5660SOL    HW217270   4.083   1.832   5.802
 5661SOL     OW17271   4.756   2.411   5.602
 5661SOL    HW117272   4.715   2.493   5.563
 5661SOL    HW217273   4.820   2.437   5.675
 5662SOL     OW17274   5.581   2.695   5.963
 5662SOL    HW117275   5.623   2.631   6.027
 5662SOL    HW217276   5.543   2.644   5.885
 5663SOL     OW17277   4.212   3.247   5.760
 5663SOL    HW117278   4.125   3.232   5.807
 5663SOL    HW217279   4.195   3.273   5.665
 5664SOL     OW17280   5.388   3.142   6.243
 5664SOL    HW117281   5.487   3.150   6.257
 5664SOL    HW217282   5.343   3.226   6.274
 5665SOL     OW17283   5.114   2.437   5.664
 5665SOL    HW117284   5.060   2.416   5.745
 5665SOL    HW217285   5.205   2.396   5.673
 5666SOL     OW17286   4.251   2.118   5.914
 5666SOL    HW117287   4.278   2.059   5.839
 5666SOL    HW217288   4.251   2.213   5.883
 5667SOL     OW17289   4.091   2.962   6.087
 5667SOL    HW117290   4.084   3.045   6.031
 5667SOL    HW217291   4.095   2.882   6.027
 5668SOL     OW17292   4.933   2.387   5.861
 5668SOL    HW117293   4.946   2.303   5.915
 5668SOL    HW217294   4.904   2.461   5.921
 5669SOL     OW17295   4.031   1.925   6.204
 5669SOL    HW117296   4.020   2.019   6.237
 5669SOL    HW217297   4.026   1.862   6.281
 5670SOL     OW17298   5.264   2.136   5.711
 5670SOL    HW117299   5.203   2.061   5.734
 5670SOL    HW217300   5.286   2.188   5.794
 5671SOL     OW17301   5.027   2.700   5.628
 5671SOL    HW117302   5.061   2.607   5.643
 5671SOL    HW217303   5.045   2.727   5.533
 5672SOL     OW17304   3.732   3.188   5.786
 5672SOL    HW117305   3.639   3.209   5.755
 5672SOL    HW217306   3.742   3.089   5.799
 5673SOL     OW17307   4.539   2.434   5.911
 5673SOL    HW117308   4.546   2.345   5.865
 5673SOL    HW217309   4.445   2.468   5.903
 5674SOL     OW17310   4.197   2.362   5.777
 5674SOL    HW117311   4.258   2.442   5.781
 5674SOL    HW217312   4.102   2.393   5.784
 5675SOL     OW17313   5.450   1.997   6.109
 5675SOL    HW117314   5.523   1.980   6.042
 5675SOL    HW217315   5.419   1.910   6.147
 5676SOL     OW17316   4.396   3.478   5.740
 5676SOL    HW117317   4.405   3.488   5.641
 5676SOL    HW217318   4.356   3.389   5.761
 5677SOL     OW17319   4.918   3.474   5.617
 5677SOL    HW117320   4.924   3.381   5.654
 5677SOL    HW217321   4.859   3.474   5.537
 5678SOL     OW17322   4.640   2.772   5.877
 5678SOL    HW117323   4.703   2.810   5.809
 5678SOL    HW217324   4.680   2.689   5.916
 5679SOL     OW17325   5.228   3.469   5.630
 5679SOL    HW117326   5.136   3.506   5.637
 5679SOL    HW217327   5.266   3.489   5.540
 5680SOL     OW17328   4.763   2.960   6.282
 5680SOL    HW117329   4.693   2.913   6.336
 5680SOL    HW217330   4.822   2.892   6.239
 5681SOL     OW17331   3.979   3.210   5.876
 5681SOL    HW117332   3.883   3.211   5.849
 5681SOL    HW217333   3.991   3.263   5.960
 5682SOL     OW17334   3.799   2.207   5.619
 5682SOL    HW117335   3.707   2.179   5.590
 5682SOL    HW217336   3.830   2.284   5.563
 5683SOL     OW17337   3.796   2.028   5.904
 5683SOL    HW117338   3.779   2.111   5.850
 5683SOL    HW217339   3.886   1.991   5.882
 5684SOL     OW17340   4.907   3.197   5.705
 5684SOL    HW117341   4.808   3.186   5.707
 5684SOL    HW217342   4.941   3.212   5.798
 5685SOL     OW17343   4.949   2.187   6.035
 5685SOL    HW117344   5.014   2.113   6.024
 5685SOL    HW217345   4.969   2.237   6.119
 5686SOL     OW17346   4.583   3.236   5.602
 5686SOL    HW117347   4.537   3.251   5.690
 5686SOL    HW217348   4.627   3.321   5.572
 5687SOL     OW17349   4.807   2.846   5.673
 5687SOL    HW117350   4.784   2.899   5.591
 5687SOL    HW217351   4.888   2.790   5.654
 5688SOL     OW17352   5.076   1.914   5.754
 5688SOL    HW117353   5.111   1.873   5.670
 5688SOL    HW217354   4.986   1.876   5.774
 5689SOL     OW17355   3.763   2.939   5.886
 5689SOL    HW117356   3.862   2.928   5.877
 5689SOL    HW217357   3.723   2.853   5.918
 5690SOL     OW17358   4.599   3.508   5.923
 5690SOL    HW117359   4.522   3.473   5.869
 5690SOL    HW217360   4.567   3.579   5.985
 5691SOL     OW17361   3.954   4.352   0.113
 5691SOL    HW117362   3.861   4.350   0.150
 5691SOL    HW217363   3.955   4.313   0.021
 5692SOL     OW17364   3.949   3.999   0.996
 5692SOL    HW117365   3.984   3.982   1.088
 5692SOL    HW217366   3.861   3.954   0.984
 5693SOL     OW17367   3.743   4.092   0.647
 5693SOL    HW117368   3.661   4.135   0.686
 5693SOL    HW217369   3.715   4.019   0.584
 5694SOL     OW17370   4.293   4.999   1.165
 5694SOL    HW117371   4.200   4.992   1.128
 5694SOL    HW217372   4.304   5.088   1.209
 5695SOL     OW17373   5.279   5.235   0.703
 5695SOL    HW117374   5.222   5.219   0.784
 5695SOL    HW217375   5.220   5.245   0.623
 5696SOL     OW17376   4.859   4.427   0.717
 5696SOL    HW117377   4.916   4.505   0.692
 5696SOL    HW217378   4.799   4.453   0.793
 5697SOL     OW17379   5.479   4.331   0.231
 5697SOL    HW117380   5.467   4.318   0.132
 5697SOL    HW217381   5.449   4.250   0.280
 5698SOL     OW17382   4.492   4.868   1.023
 5698SOL    HW117383   4.414   4.885   1.083
 5698SOL    HW217384   4.526   4.955   0.987
 5699SOL     OW17385   4.574   4.522   1.823
 5699SOL    HW117386   4.570   4.598   1.888
 5699SOL    HW217387   4.596   4.558   1.732
 5700SOL     OW17388   4.409   4.736   0.665
 5700SOL    HW117389   4.478   4.720   0.735
 5700SOL    HW217390   4.336   4.793   0.703
 5701SOL     OW17391   4.410   4.885   1.803
 5701SOL    HW117392   4.470   4.964   1.817
 5701SOL    HW217393   4.324   4.916   1.762
 5702SOL     OW17394   4.059   5.159   1.061
 5702SOL    HW117395   3.981   5.128   1.008
 5702SOL    HW217396   4.117   5.217   1.004
 5703SOL     OW17397   5.184   5.229   1.339
 5703SOL    HW117398   5.208   5.323   1.365
 5703SOL    HW217399   5.168   5.175   1.421
 5704SOL     OW17400   4.162   4.116   1.499
 5704SOL    HW117401   4.244   4.060   1.508
 5704SOL    HW217402   4.081   4.058   1.503
 5705SOL     OW17403   5.327   4.171   0.737
 5705SOL    HW117404   5.253   4.217   0.687
 5705SOL    HW217405   5.378   4.239   0.790
 5706SOL     OW17406   3.955   5.437   0.483
 5706SOL    HW117407   3.989   5.514   0.537
 5706SOL    HW217408   3.999   5.437   0.393
 5707SOL     OW17409   4.851   5.065   1.690
 5707SOL    HW117410   4.898   5.065   1.778
 5707SOL    HW217411   4.803   4.978   1.679
 5708SOL     OW17412   3.954   5.158   0.538
 5708SOL    HW117413   3.928   5.254   0.538
 5708SOL    HW217414   3.883   5.104   0.583
 5709SOL     OW17415   3.964   4.815   0.886
 5709SOL    HW117416   3.978   4.731   0.938
 5709SOL    HW217417   3.909   4.879   0.941
 5710SOL     OW17418   4.344   5.510   1.439
 5710SOL    HW117419   4.252   5.493   1.474
 5710SOL    HW217420   4.372   5.602   1.465
 5711SOL     OW17421   4.330   4.688   0.123
 5711SOL    HW117422   4.337   4.772   0.069
 5711SOL    HW217423   4.376   4.701   0.211
 5712SOL     OW17424   5.318   3.838   1.480
 5712SOL    HW117425   5.300   3.905   1.408
 5712SOL    HW217426   5.315   3.884   1.569
 5713SOL     OW17427   3.846   4.367   0.563
 5713SOL    HW117428   3.801   4.279   0.580
 5713SOL    HW217429   3.845   4.421   0.647
 5714SOL     OW17430   5.566   5.491   0.359
 5714SOL    HW117431   5.620   5.462   0.439
 5714SOL    HW217432   5.596   5.581   0.330
 5715SOL     OW17433   3.751   5.320   0.117
 5715SOL    HW117434   3.732   5.224   0.138
 5715SOL    HW217435   3.718   5.378   0.192
 5716SOL     OW17436   5.413   4.646   0.612
 5716SOL    HW117437   5.508   4.617   0.620
 5716SOL    HW217438   5.405   4.711   0.537
 5717SOL     OW17439   5.365   4.832   0.432
 5717SOL    HW117440   5.451   4.834   0.380
 5717SOL    HW217441   5.379   4.879   0.520
 5718SOL     OW17442   3.837   4.461   1.597
 5718SOL    HW117443   3.925   4.448   1.642
 5718SOL    HW217444   3.824   4.558   1.575
 5719SOL     OW17445   4.337   5.089   0.726
 5719SOL    HW117446   4.288   5.002   0.735
 5719SOL    HW217447   4.314   5.132   0.639
 5720SOL     OW17448   5.017   4.952   1.423
 5720SOL    HW117449   5.054   4.879   1.365
 5720SOL    HW217450   5.069   4.957   1.508
 5721SOL     OW17451   4.533   3.728   0.502
 5721SOL    HW117452   4.573   3.819   0.493
 5721SOL    HW217453   4.433   3.736   0.508
 5722SOL     OW17454   3.921   4.700   1.264
 5722SOL    HW117455   4.010   4.655   1.250
 5722SOL    HW217456   3.848   4.635   1.245
 5723SOL     OW17457   5.249   4.723   0.190
 5723SOL    HW117458   5.186   4.647   0.203
 5723SOL    HW217459   5.297   4.741   0.276
 5724SOL     OW17460   4.911   5.516   1.616
 5724SOL    HW117461   4.935   5.576   1.540
 5724SOL    HW217462   4.918   5.421   1.586
 5725SOL     OW17463   4.041   3.975   1.801
 5725SOL    HW117464   4.112   4.046   1.807
 5725SOL    HW217465   3.953   4.014   1.829
 5726SOL     OW17466   5.190   5.141   0.953
 5726SOL    HW117467   5.131   5.147   1.033
 5726SOL    HW217468   5.175   5.053   0.907
 5727SOL     OW17469   5.391   5.438   0.572
 5727SOL    HW117470   5.350   5.415   0.484
 5727SOL    HW217471   5.373   5.364   0.637
 5728SOL     OW17472   4.322   4.453   0.270
 5728SOL    HW117473   4.346   4.522   0.202
 5728SOL    HW217474   4.244   4.486   0.324
 5729SOL     OW17475   5.005   4.069   0.944
 5729SOL    HW117476   4.919   4.019   0.931
 5729SOL    HW217477   5.067   4.015   1.000
 5730SOL     OW17478   5.300   5.386   0.307
 5730SOL    HW117479   5.389   5.432   0.310
 5730SOL    HW217480   5.279   5.362   0.212
 5731SOL     OW17481   4.531   4.329   1.465
 5731SOL    HW117482   4.484   4.326   1.554
 5731SOL    HW217483   4.480   4.274   1.399
 5732SOL     OW17484   5.118   4.193   1.674
 5732SOL    HW117485   5.098   4.236   1.762
 5732SOL    HW217486   5.196   4.131   1.683
 5733SOL     OW17487   4.697   4.614   1.572
 5733SOL    HW117488   4.743   4.530   1.543
 5733SOL    HW217489   4.641   4.648   1.497
 5734SOL     OW17490   4.715   4.134   1.242
 5734SOL    HW117491   4.638   4.168   1.296
 5734SOL    HW217492   4.681   4.083   1.163
 5735SOL     OW17493   4.765   4.425   0.429
 5735SOL    HW117494   4.791   4.421   0.525
 5735SOL    HW217495   4.680   4.374   0.415
 5736SOL     OW17496   3.800   4.535   0.789
 5736SOL    HW117497   3.899   4.523   0.798
 5736SOL    HW217498   3.776   4.630   0.810
 5737SOL     OW17499   3.854   5.545   1.571
 5737SOL    HW117500   3.844   5.530   1.670
 5737SOL    HW217501   3.768   5.581   1.535
 5738SOL     OW17502   4.589   4.072   0.195
 5738SOL    HW117503   4.648   4.135   0.146
 5738SOL    HW217504   4.608   3.978   0.166
 5739SOL     OW17505   5.443   4.309   1.831
 5739SOL    HW117506   5.417   4.398   1.795
 5739SOL    HW217507   5.441   4.241   1.758
 5740SOL     OW17508   5.086   4.868   0.545
 5740SOL    HW117509   5.169   4.839   0.497
 5740SOL    HW217510   5.037   4.935   0.489
 5741SOL     OW17511   4.274   3.920   0.885
 5741SOL    HW117512   4.269   3.915   0.985
 5741SOL    HW217513   4.276   4.016   0.856
 5742SOL     OW17514   4.732   5.180   0.477
 5742SOL    HW117515   4.686   5.252   0.425
 5742SOL    HW217516   4.728   5.200   0.575
 5743SOL     OW17517   4.075   5.525   0.853
 5743SOL    HW117518   4.125   5.439   0.859
 5743SOL    HW217519   4.140   5.602   0.850
 5744SOL     OW17520   5.519   4.790   0.873
 5744SOL    HW117521   5.457   4.775   0.797
 5744SOL    HW217522   5.467   4.801   0.958
 5745SOL     OW17523   4.951   5.274   1.506
 5745SOL    HW117524   4.957   5.197   1.570
 5745SOL    HW217525   4.899   5.248   1.426
 5746SOL     OW17526   4.045   4.667   0.242
 5746SOL    HW117527   4.127   4.706   0.200
 5746SOL    HW217528   4.018   4.585   0.193
 5747SOL     OW17529   5.182   4.459   0.728
 5747SOL    HW117530   5.177   4.394   0.803
 5747SOL    HW217531   5.262   4.518   0.741
 5748SOL     OW17532   4.185   4.990   1.727
 5748SOL    HW117533   4.135   4.991   1.641
 5748SOL    HW217534   4.122   4.972   1.803
 5749SOL     OW17535   4.835   5.500   0.237
 5749SOL    HW117536   4.775   5.438   0.287
 5749SOL    HW217537   4.866   5.456   0.152
 5750SOL     OW17538   3.926   4.009   1.498
 5750SOL    HW117539   3.846   4.069   1.485
 5750SOL    HW217540   3.916   3.960   1.584
 5751SOL     OW17541   5.356   5.101   0.081
 5751SOL    HW117542   5.324   5.195   0.071
 5751SOL    HW217543   5.280   5.038   0.069
 5752SOL     OW17544   4.188   5.467   0.323
 5752SOL    HW117545   4.221   5.506   0.409
 5752SOL    HW217546   4.264   5.460   0.258
 5753SOL     OW17547   5.124   3.831   0.426
 5753SOL    HW117548   5.100   3.794   0.336
 5753SOL    HW217549   5.223   3.847   0.430
 5754SOL     OW17550   3.973   5.509   1.241
 5754SOL    HW117551   4.030   5.444   1.291
 5754SOL    HW217552   3.957   5.476   1.148
 5755SOL     OW17553   4.664   5.422   0.904
 5755SOL    HW117554   4.744   5.365   0.925
 5755SOL    HW217555   4.615   5.382   0.827
 5756SOL     OW17556   4.106   4.424   0.480
 5756SOL    HW117557   4.151   4.334   0.477
 5756SOL    HW217558   4.012   4.413   0.513
 5757SOL     OW17559   5.271   3.946   1.729
 5757SOL    HW117560   5.266   3.983   1.821
 5757SOL    HW217561   5.199   3.877   1.717
 5758SOL     OW17562   4.338   3.846   0.117
 5758SOL    HW117563   4.436   3.824   0.124
 5758SOL    HW217564   4.307   3.829   0.024
 5759SOL     OW17565   4.505   3.988   1.749
 5759SOL    HW117566   4.572   3.927   1.792
 5759SOL    HW217567   4.432   4.007   1.814
 5760SOL     OW17568   4.612   5.238   1.195
 5760SOL    HW117569   4.589   5.213   1.101
 5760SOL    HW217570   4.673   5.169   1.234
 5761SOL     OW17571   5.075   4.314   1.433
 5761SOL    HW117572   5.103   4.271   1.518
 5761SOL    HW217573   5.100   4.410   1.434
 5762SOL     OW17574   4.527   5.126   0.924
 5762SOL    HW117575   4.617   5.140   0.882
 5762SOL    HW217576   4.456   5.128   0.853
 5763SOL     OW17577   4.646   4.227   0.899
 5763SOL    HW117578   4.621   4.218   0.803
 5763SOL    HW217579   4.694   4.145   0.930
 5764SOL     OW17580   4.263   3.788   0.512
 5764SOL    HW117581   4.182   3.789   0.570
 5764SOL    HW217582   4.266   3.871   0.457
 5765SOL     OW17583   5.158   4.912   0.041
 5765SOL    HW117584   5.190   4.836   0.098
 5765SOL    HW217585   5.066   4.939   0.071
 5766SOL     OW17586   4.659   3.960   0.480
 5766SOL    HW117587   4.611   4.001   0.402
 5766SOL    HW217588   4.758   3.958   0.461
 5767SOL     OW17589   4.800   4.407   1.464
 5767SOL    HW117590   4.720   4.346   1.467
 5767SOL    HW217591   4.881   4.354   1.440
 5768SOL     OW17592   4.951   5.294   0.793
 5768SOL    HW117593   4.972   5.368   0.728
 5768SOL    HW217594   5.019   5.294   0.866
 5769SOL     OW17595   4.183   4.876   0.741
 5769SOL    HW117596   4.112   4.849   0.806
 5769SOL    HW217597   4.157   4.848   0.648
 5770SOL     OW17598   4.995   5.521   0.591
 5770SOL    HW117599   5.039   5.585   0.527
 5770SOL    HW217600   4.945   5.573   0.661
 5771SOL     OW17601   4.756   4.273   0.016
 5771SOL    HW117602   4.715   4.355  -0.023
 5771SOL    HW217603   4.820   4.299   0.089
 5772SOL     OW17604   3.802   4.280   1.386
 5772SOL    HW117605   3.894   4.279   1.345
 5772SOL    HW217606   3.796   4.354   1.453
 5773SOL     OW17607   4.285   3.946   1.147
 5773SOL    HW117608   4.323   3.862   1.184
 5773SOL    HW217609   4.197   3.965   1.191
 5774SOL     OW17610   4.590   4.178   0.642
 5774SOL    HW117611   4.558   4.250   0.580
 5774SOL    HW217612   4.614   4.097   0.589
 5775SOL     OW17613   4.741   3.763   0.753
 5775SOL    HW117614   4.669   3.768   0.684
 5775SOL    HW217615   4.717   3.694   0.822
 5776SOL     OW17616   5.153   4.897   0.867
 5776SOL    HW117617   5.098   4.813   0.860
 5776SOL    HW217618   5.179   4.926   0.775
 5777SOL     OW17619   5.190   4.314   0.992
 5777SOL    HW117620   5.160   4.219   0.999
 5777SOL    HW217621   5.263   4.330   1.058
 5778SOL     OW17622   5.581   4.557   0.377
 5778SOL    HW117623   5.623   4.493   0.441
 5778SOL    HW217624   5.543   4.506   0.299
 5779SOL     OW17625   4.212   5.109   0.174
 5779SOL    HW117626   4.125   5.094   0.221
 5779SOL    HW217627   4.195   5.135   0.079
 5780SOL     OW17628   5.388   5.004   0.657
 5780SOL    HW117629   5.487   5.012   0.671
 5780SOL    HW217630   5.343   5.088   0.688
 5781SOL     OW17631   5.114   4.299   0.078
 5781SOL    HW117632   5.060   4.278   0.159
 5781SOL    HW217633   5.205   4.258   0.087
 5782SOL     OW17634   4.251   3.980   0.328
 5782SOL    HW117635   4.278   3.921   0.253
 5782SOL    HW217636   4.251   4.075   0.297
 5783SOL     OW17637   5.478   4.947   1.588
 5783SOL    HW117638   5.569   4.908   1.575
 5783SOL    HW217639   5.486   5.043   1.612
 5784SOL     OW17640   4.788   5.071   1.340
 5784SOL    HW117641   4.708   5.048   1.395
 5784SOL    HW217642   4.871   5.045   1.389
 5785SOL     OW17643   5.316   5.353   1.625
 5785SOL    HW117644   5.343   5.387   1.535
 5785SOL    HW217645   5.395   5.315   1.671
 5786SOL     OW17646   4.835   4.919   1.100
 5786SOL    HW117647   4.795   4.963   1.181
 5786SOL    HW217648   4.794   4.956   1.017
 5787SOL     OW17649   5.362   4.823   1.079
 5787SOL    HW117650   5.367   4.904   1.138
 5787SOL    HW217651   5.276   4.825   1.028
 5788SOL     OW17652   4.639   3.813   1.402
 5788SOL    HW117653   4.664   3.793   1.307
 5788SOL    HW217654   4.711   3.869   1.444
 5789SOL     OW17655   4.704   4.840   1.719
 5789SOL    HW117656   4.605   4.846   1.729
 5789SOL    HW217657   4.727   4.760   1.663
 5790SOL     OW17658   4.429   4.774   0.368
 5790SOL    HW117659   4.415   4.781   0.467
 5790SOL    HW217660   4.513   4.723   0.350
 5791SOL     OW17661   4.134   4.537   1.251
 5791SOL    HW117662   4.220   4.549   1.301
 5791SOL    HW217663   4.092   4.450   1.278
 5792SOL     OW17664   4.998   4.110   1.262
 5792SOL    HW117665   5.019   4.184   1.326
 5792SOL    HW217666   4.909   4.127   1.219
 5793SOL     OW17667   3.788   5.288   1.331
 5793SOL    HW117668   3.742   5.370   1.297
 5793SOL    HW217669   3.886   5.307   1.340
 5794SOL     OW17670   4.091   4.824   0.501
 5794SOL    HW117671   4.084   4.907   0.445
 5794SOL    HW217672   4.095   4.744   0.441
 5795SOL     OW17673   4.290   4.261   0.865
 5795SOL    HW117674   4.302   4.327   0.791
 5795SOL    HW217675   4.336   4.295   0.948
 5796SOL     OW17676   4.976   5.072   0.388
 5796SOL    HW117677   5.026   5.149   0.428
 5796SOL    HW217678   4.881   5.074   0.420
 5797SOL     OW17679   4.996   5.169   1.142
 5797SOL    HW117680   5.043   5.182   1.229
 5797SOL    HW217681   4.930   5.095   1.151
 5798SOL     OW17682   5.306   4.363   0.472
 5798SOL    HW117683   5.275   4.424   0.545
 5798SOL    HW217684   5.356   4.415   0.403
 5799SOL     OW17685   4.078   5.234   1.329
 5799SOL    HW117686   4.057   5.190   1.242
 5799SOL    HW217687   4.175   5.260   1.332
 5800SOL     OW17688   4.126   4.475   1.598
 5800SOL    HW117689   4.194   4.530   1.551
 5800SOL    HW217690   4.166   4.387   1.625
 5801SOL     OW17691   5.311   4.503   1.670
 5801SOL    HW117692   5.219   4.541   1.665
 5801SOL    HW217693   5.371   4.550   1.605
 5802SOL     OW17694   4.737   3.829   1.770
 5802SOL    HW117695   4.743   3.914   1.718
 5802SOL    HW217696   4.769   3.753   1.713
 5803SOL     OW17697   4.228   3.774   1.740
 5803SOL    HW117698   4.186   3.717   1.670
 5803SOL    HW217699   4.162   3.843   1.772
 5804SOL     OW17700   4.297   4.594   1.029
 5804SOL    HW117701   4.341   4.683   1.020
 5804SOL    HW217702   4.234   4.594   1.106
 5805SOL     OW17703   5.084   4.586   1.045
 5805SOL    HW117704   5.009   4.586   0.979
 5805SOL    HW217705   5.121   4.494   1.054
 5806SOL     OW17706   4.933   4.249   0.275
 5806SOL    HW117707   4.946   4.165   0.329
 5806SOL    HW217708   4.904   4.323   0.335
 5807SOL     OW17709   4.031   3.937   1.231
 5807SOL    HW117710   4.008   3.974   1.321
 5807SOL    HW217711   4.001   3.842   1.225
 5808SOL     OW17712   3.761   5.034   1.282
 5808SOL    HW117713   3.814   4.985   1.350
 5808SOL    HW217714   3.783   5.132   1.287
 5809SOL     OW17715   4.456   4.358   1.064
 5809SOL    HW117716   4.515   4.332   0.988
 5809SOL    HW217717   4.428   4.454   1.053
 5810SOL     OW17718   5.452   4.659   1.854
 5810SOL    HW117719   5.406   4.652   1.765
 5810SOL    HW217720   5.390   4.703   1.920
 5811SOL     OW17721   4.031   3.787   0.618
 5811SOL    HW117722   4.020   3.881   0.651
 5811SOL    HW217723   4.026   3.724   0.695
 5812SOL     OW17724   5.346   4.091   0.374
 5812SOL    HW117725   5.348   4.015   0.438
 5812SOL    HW217726   5.298   4.168   0.414
 5813SOL     OW17727   4.747   4.490   0.966
 5813SOL    HW117728   4.762   4.511   1.062
 5813SOL    HW217729   4.717   4.395   0.957
 5814SOL     OW17730   4.704   5.297   1.700
 5814SOL    HW117731   4.684   5.341   1.612
 5814SOL    HW217732   4.743   5.206   1.684
 5815SOL     OW17733   5.583   5.242   1.605
 5815SOL    HW117734   5.597   5.269   1.510
 5815SOL    HW217735   5.666   5.264   1.658
 5816SOL     OW17736   4.074   4.622   1.804
 5816SOL    HW117737   4.150   4.666   1.852
 5816SOL    HW217738   4.109   4.575   1.722
 5817SOL     OW17739   5.264   3.998   0.125
 5817SOL    HW117740   5.203   3.923   0.148
 5817SOL    HW217741   5.286   4.050   0.208
 5818SOL     OW17742   5.027   4.562   0.042
 5818SOL    HW117743   5.061   4.469   0.057
 5818SOL    HW217744   5.045   4.589  -0.053
 5819SOL     OW17745   4.792   5.057   0.849
 5819SOL    HW117746   4.799   4.973   0.794
 5819SOL    HW217747   4.854   5.126   0.813
 5820SOL     OW17748   4.043   4.534   0.949
 5820SOL    HW117749   4.136   4.570   0.954
 5820SOL    HW217750   4.037   4.449   1.001
 5821SOL     OW17751   4.063   4.233   1.006
 5821SOL    HW117752   4.011   4.150   0.989
 5821SOL    HW217753   4.140   4.238   0.942
 5822SOL     OW17754   4.862   4.104   1.678
 5822SOL    HW117755   4.817   4.167   1.742
 5822SOL    HW217756   4.955   4.135   1.661
 5823SOL     OW17757   4.884   3.931   1.477
 5823SOL    HW117758   4.884   3.995   1.554
 5823SOL    HW217759   4.912   3.979   1.394
 5824SOL     OW17760   3.812   5.525   0.927
 5824SOL    HW117761   3.770   5.439   0.900
 5824SOL    HW217762   3.906   5.528   0.893
 5825SOL     OW17763   4.228   5.292   0.910
 5825SOL    HW117764   4.294   5.366   0.919
 5825SOL    HW217765   4.272   5.213   0.868
 5826SOL     OW17766   4.726   4.520   1.238
 5826SOL    HW117767   4.767   4.488   1.324
 5826SOL    HW217768   4.630   4.493   1.235
 5827SOL     OW17769   3.764   4.268   1.114
 5827SOL    HW117770   3.849   4.235   1.073
 5827SOL    HW217771   3.777   4.283   1.212
 5828SOL     OW17772   3.913   4.244   1.722
 5828SOL    HW117773   3.972   4.204   1.652
 5828SOL    HW217774   3.855   4.315   1.681
 5829SOL     OW17775   5.093   4.674   1.660
 5829SOL    HW117776   5.132   4.763   1.680
 5829SOL    HW217777   5.103   4.654   1.563
 5830SOL     OW17778   4.539   4.296   0.325
 5830SOL    HW117779   4.546   4.207   0.279
 5830SOL    HW217780   4.445   4.330   0.317
 5831SOL     OW17781   5.381   4.328   1.206
 5831SOL    HW117782   5.343   4.259   1.268
 5831SOL    HW217783   5.463   4.292   1.162
 5832SOL     OW17784   3.976   5.288   1.744
 5832SOL    HW117785   3.946   5.345   1.820
 5832SOL    HW217786   3.969   5.191   1.770
 5833SOL     OW17787   4.395   4.188   1.269
 5833SOL    HW117788   4.361   4.099   1.239
 5833SOL    HW217789   4.421   4.242   1.189
 5834SOL     OW17790   4.654   5.402   1.465
 5834SOL    HW117791   4.630   5.384   1.370
 5834SOL    HW217792   4.684   5.496   1.475
 5835SOL     OW17793   4.197   4.224   0.191
 5835SOL    HW117794   4.258   4.304   0.195
 5835SOL    HW217795   4.102   4.255   0.198
 5836SOL     OW17796   3.883   4.861   1.466
 5836SOL    HW117797   3.905   4.800   1.542
 5836SOL    HW217798   3.893   4.812   1.380
 5837SOL     OW17799   5.071   4.783   1.234
 5837SOL    HW117800   5.095   4.720   1.160
 5837SOL    HW217801   4.981   4.823   1.216
 5838SOL     OW17802   5.026   4.579   0.309
 5838SOL    HW117803   4.940   4.548   0.351
 5838SOL    HW217804   5.022   4.565   0.210
 5839SOL     OW17805   5.483   5.471   1.154
 5839SOL    HW117806   5.544   5.501   1.081
 5839SOL    HW217807   5.445   5.382   1.132
 5840SOL     OW17808   4.976   5.455   1.128
 5840SOL    HW117809   5.060   5.460   1.074
 5840SOL    HW217810   4.953   5.359   1.146
 5841SOL     OW17811   3.807   4.982   1.022
 5841SOL    HW117812   3.802   4.981   1.122
 5841SOL    HW217813   3.724   4.941   0.984
 5842SOL     OW17814   4.412   5.386   1.716
 5842SOL    HW117815   4.356   5.467   1.725
 5842SOL    HW217816   4.464   5.390   1.630
 5843SOL     OW17817   4.627   3.810   0.133
 5843SOL    HW117818   4.678   3.811   0.047
 5843SOL    HW217819   4.683   3.768   0.204
 5844SOL     OW17820   5.450   3.859   0.523
 5844SOL    HW117821   5.523   3.842   0.456
 5844SOL    HW217822   5.419   3.772   0.561
 5845SOL     OW17823   5.112   5.297   0.477
 5845SOL    HW117824   5.179   5.309   0.403
 5845SOL    HW217825   5.072   5.386   0.500
 5846SOL     OW17826   3.854   5.518   1.851
 5846SOL    HW117827   3.813   5.444   1.904
 5846SOL    HW217828   3.918   5.569   1.909
 5847SOL     OW17829   5.004   4.651   0.672
 5847SOL    HW117830   5.064   4.570   0.674
 5847SOL    HW217831   5.044   4.720   0.612
 5848SOL     OW17832   4.554   4.997   1.422
 5848SOL    HW117833   4.549   5.030   1.517
 5848SOL    HW217834   4.468   5.016   1.376
 5849SOL     OW17835   4.396   5.340   0.154
 5849SOL    HW117836   4.405   5.350   0.055
 5849SOL    HW217837   4.356   5.251   0.175
 5850SOL     OW17838   5.374   5.444   1.394
 5850SOL    HW117839   5.427   5.454   1.310
 5850SOL    HW217840   5.347   5.534   1.428
 5851SOL     OW17841   5.565   3.899   0.963
 5851SOL    HW117842   5.604   3.814   0.927
 5851SOL    HW217843   5.467   3.901   0.944
 5852SOL     OW17844   3.987   4.050   0.720
 5852SOL    HW117845   3.908   4.101   0.686
 5852SOL    HW217846   3.978   4.035   0.818
 5853SOL     OW17847   4.918   5.336   0.031
 5853SOL    HW117848   4.924   5.243   0.068
 5853SOL    HW217849   4.859   5.336  -0.049
 5854SOL     OW17850   4.546   4.726   1.372
 5854SOL    HW117851   4.586   4.725   1.280
 5854SOL    HW217852   4.556   4.818   1.412
 5855SOL     OW17853   4.640   4.634   0.291
 5855SOL    HW117854   4.703   4.672   0.223
 5855SOL    HW217855   4.680   4.551   0.330
 5856SOL     OW17856   5.228   5.331   0.044
 5856SOL    HW117857   5.136   5.368   0.051
 5856SOL    HW217858   5.266   5.351  -0.046
 5857SOL     OW17859   4.096   5.012   1.490
 5857SOL    HW117860   4.083   5.105   1.456
 5857SOL    HW217861   4.012   4.960   1.477
 5858SOL     OW17862   5.338   5.016   1.289
 5858SOL    HW117863   5.398   5.019   1.369
 5858SOL    HW217864   5.263   5.080   1.302
 5859SOL     OW17865   4.763   4.822   0.696
 5859SOL    HW117866   4.693   4.775   0.750
 5859SOL    HW217867   4.822   4.754   0.653
 5860SOL     OW17868   4.738   3.960   0.971
 5860SOL    HW117869   4.730   3.924   0.878
 5860SOL    HW217870   4.736   3.884   1.036
 5861SOL     OW17871   4.314   5.211   0.491
 5861SOL    HW117872   4.356   5.153   0.421
 5861SOL    HW217873   4.270   5.290   0.447
 5862SOL     OW17874   5.433   4.109   1.381
 5862SOL    HW117875   5.506   4.178   1.385
 5862SOL    HW217876   5.461   4.034   1.322
 5863SOL     OW17877   3.979   5.072   0.290
 5863SOL    HW117878   3.883   5.073   0.263
 5863SOL    HW217879   3.991   5.125   0.374
 5864SOL     OW17880   3.829   4.737   1.726
 5864SOL    HW117881   3.752   4.704   1.780
 5864SOL    HW217882   3.914   4.707   1.768
 5865SOL     OW17883   4.396   3.927   1.489
 5865SOL    HW117884   4.486   3.911   1.449
 5865SOL    HW217885   4.404   3.932   1.588
 5866SOL     OW17886   3.799   4.069   0.033
 5866SOL    HW117887   3.707   4.041   0.004
 5866SOL    HW217888   3.830   4.146  -0.023
 5867SOL     OW17889   5.164   4.580   1.398
 5867SOL    HW117890   5.107   4.632   1.335
 5867SOL    HW217891   5.260   4.592   1.374
 5868SOL     OW17892   3.796   3.890   0.318
 5868SOL    HW117893   3.779   3.973   0.264
 5868SOL    HW217894   3.886   3.853   0.296
 5869SOL     OW17895   4.907   5.059   0.119
 5869SOL    HW117896   4.808   5.048   0.121
 5869SOL    HW217897   4.941   5.074   0.212
 5870SOL     OW17898   4.337   4.566   1.431
 5870SOL    HW117899   4.393   4.647   1.414
 5870SOL    HW217900   4.396   4.486   1.434
 5871SOL     OW17901   5.217   5.491   0.959
 5871SOL    HW117902   5.250   5.555   0.890
 5871SOL    HW217903   5.283   5.485   1.034
 5872SOL     OW17904   4.440   4.289   1.708
 5872SOL    HW117905   4.459   4.354   1.782
 5872SOL    HW217906   4.500   4.209   1.717
 5873SOL     OW17907   5.174   4.944   1.633
 5873SOL    HW117908   5.165   4.934   1.732
 5873SOL    HW217909   5.270   4.937   1.607
 5874SOL     OW17910   4.114   5.465   1.560
 5874SOL    HW117911   4.023   5.506   1.558
 5874SOL    HW217912   4.107   5.371   1.592
 5875SOL     OW17913   5.398   4.607   1.254
 5875SOL    HW117914   5.371   4.518   1.217
 5875SOL    HW217915   5.399   4.675   1.181
 5876SOL     OW17916   4.949   4.049   0.449
 5876SOL    HW117917   5.014   3.975   0.438
 5876SOL    HW217918   4.969   4.099   0.533
 5877SOL     OW17919   4.318   4.469   0.652
 5877SOL    HW117920   4.368   4.554   0.633
 5877SOL    HW217921   4.230   4.471   0.604
 5878SOL     OW17922   5.501   4.066   1.642
 5878SOL    HW117923   5.484   4.097   1.548
 5878SOL    HW217924   5.417   4.029   1.680
 5879SOL     OW17925   5.454   4.658   1.517
 5879SOL    HW117926   5.492   4.749   1.532
 5879SOL    HW217927   5.446   4.641   1.418
 5880SOL     OW17928   4.583   5.098   0.016
 5880SOL    HW117929   4.537   5.113   0.104
 5880SOL    HW217930   4.627   5.183  -0.014
 5881SOL     OW17931   4.385   5.514   0.953
 5881SOL    HW117932   4.339   5.602   0.940
 5881SOL    HW217933   4.484   5.526   0.946
 5882SOL     OW17934   4.583   4.680   0.861
 5882SOL    HW117935   4.637   4.611   0.909
 5882SOL    HW217936   4.551   4.749   0.927
 5883SOL     OW17937   4.807   4.708   0.087
 5883SOL    HW117938   4.784   4.761   0.005
 5883SOL    HW217939   4.888   4.652   0.068
 5884SOL     OW17940   5.585   5.293   0.851
 5884SOL    HW117941   5.514   5.281   0.781
 5884SOL    HW217942   5.586   5.214   0.911
 5885SOL     OW17943   3.945   5.038   1.844
 5885SOL    HW117944   3.880   4.965   1.823
 5885SOL    HW217945   3.949   5.052   1.942
 5886SOL     OW17946   3.803   4.964   0.653
 5886SOL    HW117947   3.802   4.917   0.741
 5886SOL    HW217948   3.885   4.936   0.602
 5887SOL     OW17949   4.396   5.115   1.624
 5887SOL    HW117950   4.318   5.065   1.662
 5887SOL    HW217951   4.393   5.210   1.655
 5888SOL     OW17952   5.548   3.916   1.227
 5888SOL    HW117953   5.544   3.826   1.271
 5888SOL    HW217954   5.551   3.905   1.128
 5889SOL     OW17955   4.152   4.148   0.520
 5889SOL    HW117956   4.182   4.076   0.458
 5889SOL    HW217957   4.113   4.108   0.603
 5890SOL     OW17958   5.429   5.211   1.104
 5890SOL    HW117959   5.336   5.186   1.077
 5890SOL    HW217960   5.455   5.161   1.186
 5891SOL     OW17961   4.041   4.271   1.280
 5891SOL    HW117962   4.079   4.212   1.352
 5891SOL    HW217963   4.081   4.245   1.192
 5892SOL     OW17964   4.536   5.310   0.687
 5892SOL    HW117965   4.568   5.320   0.593
 5892SOL    HW217966   4.457   5.248   0.689
 5893SOL     OW17967   5.148   3.938   1.112
 5893SOL    HW117968   5.200   3.873   1.167
 5893SOL    HW217969   5.099   4.001   1.173
 5894SOL     OW17970   4.725   3.758   1.154
 5894SOL    HW117971   4.662   3.686   1.123
 5894SOL    HW217972   4.818   3.722   1.154
 5895SOL     OW17973   4.494   5.054   0.301
 5895SOL    HW117974   4.448   4.967   0.318
 5895SOL    HW217975   4.585   5.051   0.342
 5896SOL     OW17976   4.342   5.291   1.284
 5896SOL    HW117977   4.337   5.373   1.341
 5896SOL    HW217978   4.431   5.288   1.239
 5897SOL     OW17979   5.076   3.776   0.168
 5897SOL    HW117980   5.111   3.735   0.084
 5897SOL    HW217981   4.986   3.738   0.188
 5898SOL     OW17982   5.024   4.177   0.691
 5898SOL    HW117983   4.965   4.257   0.695
 5898SOL    HW217984   5.039   4.142   0.784
 5899SOL     OW17985   5.317   3.945   0.882
 5899SOL    HW117986   5.233   3.944   0.936
 5899SOL    HW217987   5.319   4.028   0.826
 5900SOL     OW17988   3.763   4.801   0.300
 5900SOL    HW117989   3.862   4.790   0.291
 5900SOL    HW217990   3.723   4.715   0.332
 5901SOL     OW17991   4.599   5.370   0.337
 5901SOL    HW117992   4.522   5.335   0.283
 5901SOL    HW217993   4.567   5.441   0.399
 5902SOL     OW17994   3.954   4.352   1.975
 5902SOL    HW117995   3.861   4.350   2.012
 5902SOL    HW217996   3.955   4.313   1.883
 5903SOL     OW17997   3.949   3.999   2.858
 5903SOL    HW117998   3.984   3.982   2.950
 5903SOL    HW217999   3.861   3.954   2.846
 5904SOL     OW18000   3.743   4.092   2.509
 5904SOL    HW118001   3.661   4.135   2.548
 5904SOL    HW218002   3.715   4.019   2.446
 5905SOL     OW18003   4.293   4.999   3.027
 5905SOL    HW118004   4.200   4.992   2.990
 5905SOL    HW218005   4.304   5.088   3.071
 5906SOL     OW18006   5.279   5.235   2.565
 5906SOL    HW118007   5.222   5.219   2.646
 5906SOL    HW218008   5.220   5.245   2.485
 5907SOL     OW18009   4.859   4.427   2.579
 5907SOL    HW118010   4.916   4.505   2.554
 5907SOL    HW218011   4.799   4.453   2.655
 5908SOL     OW18012   5.479   4.331   2.093
 5908SOL    HW118013   5.467   4.318   1.994
 5908SOL    HW218014   5.449   4.250   2.142
 5909SOL     OW18015   4.492   4.868   2.885
 5909SOL    HW118016   4.414   4.885   2.945
 5909SOL    HW218017   4.526   4.955   2.849
 5910SOL     OW18018   4.574   4.522   3.685
 5910SOL    HW118019   4.570   4.598   3.750
 5910SOL    HW218020   4.596   4.558   3.594
 5911SOL     OW18021   4.409   4.736   2.527
 5911SOL    HW118022   4.478   4.720   2.597
 5911SOL    HW218023   4.336   4.793   2.565
 5912SOL     OW18024   4.410   4.885   3.665
 5912SOL    HW118025   4.470   4.964   3.679
 5912SOL    HW218026   4.324   4.916   3.624
 5913SOL     OW18027   4.059   5.159   2.923
 5913SOL    HW118028   3.981   5.128   2.870
 5913SOL    HW218029   4.117   5.217   2.866
 5914SOL     OW18030   5.184   5.229   3.201
 5914SOL    HW118031   5.208   5.323   3.227
 5914SOL    HW218032   5.168   5.175   3.283
 5915SOL     OW18033   4.162   4.116   3.361
 5915SOL    HW118034   4.244   4.060   3.370
 5915SOL    HW218035   4.081   4.058   3.365
 5916SOL     OW18036   5.327   4.171   2.599
 5916SOL    HW118037   5.253   4.217   2.549
 5916SOL    HW218038   5.378   4.239   2.652
 5917SOL     OW18039   3.955   5.437   2.345
 5917SOL    HW118040   3.989   5.514   2.399
 5917SOL    HW218041   3.999   5.437   2.255
 5918SOL     OW18042   4.851   5.065   3.552
 5918SOL    HW118043   4.898   5.065   3.640
 5918SOL    HW218044   4.803   4.978   3.541
 5919SOL     OW18045   3.954   5.158   2.400
 5919SOL    HW118046   3.928   5.254   2.400
 5919SOL    HW218047   3.883   5.104   2.445
 5920SOL     OW18048   3.964   4.815   2.748
 5920SOL    HW118049   3.978   4.731   2.800
 5920SOL    HW218050   3.909   4.879   2.803
 5921SOL     OW18051   4.344   5.510   3.301
 5921SOL    HW118052   4.252   5.493   3.336
 5921SOL    HW218053   4.372   5.602   3.327
 5922SOL     OW18054   4.330   4.688   1.985
 5922SOL    HW118055   4.337   4.772   1.931
 5922SOL    HW218056   4.376   4.701   2.073
 5923SOL     OW18057   5.318   3.838   3.342
 5923SOL    HW118058   5.300   3.905   3.270
 5923SOL    HW218059   5.315   3.884   3.431
 5924SOL     OW18060   3.846   4.367   2.425
 5924SOL    HW118061   3.801   4.279   2.442
 5924SOL    HW218062   3.845   4.421   2.509
 5925SOL     OW18063   5.566   5.491   2.221
 5925SOL    HW118064   5.620   5.462   2.301
 5925SOL    HW218065   5.596   5.581   2.192
 5926SOL     OW18066   3.751   5.320   1.979
 5926SOL    HW118067   3.732   5.224   2.000
 5926SOL    HW218068   3.718   5.378   2.054
 5927SOL     OW18069   5.413   4.646   2.474
 5927SOL    HW118070   5.508   4.617   2.482
 5927SOL    HW218071   5.405   4.711   2.399
 5928SOL     OW18072   5.365   4.832   2.294
 5928SOL    HW118073   5.451   4.834   2.242
 5928SOL    HW218074   5.379   4.879   2.382
 5929SOL     OW18075   3.837   4.461   3.459
 5929SOL    HW118076   3.925   4.448   3.504
 5929SOL    HW218077   3.824   4.558   3.437
 5930SOL     OW18078   4.337   5.089   2.588
 5930SOL    HW118079   4.288   5.002   2.597
 5930SOL    HW218080   4.314   5.132   2.501
 5931SOL     OW18081   5.017   4.952   3.285
 5931SOL    HW118082   5.054   4.879   3.227
 5931SOL    HW218083   5.069   4.957   3.370
 5932SOL     OW18084   4.533   3.728   2.364
 5932SOL    HW118085   4.573   3.819   2.355
 5932SOL    HW218086   4.433   3.736   2.370
 5933SOL     OW18087   3.921   4.700   3.126
 5933SOL    HW118088   4.010   4.655   3.112
 5933SOL    HW218089   3.848   4.635   3.107
 5934SOL     OW18090   5.249   4.723   2.052
 5934SOL    HW118091   5.186   4.647   2.065
 5934SOL    HW218092   5.297   4.741   2.138
 5935SOL     OW18093   4.911   5.516   3.478
 5935SOL    HW118094   4.935   5.576   3.402
 5935SOL    HW218095   4.918   5.421   3.448
 5936SOL     OW18096   4.041   3.975   3.663
 5936SOL    HW118097   4.112   4.046   3.669
 5936SOL    HW218098   3.953   4.014   3.691
 5937SOL     OW18099   5.190   5.141   2.815
 5937SOL    HW118100   5.131   5.147   2.895
 5937SOL    HW218101   5.175   5.053   2.769
 5938SOL     OW18102   5.391   5.438   2.434
 5938SOL    HW118103   5.350   5.415   2.346
 5938SOL    HW218104   5.373   5.364   2.499
 5939SOL     OW18105   4.322   4.453   2.132
 5939SOL    HW118106   4.346   4.522   2.064
 5939SOL    HW218107   4.244   4.486   2.186
 5940SOL     OW18108   5.005   4.069   2.806
 5940SOL    HW118109   4.919   4.019   2.793
 5940SOL    HW218110   5.067   4.015   2.862
 5941SOL     OW18111   5.300   5.386   2.169
 5941SOL    HW118112   5.389   5.432   2.172
 5941SOL    HW218113   5.279   5.362   2.074
 5942SOL     OW18114   4.531   4.329   3.327
 5942SOL    HW118115   4.484   4.326   3.416
 5942SOL    HW218116   4.480   4.274   3.261
 5943SOL     OW18117   5.118   4.193   3.536
 5943SOL    HW118118   5.098   4.236   3.624
 5943SOL    HW218119   5.196   4.131   3.545
 5944SOL     OW18120   4.697   4.614   3.434
 5944SOL    HW118121   4.743   4.530   3.405
 5944SOL    HW218122   4.641   4.648   3.359
 5945SOL     OW18123   4.715   4.134   3.104
 5945SOL    HW118124   4.638   4.168   3.158
 5945SOL    HW218125   4.681   4.083   3.025
 5946SOL     OW18126   4.765   4.425   2.291
 5946SOL    HW118127   4.791   4.421   2.387
 5946SOL    HW218128   4.680   4.374   2.277
 5947SOL     OW18129   3.800   4.535   2.651
 5947SOL    HW118130   3.899   4.523   2.660
 5947SOL    HW218131   3.776   4.630   2.672
 5948SOL     OW18132   3.854   5.545   3.433
 5948SOL    HW118133   3.844   5.530   3.532
 5948SOL    HW218134   3.768   5.581   3.397
 5949SOL     OW18135   4.589   4.072   2.057
 5949SOL    HW118136   4.648   4.135   2.008
 5949SOL    HW218137   4.608   3.978   2.028
 5950SOL     OW18138   5.443   4.309   3.693
 5950SOL    HW118139   5.417   4.398   3.657
 5950SOL    HW218140   5.441   4.241   3.620
 5951SOL     OW18141   5.086   4.868   2.407
 5951SOL    HW118142   5.169   4.839   2.359
 5951SOL    HW218143   5.037   4.935   2.351
 5952SOL     OW18144   4.274   3.920   2.747
 5952SOL    HW118145   4.269   3.915   2.847
 5952SOL    HW218146   4.276   4.016   2.718
 5953SOL     OW18147   4.732   5.180   2.339
 5953SOL    HW118148   4.686   5.252   2.287
 5953SOL    HW218149   4.728   5.200   2.437
 5954SOL     OW18150   4.075   5.525   2.715
 5954SOL    HW118151   4.125   5.439   2.721
 5954SOL    HW218152   4.140   5.602   2.712
 5955SOL     OW18153   5.519   4.790   2.735
 5955SOL    HW118154   5.457   4.775   2.659
 5955SOL    HW218155   5.467   4.801   2.820
 5956SOL     OW18156   4.951   5.274   3.368
 5956SOL    HW118157   4.957   5.197   3.432
 5956SOL    HW218158   4.899   5.248   3.288
 5957SOL     OW18159   4.045   4.667   2.104
 5957SOL    HW118160   4.127   4.706   2.062
 5957SOL    HW218161   4.018   4.585   2.055
 5958SOL     OW18162   5.182   4.459   2.590
 5958SOL    HW118163   5.177   4.394   2.665
 5958SOL    HW218164   5.262   4.518   2.603
 5959SOL     OW18165   4.185   4.990   3.589
 5959SOL    HW118166   4.135   4.991   3.503
 5959SOL    HW218167   4.122   4.972   3.665
 5960SOL     OW18168   4.835   5.500   2.099
 5960SOL    HW118169   4.775   5.438   2.149
 5960SOL    HW218170   4.866   5.456   2.014
 5961SOL     OW18171   3.926   4.009   3.360
 5961SOL    HW118172   3.846   4.069   3.347
 5961SOL    HW218173   3.916   3.960   3.446
 5962SOL     OW18174   5.356   5.101   1.943
 5962SOL    HW118175   5.324   5.195   1.933
 5962SOL    HW218176   5.280   5.038   1.931
 5963SOL     OW18177   4.188   5.467   2.185
 5963SOL    HW118178   4.221   5.506   2.271
 5963SOL    HW218179   4.264   5.460   2.120
 5964SOL     OW18180   5.124   3.831   2.288
 5964SOL    HW118181   5.100   3.794   2.198
 5964SOL    HW218182   5.223   3.847   2.292
 5965SOL     OW18183   3.973   5.509   3.103
 5965SOL    HW118184   4.030   5.444   3.153
 5965SOL    HW218185   3.957   5.476   3.010
 5966SOL     OW18186   4.664   5.422   2.766
 5966SOL    HW118187   4.744   5.365   2.787
 5966SOL    HW218188   4.615   5.382   2.689
 5967SOL     OW18189   4.106   4.424   2.342
 5967SOL    HW118190   4.151   4.334   2.339
 5967SOL    HW218191   4.012   4.413   2.375
 5968SOL     OW18192   5.271   3.946   3.591
 5968SOL    HW118193   5.266   3.983   3.683
 5968SOL    HW218194   5.199   3.877   3.579
 5969SOL     OW18195   4.338   3.846   1.979
 5969SOL    HW118196   4.436   3.824   1.986
 5969SOL    HW218197   4.307   3.829   1.886
 5970SOL     OW18198   4.505   3.988   3.611
 5970SOL    HW118199   4.572   3.927   3.654
 5970SOL    HW218200   4.432   4.007   3.676
 5971SOL     OW18201   4.612   5.238   3.057
 5971SOL    HW118202   4.589   5.213   2.963
 5971SOL    HW218203   4.673   5.169   3.096
 5972SOL     OW18204   5.075   4.314   3.295
 5972SOL    HW118205   5.103   4.271   3.380
 5972SOL    HW218206   5.100   4.410   3.296
 5973SOL     OW18207   4.527   5.126   2.786
 5973SOL    HW118208   4.617   5.140   2.744
 5973SOL    HW218209   4.456   5.128   2.715
 5974SOL     OW18210   5.158   4.912   1.903
 5974SOL    HW118211   5.190   4.836   1.960
 5974SOL    HW218212   5.066   4.939   1.933
 5975SOL     OW18213   4.659   3.960   2.342
 5975SOL    HW118214   4.611   4.001   2.264
 5975SOL    HW218215   4.758   3.958   2.323
 5976SOL     OW18216   4.800   4.407   3.326
 5976SOL    HW118217   4.720   4.346   3.329
 5976SOL    HW218218   4.881   4.354   3.302
 5977SOL     OW18219   4.951   5.294   2.655
 5977SOL    HW118220   4.972   5.368   2.590
 5977SOL    HW218221   5.019   5.294   2.728
 5978SOL     OW18222   4.183   4.876   2.603
 5978SOL    HW118223   4.112   4.849   2.668
 5978SOL    HW218224   4.157   4.848   2.510
 5979SOL     OW18225   4.995   5.521   2.453
 5979SOL    HW118226   5.039   5.585   2.389
 5979SOL    HW218227   4.945   5.573   2.523
 5980SOL     OW18228   4.756   4.273   1.878
 5980SOL    HW118229   4.715   4.355   1.839
 5980SOL    HW218230   4.820   4.299   1.951
 5981SOL     OW18231   3.802   4.280   3.248
 5981SOL    HW118232   3.894   4.279   3.207
 5981SOL    HW218233   3.796   4.354   3.315
 5982SOL     OW18234   4.285   3.946   3.009
 5982SOL    HW118235   4.323   3.862   3.046
 5982SOL    HW218236   4.197   3.965   3.053
 5983SOL     OW18237   5.153   4.897   2.729
 5983SOL    HW118238   5.098   4.813   2.722
 5983SOL    HW218239   5.179   4.926   2.637
 5984SOL     OW18240   5.190   4.314   2.854
 5984SOL    HW118241   5.160   4.219   2.861
 5984SOL    HW218242   5.263   4.330   2.920
 5985SOL     OW18243   5.581   4.557   2.239
 5985SOL    HW118244   5.623   4.493   2.303
 5985SOL    HW218245   5.543   4.506   2.161
 5986SOL     OW18246   4.212   5.109   2.036
 5986SOL    HW118247   4.125   5.094   2.083
 5986SOL    HW218248   4.195   5.135   1.941
 5987SOL     OW18249   5.388   5.004   2.519
 5987SOL    HW118250   5.487   5.012   2.533
 5987SOL    HW218251   5.343   5.088   2.550
 5988SOL     OW18252   5.114   4.299   1.940
 5988SOL    HW118253   5.060   4.278   2.021
 5988SOL    HW218254   5.205   4.258   1.949
 5989SOL     OW18255   5.478   4.947   3.450
 5989SOL    HW118256   5.569   4.908   3.437
 5989SOL    HW218257   5.486   5.043   3.474
 5990SOL     OW18258   4.788   5.071   3.202
 5990SOL    HW118259   4.708   5.048   3.257
 5990SOL    HW218260   4.871   5.045   3.251
 5991SOL     OW18261   5.316   5.353   3.487
 5991SOL    HW118262   5.343   5.387   3.397
 5991SOL    HW218263   5.395   5.315   3.533
 5992SOL     OW18264   4.835   4.919   2.962
 5992SOL    HW118265   4.795   4.963   3.043
 5992SOL    HW218266   4.794   4.956   2.879
 5993SOL     OW18267   5.362   4.823   2.941
 5993SOL    HW118268   5.367   4.904   3.000
 5993SOL    HW218269   5.276   4.825   2.890
 5994SOL     OW18270   4.639   3.813   3.264
 5994SOL    HW118271   4.664   3.793   3.169
 5994SOL    HW218272   4.711   3.869   3.306
 5995SOL     OW18273   4.704   4.840   3.581
 5995SOL    HW118274   4.605   4.846   3.591
 5995SOL    HW218275   4.727   4.760   3.525
 5996SOL     OW18276   4.429   4.774   2.230
 5996SOL    HW118277   4.415   4.781   2.329
 5996SOL    HW218278   4.513   4.723   2.212
 5997SOL     OW18279   4.134   4.537   3.113
 5997SOL    HW118280   4.220   4.549   3.163
 5997SOL    HW218281   4.092   4.450   3.140
 5998SOL     OW18282   4.998   4.110   3.124
 5998SOL    HW118283   5.019   4.184   3.188
 5998SOL    HW218284   4.909   4.127   3.081
 5999SOL     OW18285   3.788   5.288   3.193
 5999SOL    HW118286   3.742   5.370   3.159
 5999SOL    HW218287   3.886   5.307   3.202
 6000SOL     OW18288   4.091   4.824   2.363
 6000SOL    HW118289   4.084   4.907   2.307
 6000SOL    HW218290   4.095   4.744   2.303
 6001SOL     OW18291   4.290   4.261   2.727
 6001SOL    HW118292   4.302   4.327   2.653
 6001SOL    HW218293   4.336   4.295   2.810
 6002SOL     OW18294   4.976   5.072   2.250
 6002SOL    HW118295   5.026   5.149   2.290
 6002SOL    HW218296   4.881   5.074   2.282
 6003SOL     OW18297   4.996   5.169   3.004
 6003SOL    HW118298   5.043   5.182   3.091
 6003SOL    HW218299   4.930   5.095   3.013
 6004SOL     OW18300   5.306   4.363   2.334
 6004SOL    HW118301   5.275   4.424   2.407
 6004SOL    HW218302   5.356   4.415   2.265
 6005SOL     OW18303   4.078   5.234   3.191
 6005SOL    HW118304   4.057   5.190   3.104
 6005SOL    HW218305   4.175   5.260   3.194
 6006SOL     OW18306   4.126   4.475   3.460
 6006SOL    HW118307   4.194   4.530   3.413
 6006SOL    HW218308   4.166   4.387   3.487
 6007SOL     OW18309   5.311   4.503   3.532
 6007SOL    HW118310   5.219   4.541   3.527
 6007SOL    HW218311   5.371   4.550   3.467
 6008SOL     OW18312   4.737   3.829   3.632
 6008SOL    HW118313   4.743   3.914   3.580
 6008SOL    HW218314   4.769   3.753   3.575
 6009SOL     OW18315   4.228   3.774   3.602
 6009SOL    HW118316   4.186   3.717   3.532
 6009SOL    HW218317   4.162   3.843   3.634
 6010SOL     OW18318   4.297   4.594   2.891
 6010SOL    HW118319   4.341   4.683   2.882
 6010SOL    HW218320   4.234   4.594   2.968
 6011SOL     OW18321   5.084   4.586   2.907
 6011SOL    HW118322   5.009   4.586   2.841
 6011SOL    HW218323   5.121   4.494   2.916
 6012SOL     OW18324   4.933   4.249   2.137
 6012SOL    HW118325   4.946   4.165   2.191
 6012SOL    HW218326   4.904   4.323   2.197
 6013SOL     OW18327   4.031   3.937   3.093
 6013SOL    HW118328   4.008   3.974   3.183
 6013SOL    HW218329   4.001   3.842   3.087
 6014SOL     OW18330   3.761   5.034   3.144
 6014SOL    HW118331   3.814   4.985   3.212
 6014SOL    HW218332   3.783   5.132   3.149
 6015SOL     OW18333   4.456   4.358   2.926
 6015SOL    HW118334   4.515   4.332   2.850
 6015SOL    HW218335   4.428   4.454   2.915
 6016SOL     OW18336   5.452   4.659   3.716
 6016SOL    HW118337   5.406   4.652   3.627
 6016SOL    HW218338   5.390   4.703   3.782
 6017SOL     OW18339   5.346   4.091   2.236
 6017SOL    HW118340   5.348   4.015   2.300
 6017SOL    HW218341   5.298   4.168   2.276
 6018SOL     OW18342   4.747   4.490   2.828
 6018SOL    HW118343   4.762   4.511   2.924
 6018SOL    HW218344   4.717   4.395   2.819
 6019SOL     OW18345   4.704   5.297   3.562
 6019SOL    HW118346   4.684   5.341   3.474
 6019SOL    HW218347   4.743   5.206   3.546
 6020SOL     OW18348   5.583   5.242   3.467
 6020SOL    HW118349   5.597   5.269   3.372
 6020SOL    HW218350   5.666   5.264   3.520
 6021SOL     OW18351   4.074   4.622   3.666
 6021SOL    HW118352   4.150   4.666   3.714
 6021SOL    HW218353   4.109   4.575   3.584
 6022SOL     OW18354   5.264   3.998   1.987
 6022SOL    HW118355   5.203   3.923   2.010
 6022SOL    HW218356   5.286   4.050   2.070
 6023SOL     OW18357   5.027   4.562   1.904
 6023SOL    HW118358   5.061   4.469   1.919
 6023SOL    HW218359   5.045   4.589   1.809
 6024SOL     OW18360   4.792   5.057   2.711
 6024SOL    HW118361   4.799   4.973   2.656
 6024SOL    HW218362   4.854   5.126   2.675
 6025SOL     OW18363   4.043   4.534   2.811
 6025SOL    HW118364   4.136   4.570   2.816
 6025SOL    HW218365   4.037   4.449   2.863
 6026SOL     OW18366   4.063   4.233   2.868
 6026SOL    HW118367   4.011   4.150   2.851
 6026SOL    HW218368   4.140   4.238   2.804
 6027SOL     OW18369   4.862   4.104   3.540
 6027SOL    HW118370   4.817   4.167   3.604
 6027SOL    HW218371   4.955   4.135   3.523
 6028SOL     OW18372   4.884   3.931   3.339
 6028SOL    HW118373   4.884   3.995   3.416
 6028SOL    HW218374   4.912   3.979   3.256
 6029SOL     OW18375   3.732   5.050   2.062
 6029SOL    HW118376   3.639   5.071   2.031
 6029SOL    HW218377   3.742   4.951   2.075
 6030SOL     OW18378   3.812   5.525   2.789
 6030SOL    HW118379   3.770   5.439   2.762
 6030SOL    HW218380   3.906   5.528   2.755
 6031SOL     OW18381   4.228   5.292   2.772
 6031SOL    HW118382   4.294   5.366   2.781
 6031SOL    HW218383   4.272   5.213   2.730
 6032SOL     OW18384   4.726   4.520   3.100
 6032SOL    HW118385   4.767   4.488   3.186
 6032SOL    HW218386   4.630   4.493   3.097
 6033SOL     OW18387   3.764   4.268   2.976
 6033SOL    HW118388   3.849   4.235   2.935
 6033SOL    HW218389   3.777   4.283   3.074
 6034SOL     OW18390   3.913   4.244   3.584
 6034SOL    HW118391   3.972   4.204   3.514
 6034SOL    HW218392   3.855   4.315   3.543
 6035SOL     OW18393   5.093   4.674   3.522
 6035SOL    HW118394   5.132   4.763   3.542
 6035SOL    HW218395   5.103   4.654   3.425
 6036SOL     OW18396   4.539   4.296   2.187
 6036SOL    HW118397   4.546   4.207   2.141
 6036SOL    HW218398   4.445   4.330   2.179
 6037SOL     OW18399   5.381   4.328   3.068
 6037SOL    HW118400   5.343   4.259   3.130
 6037SOL    HW218401   5.463   4.292   3.024
 6038SOL     OW18402   3.976   5.288   3.606
 6038SOL    HW118403   3.946   5.345   3.682
 6038SOL    HW218404   3.969   5.191   3.632
 6039SOL     OW18405   4.395   4.188   3.131
 6039SOL    HW118406   4.361   4.099   3.101
 6039SOL    HW218407   4.421   4.242   3.051
 6040SOL     OW18408   4.654   5.402   3.327
 6040SOL    HW118409   4.630   5.384   3.232
 6040SOL    HW218410   4.684   5.496   3.337
 6041SOL     OW18411   4.197   4.224   2.053
 6041SOL    HW118412   4.258   4.304   2.057
 6041SOL    HW218413   4.102   4.255   2.060
 6042SOL     OW18414   3.883   4.861   3.328
 6042SOL    HW118415   3.905   4.800   3.404
 6042SOL    HW218416   3.893   4.812   3.242
 6043SOL     OW18417   5.071   4.783   3.096
 6043SOL    HW118418   5.095   4.720   3.022
 6043SOL    HW218419   4.981   4.823   3.078
 6044SOL     OW18420   5.026   4.579   2.171
 6044SOL    HW118421   4.940   4.548   2.213
 6044SOL    HW218422   5.022   4.565   2.072
 6045SOL     OW18423   5.483   5.471   3.016
 6045SOL    HW118424   5.544   5.501   2.943
 6045SOL    HW218425   5.445   5.382   2.994
 6046SOL     OW18426   4.976   5.455   2.990
 6046SOL    HW118427   5.060   5.460   2.936
 6046SOL    HW218428   4.953   5.359   3.008
 6047SOL     OW18429   3.807   4.982   2.884
 6047SOL    HW118430   3.802   4.981   2.984
 6047SOL    HW218431   3.724   4.941   2.846
 6048SOL     OW18432   4.412   5.386   3.578
 6048SOL    HW118433   4.356   5.467   3.587
 6048SOL    HW218434   4.464   5.390   3.492
 6049SOL     OW18435   5.450   3.859   2.385
 6049SOL    HW118436   5.523   3.842   2.318
 6049SOL    HW218437   5.419   3.772   2.423
 6050SOL     OW18438   5.112   5.297   2.339
 6050SOL    HW118439   5.179   5.309   2.265
 6050SOL    HW218440   5.072   5.386   2.362
 6051SOL     OW18441   3.854   5.518   3.713
 6051SOL    HW118442   3.813   5.444   3.766
 6051SOL    HW218443   3.918   5.569   3.771
 6052SOL     OW18444   5.004   4.651   2.534
 6052SOL    HW118445   5.064   4.570   2.536
 6052SOL    HW218446   5.044   4.720   2.474
 6053SOL     OW18447   4.554   4.997   3.284
 6053SOL    HW118448   4.549   5.030   3.379
 6053SOL    HW218449   4.468   5.016   3.238
 6054SOL     OW18450   4.396   5.340   2.016
 6054SOL    HW118451   4.405   5.350   1.917
 6054SOL    HW218452   4.356   5.251   2.037
 6055SOL     OW18453   5.374   5.444   3.256
 6055SOL    HW118454   5.427   5.454   3.172
 6055SOL    HW218455   5.347   5.534   3.290
 6056SOL     OW18456   5.565   3.899   2.825
 6056SOL    HW118457   5.604   3.814   2.789
 6056SOL    HW218458   5.467   3.901   2.806
 6057SOL     OW18459   3.987   4.050   2.582
 6057SOL    HW118460   3.908   4.101   2.548
 6057SOL    HW218461   3.978   4.035   2.680
 6058SOL     OW18462   4.918   5.336   1.893
 6058SOL    HW118463   4.924   5.243   1.930
 6058SOL    HW218464   4.859   5.336   1.813
 6059SOL     OW18465   4.546   4.726   3.234
 6059SOL    HW118466   4.586   4.725   3.142
 6059SOL    HW218467   4.556   4.818   3.274
 6060SOL     OW18468   4.640   4.634   2.153
 6060SOL    HW118469   4.703   4.672   2.085
 6060SOL    HW218470   4.680   4.551   2.192
 6061SOL     OW18471   5.228   5.331   1.906
 6061SOL    HW118472   5.136   5.368   1.913
 6061SOL    HW218473   5.266   5.351   1.816
 6062SOL     OW18474   4.096   5.012   3.352
 6062SOL    HW118475   4.083   5.105   3.318
 6062SOL    HW218476   4.012   4.960   3.339
 6063SOL     OW18477   5.338   5.016   3.151
 6063SOL    HW118478   5.398   5.019   3.231
 6063SOL    HW218479   5.263   5.080   3.164
 6064SOL     OW18480   4.763   4.822   2.558
 6064SOL    HW118481   4.693   4.775   2.612
 6064SOL    HW218482   4.822   4.754   2.515
 6065SOL     OW18483   4.738   3.960   2.833
 6065SOL    HW118484   4.730   3.924   2.740
 6065SOL    HW218485   4.736   3.884   2.898
 6066SOL     OW18486   4.314   5.211   2.353
 6066SOL    HW118487   4.356   5.153   2.283
 6066SOL    HW218488   4.270   5.290   2.309
 6067SOL     OW18489   5.433   4.109   3.243
 6067SOL    HW118490   5.506   4.178   3.247
 6067SOL    HW218491   5.461   4.034   3.184
 6068SOL     OW18492   3.979   5.072   2.152
 6068SOL    HW118493   3.883   5.073   2.125
 6068SOL    HW218494   3.991   5.125   2.236
 6069SOL     OW18495   3.829   4.737   3.588
 6069SOL    HW118496   3.752   4.704   3.642
 6069SOL    HW218497   3.914   4.707   3.630
 6070SOL     OW18498   4.396   3.927   3.351
 6070SOL    HW118499   4.486   3.911   3.311
 6070SOL    HW218500   4.404   3.932   3.450
 6071SOL     OW18501   3.799   4.069   1.895
 6071SOL    HW118502   3.707   4.041   1.866
 6071SOL    HW218503   3.830   4.146   1.839
 6072SOL     OW18504   5.164   4.580   3.260
 6072SOL    HW118505   5.107   4.632   3.197
 6072SOL    HW218506   5.260   4.592   3.236
 6073SOL     OW18507   4.907   5.059   1.981
 6073SOL    HW118508   4.808   5.048   1.983
 6073SOL    HW218509   4.941   5.074   2.074
 6074SOL     OW18510   4.337   4.566   3.293
 6074SOL    HW118511   4.393   4.647   3.276
 6074SOL    HW218512   4.396   4.486   3.296
 6075SOL     OW18513   5.217   5.491   2.821
 6075SOL    HW118514   5.250   5.555   2.752
 6075SOL    HW218515   5.283   5.485   2.896
 6076SOL     OW18516   4.440   4.289   3.570
 6076SOL    HW118517   4.459   4.354   3.644
 6076SOL    HW218518   4.500   4.209   3.579
 6077SOL     OW18519   5.174   4.944   3.495
 6077SOL    HW118520   5.165   4.934   3.594
 6077SOL    HW218521   5.270   4.937   3.469
 6078SOL     OW18522   4.114   5.465   3.422
 6078SOL    HW118523   4.023   5.506   3.420
 6078SOL    HW218524   4.107   5.371   3.454
 6079SOL     OW18525   5.398   4.607   3.116
 6079SOL    HW118526   5.371   4.518   3.079
 6079SOL    HW218527   5.399   4.675   3.043
 6080SOL     OW18528   4.949   4.049   2.311
 6080SOL    HW118529   5.014   3.975   2.300
 6080SOL    HW218530   4.969   4.099   2.395
 6081SOL     OW18531   4.318   4.469   2.514
 6081SOL    HW118532   4.368   4.554   2.495
 6081SOL    HW218533   4.230   4.471   2.466
 6082SOL     OW18534   5.501   4.066   3.504
 6082SOL    HW118535   5.484   4.097   3.410
 6082SOL    HW218536   5.417   4.029   3.542
 6083SOL     OW18537   5.454   4.658   3.379
 6083SOL    HW118538   5.492   4.749   3.394
 6083SOL    HW218539   5.446   4.641   3.280
 6084SOL     OW18540   4.583   5.098   1.878
 6084SOL    HW118541   4.537   5.113   1.966
 6084SOL    HW218542   4.627   5.183   1.848
 6085SOL     OW18543   4.385   5.514   2.815
 6085SOL    HW118544   4.339   5.602   2.802
 6085SOL    HW218545   4.484   5.526   2.808
 6086SOL     OW18546   4.583   4.680   2.723
 6086SOL    HW118547   4.637   4.611   2.771
 6086SOL    HW218548   4.551   4.749   2.789
 6087SOL     OW18549   4.807   4.708   1.949
 6087SOL    HW118550   4.784   4.761   1.867
 6087SOL    HW218551   4.888   4.652   1.930
 6088SOL     OW18552   5.585   5.293   2.713
 6088SOL    HW118553   5.514   5.281   2.643
 6088SOL    HW218554   5.586   5.214   2.773
 6089SOL     OW18555   3.945   5.038   3.706
 6089SOL    HW118556   3.880   4.965   3.685
 6089SOL    HW218557   3.949   5.052   3.804
 6090SOL     OW18558   3.803   4.964   2.515
 6090SOL    HW118559   3.802   4.917   2.603
 6090SOL    HW218560   3.885   4.936   2.464
 6091SOL     OW18561   4.396   5.115   3.486
 6091SOL    HW118562   4.318   5.065   3.524
 6091SOL    HW218563   4.393   5.210   3.517
 6092SOL     OW18564   5.548   3.916   3.089
 6092SOL    HW118565   5.544   3.826   3.133
 6092SOL    HW218566   5.551   3.905   2.990
 6093SOL     OW18567   5.429   5.211   2.966
 6093SOL    HW118568   5.336   5.186   2.939
 6093SOL    HW218569   5.455   5.161   3.048
 6094SOL     OW18570   4.041   4.271   3.142
 6094SOL    HW118571   4.079   4.212   3.214
 6094SOL    HW218572   4.081   4.245   3.054
 6095SOL     OW18573   4.536   5.310   2.549
 6095SOL    HW118574   4.568   5.320   2.455
 6095SOL    HW218575   4.457   5.248   2.551
 6096SOL     OW18576   5.148   3.938   2.974
 6096SOL    HW118577   5.200   3.873   3.029
 6096SOL    HW218578   5.099   4.001   3.035
 6097SOL     OW18579   4.725   3.758   3.016
 6097SOL    HW118580   4.662   3.686   2.985
 6097SOL    HW218581   4.818   3.722   3.016
 6098SOL     OW18582   4.494   5.054   2.163
 6098SOL    HW118583   4.448   4.967   2.180
 6098SOL    HW218584   4.585   5.051   2.204
 6099SOL     OW18585   4.342   5.291   3.146
 6099SOL    HW118586   4.337   5.373   3.203
 6099SOL    HW218587   4.431   5.288   3.101
 6100SOL     OW18588   5.076   3.776   2.030
 6100SOL    HW118589   5.111   3.735   1.946
 6100SOL    HW218590   4.986   3.738   2.050
 6101SOL     OW18591   5.024   4.177   2.553
 6101SOL    HW118592   4.965   4.257   2.557
 6101SOL    HW218593   5.039   4.142   2.646
 6102SOL     OW18594   5.317   3.945   2.744
 6102SOL    HW118595   5.233   3.944   2.798
 6102SOL    HW218596   5.319   4.028   2.688
 6103SOL     OW18597   3.763   4.801   2.162
 6103SOL    HW118598   3.862   4.790   2.153
 6103SOL    HW218599   3.723   4.715   2.194
 6104SOL     OW18600   4.599   5.370   2.199
 6104SOL    HW118601   4.522   5.335   2.145
 6104SOL    HW218602   4.567   5.441   2.261
 6105SOL     OW18603   3.954   4.352   3.837
 6105SOL    HW118604   3.861   4.350   3.874
 6105SOL    HW218605   3.955   4.313   3.745
 6106SOL     OW18606   3.949   3.999   4.720
 6106SOL    HW118607   3.984   3.982   4.812
 6106SOL    HW218608   3.861   3.954   4.708
 6107SOL     OW18609   3.743   4.092   4.371
 6107SOL    HW118610   3.661   4.135   4.410
 6107SOL    HW218611   3.715   4.019   4.308
 6108SOL     OW18612   4.293   4.999   4.889
 6108SOL    HW118613   4.200   4.992   4.852
 6108SOL    HW218614   4.304   5.088   4.933
 6109SOL     OW18615   5.279   5.235   4.427
 6109SOL    HW118616   5.222   5.219   4.508
 6109SOL    HW218617   5.220   5.245   4.347
 6110SOL     OW18618   4.859   4.427   4.441
 6110SOL    HW118619   4.916   4.505   4.416
 6110SOL    HW218620   4.799   4.453   4.517
 6111SOL     OW18621   5.479   4.331   3.955
 6111SOL    HW118622   5.467   4.318   3.856
 6111SOL    HW218623   5.449   4.250   4.004
 6112SOL     OW18624   4.492   4.868   4.747
 6112SOL    HW118625   4.414   4.885   4.807
 6112SOL    HW218626   4.526   4.955   4.711
 6113SOL     OW18627   4.574   4.522   5.547
 6113SOL    HW118628   4.570   4.598   5.612
 6113SOL    HW218629   4.596   4.558   5.456
 6114SOL     OW18630   4.409   4.736   4.389
 6114SOL    HW118631   4.478   4.720   4.459
 6114SOL    HW218632   4.336   4.793   4.427
 6115SOL     OW18633   4.410   4.885   5.527
 6115SOL    HW118634   4.470   4.964   5.541
 6115SOL    HW218635   4.324   4.916   5.486
 6116SOL     OW18636   4.059   5.159   4.785
 6116SOL    HW118637   3.981   5.128   4.732
 6116SOL    HW218638   4.117   5.217   4.728
 6117SOL     OW18639   5.184   5.229   5.063
 6117SOL    HW118640   5.208   5.323   5.089
 6117SOL    HW218641   5.168   5.175   5.145
 6118SOL     OW18642   4.162   4.116   5.223
 6118SOL    HW118643   4.244   4.060   5.232
 6118SOL    HW218644   4.081   4.058   5.227
 6119SOL     OW18645   5.327   4.171   4.461
 6119SOL    HW118646   5.253   4.217   4.411
 6119SOL    HW218647   5.378   4.239   4.514
 6120SOL     OW18648   3.955   5.437   4.207
 6120SOL    HW118649   3.989   5.514   4.261
 6120SOL    HW218650   3.999   5.437   4.117
 6121SOL     OW18651   4.851   5.065   5.414
 6121SOL    HW118652   4.898   5.065   5.502
 6121SOL    HW218653   4.803   4.978   5.403
 6122SOL     OW18654   3.954   5.158   4.262
 6122SOL    HW118655   3.928   5.254   4.262
 6122SOL    HW218656   3.883   5.104   4.307
 6123SOL     OW18657   3.964   4.815   4.610
 6123SOL    HW118658   3.978   4.731   4.662
 6123SOL    HW218659   3.909   4.879   4.665
 6124SOL     OW18660   4.344   5.510   5.163
 6124SOL    HW118661   4.252   5.493   5.198
 6124SOL    HW218662   4.372   5.602   5.189
 6125SOL     OW18663   4.330   4.688   3.847
 6125SOL    HW118664   4.337   4.772   3.793
 6125SOL    HW218665   4.376   4.701   3.935
 6126SOL     OW18666   5.318   3.838   5.204
 6126SOL    HW118667   5.300   3.905   5.132
 6126SOL    HW218668   5.315   3.884   5.293
 6127SOL     OW18669   3.846   4.367   4.287
 6127SOL    HW118670   3.801   4.279   4.304
 6127SOL    HW218671   3.845   4.421   4.371
 6128SOL     OW18672   5.566   5.491   4.083
 6128SOL    HW118673   5.620   5.462   4.163
 6128SOL    HW218674   5.596   5.581   4.054
 6129SOL     OW18675   3.751   5.320   3.841
 6129SOL    HW118676   3.732   5.224   3.862
 6129SOL    HW218677   3.718   5.378   3.916
 6130SOL     OW18678   5.413   4.646   4.336
 6130SOL    HW118679   5.508   4.617   4.344
 6130SOL    HW218680   5.405   4.711   4.261
 6131SOL     OW18681   5.365   4.832   4.156
 6131SOL    HW118682   5.451   4.834   4.104
 6131SOL    HW218683   5.379   4.879   4.244
 6132SOL     OW18684   3.837   4.461   5.321
 6132SOL    HW118685   3.925   4.448   5.366
 6132SOL    HW218686   3.824   4.558   5.299
 6133SOL     OW18687   4.337   5.089   4.450
 6133SOL    HW118688   4.288   5.002   4.459
 6133SOL    HW218689   4.314   5.132   4.363
 6134SOL     OW18690   5.017   4.952   5.147
 6134SOL    HW118691   5.054   4.879   5.089
 6134SOL    HW218692   5.069   4.957   5.232
 6135SOL     OW18693   4.533   3.728   4.226
 6135SOL    HW118694   4.573   3.819   4.217
 6135SOL    HW218695   4.433   3.736   4.232
 6136SOL     OW18696   3.921   4.700   4.988
 6136SOL    HW118697   4.010   4.655   4.974
 6136SOL    HW218698   3.848   4.635   4.969
 6137SOL     OW18699   5.249   4.723   3.914
 6137SOL    HW118700   5.186   4.647   3.927
 6137SOL    HW218701   5.297   4.741   4.000
 6138SOL     OW18702   4.911   5.516   5.340
 6138SOL    HW118703   4.935   5.576   5.264
 6138SOL    HW218704   4.918   5.421   5.310
 6139SOL     OW18705   4.041   3.975   5.525
 6139SOL    HW118706   4.112   4.046   5.531
 6139SOL    HW218707   3.953   4.014   5.553
 6140SOL     OW18708   5.190   5.141   4.677
 6140SOL    HW118709   5.131   5.147   4.757
 6140SOL    HW218710   5.175   5.053   4.631
 6141SOL     OW18711   5.391   5.438   4.296
 6141SOL    HW118712   5.350   5.415   4.208
 6141SOL    HW218713   5.373   5.364   4.361
 6142SOL     OW18714   4.322   4.453   3.994
 6142SOL    HW118715   4.346   4.522   3.926
 6142SOL    HW218716   4.244   4.486   4.048
 6143SOL     OW18717   5.005   4.069   4.668
 6143SOL    HW118718   4.919   4.019   4.655
 6143SOL    HW218719   5.067   4.015   4.724
 6144SOL     OW18720   5.300   5.386   4.031
 6144SOL    HW118721   5.389   5.432   4.034
 6144SOL    HW218722   5.279   5.362   3.936
 6145SOL     OW18723   4.531   4.329   5.189
 6145SOL    HW118724   4.484   4.326   5.278
 6145SOL    HW218725   4.480   4.274   5.123
 6146SOL     OW18726   5.118   4.193   5.398
 6146SOL    HW118727   5.098   4.236   5.486
 6146SOL    HW218728   5.196   4.131   5.407
 6147SOL     OW18729   4.697   4.614   5.296
 6147SOL    HW118730   4.743   4.530   5.267
 6147SOL    HW218731   4.641   4.648   5.221
 6148SOL     OW18732   4.715   4.134   4.966
 6148SOL    HW118733   4.638   4.168   5.020
 6148SOL    HW218734   4.681   4.083   4.887
 6149SOL     OW18735   4.765   4.425   4.153
 6149SOL    HW118736   4.791   4.421   4.249
 6149SOL    HW218737   4.680   4.374   4.139
 6150SOL     OW18738   3.800   4.535   4.513
 6150SOL    HW118739   3.899   4.523   4.522
 6150SOL    HW218740   3.776   4.630   4.534
 6151SOL     OW18741   3.854   5.545   5.295
 6151SOL    HW118742   3.844   5.530   5.394
 6151SOL    HW218743   3.768   5.581   5.259
 6152SOL     OW18744   4.589   4.072   3.919
 6152SOL    HW118745   4.648   4.135   3.870
 6152SOL    HW218746   4.608   3.978   3.890
 6153SOL     OW18747   5.443   4.309   5.555
 6153SOL    HW118748   5.417   4.398   5.519
 6153SOL    HW218749   5.441   4.241   5.482
 6154SOL     OW18750   5.086   4.868   4.269
 6154SOL    HW118751   5.169   4.839   4.221
 6154SOL    HW218752   5.037   4.935   4.213
 6155SOL     OW18753   4.274   3.920   4.609
 6155SOL    HW118754   4.269   3.915   4.709
 6155SOL    HW218755   4.276   4.016   4.580
 6156SOL     OW18756   4.732   5.180   4.201
 6156SOL    HW118757   4.686   5.252   4.149
 6156SOL    HW218758   4.728   5.200   4.299
 6157SOL     OW18759   4.075   5.525   4.577
 6157SOL    HW118760   4.125   5.439   4.583
 6157SOL    HW218761   4.140   5.602   4.574
 6158SOL     OW18762   5.519   4.790   4.597
 6158SOL    HW118763   5.457   4.775   4.521
 6158SOL    HW218764   5.467   4.801   4.682
 6159SOL     OW18765   4.951   5.274   5.230
 6159SOL    HW118766   4.957   5.197   5.294
 6159SOL    HW218767   4.899   5.248   5.150
 6160SOL     OW18768   4.045   4.667   3.966
 6160SOL    HW118769   4.127   4.706   3.924
 6160SOL    HW218770   4.018   4.585   3.917
 6161SOL     OW18771   5.182   4.459   4.452
 6161SOL    HW118772   5.177   4.394   4.527
 6161SOL    HW218773   5.262   4.518   4.465
 6162SOL     OW18774   4.185   4.990   5.451
 6162SOL    HW118775   4.135   4.991   5.365
 6162SOL    HW218776   4.122   4.972   5.527
 6163SOL     OW18777   4.835   5.500   3.961
 6163SOL    HW118778   4.775   5.438   4.011
 6163SOL    HW218779   4.866   5.456   3.876
 6164SOL     OW18780   3.926   4.009   5.222
 6164SOL    HW118781   3.846   4.069   5.209
 6164SOL    HW218782   3.916   3.960   5.308
 6165SOL     OW18783   5.356   5.101   3.805
 6165SOL    HW118784   5.324   5.195   3.795
 6165SOL    HW218785   5.280   5.038   3.793
 6166SOL     OW18786   4.188   5.467   4.047
 6166SOL    HW118787   4.221   5.506   4.133
 6166SOL    HW218788   4.264   5.460   3.982
 6167SOL     OW18789   5.124   3.831   4.150
 6167SOL    HW118790   5.100   3.794   4.060
 6167SOL    HW218791   5.223   3.847   4.154
 6168SOL     OW18792   3.973   5.509   4.965
 6168SOL    HW118793   4.030   5.444   5.015
 6168SOL    HW218794   3.957   5.476   4.872
 6169SOL     OW18795   4.664   5.422   4.628
 6169SOL    HW118796   4.744   5.365   4.649
 6169SOL    HW218797   4.615   5.382   4.551
 6170SOL     OW18798   4.106   4.424   4.204
 6170SOL    HW118799   4.151   4.334   4.201
 6170SOL    HW218800   4.012   4.413   4.237
 6171SOL     OW18801   5.271   3.946   5.453
 6171SOL    HW118802   5.266   3.983   5.545
 6171SOL    HW218803   5.199   3.877   5.441
 6172SOL     OW18804   4.338   3.846   3.841
 6172SOL    HW118805   4.436   3.824   3.848
 6172SOL    HW218806   4.307   3.829   3.748
 6173SOL     OW18807   4.505   3.988   5.473
 6173SOL    HW118808   4.572   3.927   5.516
 6173SOL    HW218809   4.432   4.007   5.538
 6174SOL     OW18810   4.612   5.238   4.919
 6174SOL    HW118811   4.589   5.213   4.825
 6174SOL    HW218812   4.673   5.169   4.958
 6175SOL     OW18813   5.075   4.314   5.157
 6175SOL    HW118814   5.103   4.271   5.242
 6175SOL    HW218815   5.100   4.410   5.158
 6176SOL     OW18816   4.527   5.126   4.648
 6176SOL    HW118817   4.617   5.140   4.606
 6176SOL    HW218818   4.456   5.128   4.577
 6177SOL     OW18819   4.646   4.227   4.623
 6177SOL    HW118820   4.621   4.218   4.527
 6177SOL    HW218821   4.694   4.145   4.654
 6178SOL     OW18822   4.263   3.788   4.236
 6178SOL    HW118823   4.182   3.789   4.294
 6178SOL    HW218824   4.266   3.871   4.181
 6179SOL     OW18825   5.158   4.912   3.765
 6179SOL    HW118826   5.190   4.836   3.822
 6179SOL    HW218827   5.066   4.939   3.795
 6180SOL     OW18828   4.021   3.759   3.895
 6180SOL    HW118829   4.070   3.843   3.874
 6180SOL    HW218830   4.083   3.694   3.940
 6181SOL     OW18831   4.659   3.960   4.204
 6181SOL    HW118832   4.611   4.001   4.126
 6181SOL    HW218833   4.758   3.958   4.185
 6182SOL     OW18834   4.800   4.407   5.188
 6182SOL    HW118835   4.720   4.346   5.191
 6182SOL    HW218836   4.881   4.354   5.164
 6183SOL     OW18837   4.951   5.294   4.517
 6183SOL    HW118838   4.972   5.368   4.452
 6183SOL    HW218839   5.019   5.294   4.590
 6184SOL     OW18840   4.183   4.876   4.465
 6184SOL    HW118841   4.112   4.849   4.530
 6184SOL    HW218842   4.157   4.848   4.372
 6185SOL     OW18843   4.995   5.521   4.315
 6185SOL    HW118844   5.039   5.585   4.251
 6185SOL    HW218845   4.945   5.573   4.385
 6186SOL     OW18846   4.756   4.273   3.740
 6186SOL    HW118847   4.715   4.355   3.701
 6186SOL    HW218848   4.820   4.299   3.813
 6187SOL     OW18849   3.802   4.280   5.110
 6187SOL    HW118850   3.894   4.279   5.069
 6187SOL    HW218851   3.796   4.354   5.177
 6188SOL     OW18852   4.285   3.946   4.871
 6188SOL    HW118853   4.323   3.862   4.908
 6188SOL    HW218854   4.197   3.965   4.915
 6189SOL     OW18855   4.590   4.178   4.366
 6189SOL    HW118856   4.558   4.250   4.304
 6189SOL    HW218857   4.614   4.097   4.313
 6190SOL     OW18858   4.741   3.763   4.477
 6190SOL    HW118859   4.669   3.768   4.408
 6190SOL    HW218860   4.717   3.694   4.546
 6191SOL     OW18861   5.153   4.897   4.591
 6191SOL    HW118862   5.098   4.813   4.584
 6191SOL    HW218863   5.179   4.926   4.499
 6192SOL     OW18864   5.190   4.314   4.716
 6192SOL    HW118865   5.160   4.219   4.723
 6192SOL    HW218866   5.263   4.330   4.782
 6193SOL     OW18867   5.581   4.557   4.101
 6193SOL    HW118868   5.623   4.493   4.165
 6193SOL    HW218869   5.543   4.506   4.023
 6194SOL     OW18870   4.212   5.109   3.898
 6194SOL    HW118871   4.125   5.094   3.945
 6194SOL    HW218872   4.195   5.135   3.803
 6195SOL     OW18873   5.388   5.004   4.381
 6195SOL    HW118874   5.487   5.012   4.395
 6195SOL    HW218875   5.343   5.088   4.412
 6196SOL     OW18876   5.114   4.299   3.802
 6196SOL    HW118877   5.060   4.278   3.883
 6196SOL    HW218878   5.205   4.258   3.811
 6197SOL     OW18879   4.251   3.980   4.052
 6197SOL    HW118880   4.278   3.921   3.977
 6197SOL    HW218881   4.251   4.075   4.021
 6198SOL     OW18882   5.478   4.947   5.312
 6198SOL    HW118883   5.569   4.908   5.299
 6198SOL    HW218884   5.486   5.043   5.336
 6199SOL     OW18885   4.788   5.071   5.064
 6199SOL    HW118886   4.708   5.048   5.119
 6199SOL    HW218887   4.871   5.045   5.113
 6200SOL     OW18888   5.316   5.353   5.349
 6200SOL    HW118889   5.343   5.387   5.259
 6200SOL    HW218890   5.395   5.315   5.395
 6201SOL     OW18891   4.835   4.919   4.824
 6201SOL    HW118892   4.795   4.963   4.905
 6201SOL    HW218893   4.794   4.956   4.741
 6202SOL     OW18894   5.362   4.823   4.803
 6202SOL    HW118895   5.367   4.904   4.862
 6202SOL    HW218896   5.276   4.825   4.752
 6203SOL     OW18897   4.639   3.813   5.126
 6203SOL    HW118898   4.664   3.793   5.031
 6203SOL    HW218899   4.711   3.869   5.168
 6204SOL     OW18900   4.704   4.840   5.443
 6204SOL    HW118901   4.605   4.846   5.453
 6204SOL    HW218902   4.727   4.760   5.387
 6205SOL     OW18903   4.429   4.774   4.092
 6205SOL    HW118904   4.415   4.781   4.191
 6205SOL    HW218905   4.513   4.723   4.074
 6206SOL     OW18906   4.134   4.537   4.975
 6206SOL    HW118907   4.220   4.549   5.025
 6206SOL    HW218908   4.092   4.450   5.002
 6207SOL     OW18909   4.998   4.110   4.986
 6207SOL    HW118910   5.019   4.184   5.050
 6207SOL    HW218911   4.909   4.127   4.943
 6208SOL     OW18912   3.788   5.288   5.055
 6208SOL    HW118913   3.742   5.370   5.021
 6208SOL    HW218914   3.886   5.307   5.064
 6209SOL     OW18915   4.091   4.824   4.225
 6209SOL    HW118916   4.084   4.907   4.169
 6209SOL    HW218917   4.095   4.744   4.165
 6210SOL     OW18918   4.290   4.261   4.589
 6210SOL    HW118919   4.302   4.327   4.515
 6210SOL    HW218920   4.336   4.295   4.672
 6211SOL     OW18921   4.976   5.072   4.112
 6211SOL    HW118922   5.026   5.149   4.152
 6211SOL    HW218923   4.881   5.074   4.144
 6212SOL     OW18924   4.996   5.169   4.866
 6212SOL    HW118925   5.043   5.182   4.953
 6212SOL    HW218926   4.930   5.095   4.875
 6213SOL     OW18927   5.306   4.363   4.196
 6213SOL    HW118928   5.275   4.424   4.269
 6213SOL    HW218929   5.356   4.415   4.127
 6214SOL     OW18930   4.078   5.234   5.053
 6214SOL    HW118931   4.057   5.190   4.966
 6214SOL    HW218932   4.175   5.260   5.056
 6215SOL     OW18933   4.126   4.475   5.322
 6215SOL    HW118934   4.194   4.530   5.275
 6215SOL    HW218935   4.166   4.387   5.349
 6216SOL     OW18936   5.311   4.503   5.394
 6216SOL    HW118937   5.219   4.541   5.389
 6216SOL    HW218938   5.371   4.550   5.329
 6217SOL     OW18939   4.737   3.829   5.494
 6217SOL    HW118940   4.743   3.914   5.442
 6217SOL    HW218941   4.769   3.753   5.437
 6218SOL     OW18942   4.228   3.774   5.464
 6218SOL    HW118943   4.186   3.717   5.394
 6218SOL    HW218944   4.162   3.843   5.496
 6219SOL     OW18945   4.297   4.594   4.753
 6219SOL    HW118946   4.341   4.683   4.744
 6219SOL    HW218947   4.234   4.594   4.830
 6220SOL     OW18948   5.084   4.586   4.769
 6220SOL    HW118949   5.009   4.586   4.703
 6220SOL    HW218950   5.121   4.494   4.778
 6221SOL     OW18951   4.933   4.249   3.999
 6221SOL    HW118952   4.946   4.165   4.053
 6221SOL    HW218953   4.904   4.323   4.059
 6222SOL     OW18954   4.031   3.937   4.955
 6222SOL    HW118955   4.008   3.974   5.045
 6222SOL    HW218956   4.001   3.842   4.949
 6223SOL     OW18957   3.761   5.034   5.006
 6223SOL    HW118958   3.814   4.985   5.074
 6223SOL    HW218959   3.783   5.132   5.011
 6224SOL     OW18960   4.456   4.358   4.788
 6224SOL    HW118961   4.515   4.332   4.712
 6224SOL    HW218962   4.428   4.454   4.777
 6225SOL     OW18963   5.452   4.659   5.578
 6225SOL    HW118964   5.406   4.652   5.489
 6225SOL    HW218965   5.390   4.703   5.644
 6226SOL     OW18966   4.031   3.787   4.342
 6226SOL    HW118967   4.020   3.881   4.375
 6226SOL    HW218968   4.026   3.724   4.419
 6227SOL     OW18969   5.346   4.091   4.098
 6227SOL    HW118970   5.348   4.015   4.162
 6227SOL    HW218971   5.298   4.168   4.138
 6228SOL     OW18972   4.747   4.490   4.690
 6228SOL    HW118973   4.762   4.511   4.786
 6228SOL    HW218974   4.717   4.395   4.681
 6229SOL     OW18975   4.704   5.297   5.424
 6229SOL    HW118976   4.684   5.341   5.336
 6229SOL    HW218977   4.743   5.206   5.408
 6230SOL     OW18978   5.583   5.242   5.329
 6230SOL    HW118979   5.597   5.269   5.234
 6230SOL    HW218980   5.666   5.264   5.382
 6231SOL     OW18981   4.074   4.622   5.528
 6231SOL    HW118982   4.150   4.666   5.576
 6231SOL    HW218983   4.109   4.575   5.446
 6232SOL     OW18984   5.264   3.998   3.849
 6232SOL    HW118985   5.203   3.923   3.872
 6232SOL    HW218986   5.286   4.050   3.932
 6233SOL     OW18987   5.027   4.562   3.766
 6233SOL    HW118988   5.061   4.469   3.781
 6233SOL    HW218989   5.045   4.589   3.671
 6234SOL     OW18990   4.792   5.057   4.573
 6234SOL    HW118991   4.799   4.973   4.518
 6234SOL    HW218992   4.854   5.126   4.537
 6235SOL     OW18993   4.043   4.534   4.673
 6235SOL    HW118994   4.136   4.570   4.678
 6235SOL    HW218995   4.037   4.449   4.725
 6236SOL     OW18996   4.063   4.233   4.730
 6236SOL    HW118997   4.011   4.150   4.713
 6236SOL    HW218998   4.140   4.238   4.666
 6237SOL     OW18999   4.862   4.104   5.402
 6237SOL    HW119000   4.817   4.167   5.466
 6237SOL    HW219001   4.955   4.135   5.385
 6238SOL     OW19002   4.884   3.931   5.201
 6238SOL    HW119003   4.884   3.995   5.278
 6238SOL    HW219004   4.912   3.979   5.118
 6239SOL     OW19005   3.732   5.050   3.924
 6239SOL    HW119006   3.639   5.071   3.893
 6239SOL    HW219007   3.742   4.951   3.937
 6240SOL     OW19008   3.812   5.525   4.651
 6240SOL    HW119009   3.770   5.439   4.624
 6240SOL    HW219010   3.906   5.528   4.617
 6241SOL     OW19011   4.228   5.292   4.634
 6241SOL    HW119012   4.294   5.366   4.643
 6241SOL    HW219013   4.272   5.213   4.592
 6242SOL     OW19014   4.726   4.520   4.962
 6242SOL    HW119015   4.767   4.488   5.048
 6242SOL    HW219016   4.630   4.493   4.959
 6243SOL     OW19017   3.764   4.268   4.838
 6243SOL    HW119018   3.849   4.235   4.797
 6243SOL    HW219019   3.777   4.283   4.936
 6244SOL     OW19020   3.913   4.244   5.446
 6244SOL    HW119021   3.972   4.204   5.376
 6244SOL    HW219022   3.855   4.315   5.405
 6245SOL     OW19023   5.093   4.674   5.384
 6245SOL    HW119024   5.132   4.763   5.404
 6245SOL    HW219025   5.103   4.654   5.287
 6246SOL     OW19026   4.539   4.296   4.049
 6246SOL    HW119027   4.546   4.207   4.003
 6246SOL    HW219028   4.445   4.330   4.041
 6247SOL     OW19029   5.381   4.328   4.930
 6247SOL    HW119030   5.343   4.259   4.992
 6247SOL    HW219031   5.463   4.292   4.886
 6248SOL     OW19032   3.976   5.288   5.468
 6248SOL    HW119033   3.946   5.345   5.544
 6248SOL    HW219034   3.969   5.191   5.494
 6249SOL     OW19035   4.395   4.188   4.993
 6249SOL    HW119036   4.361   4.099   4.963
 6249SOL    HW219037   4.421   4.242   4.913
 6250SOL     OW19038   4.654   5.402   5.189
 6250SOL    HW119039   4.630   5.384   5.094
 6250SOL    HW219040   4.684   5.496   5.199
 6251SOL     OW19041   4.197   4.224   3.915
 6251SOL    HW119042   4.258   4.304   3.919
 6251SOL    HW219043   4.102   4.255   3.922
 6252SOL     OW19044   3.883   4.861   5.190
 6252SOL    HW119045   3.905   4.800   5.266
 6252SOL    HW219046   3.893   4.812   5.104
 6253SOL     OW19047   5.071   4.783   4.958
 6253SOL    HW119048   5.095   4.720   4.884
 6253SOL    HW219049   4.981   4.823   4.940
 6254SOL     OW19050   5.026   4.579   4.033
 6254SOL    HW119051   4.940   4.548   4.075
 6254SOL    HW219052   5.022   4.565   3.934
 6255SOL     OW19053   5.483   5.471   4.878
 6255SOL    HW119054   5.544   5.501   4.805
 6255SOL    HW219055   5.445   5.382   4.856
 6256SOL     OW19056   4.976   5.455   4.852
 6256SOL    HW119057   5.060   5.460   4.798
 6256SOL    HW219058   4.953   5.359   4.870
 6257SOL     OW19059   3.807   4.982   4.746
 6257SOL    HW119060   3.802   4.981   4.846
 6257SOL    HW219061   3.724   4.941   4.708
 6258SOL     OW19062   4.412   5.386   5.440
 6258SOL    HW119063   4.356   5.467   5.449
 6258SOL    HW219064   4.464   5.390   5.354
 6259SOL     OW19065   5.450   3.859   4.247
 6259SOL    HW119066   5.523   3.842   4.180
 6259SOL    HW219067   5.419   3.772   4.285
 6260SOL     OW19068   5.112   5.297   4.201
 6260SOL    HW119069   5.179   5.309   4.127
 6260SOL    HW219070   5.072   5.386   4.224
 6261SOL     OW19071   3.854   5.518   5.575
 6261SOL    HW119072   3.813   5.444   5.628
 6261SOL    HW219073   3.918   5.569   5.633
 6262SOL     OW19074   5.004   4.651   4.396
 6262SOL    HW119075   5.064   4.570   4.398
 6262SOL    HW219076   5.044   4.720   4.336
 6263SOL     OW19077   4.554   4.997   5.146
 6263SOL    HW119078   4.549   5.030   5.241
 6263SOL    HW219079   4.468   5.016   5.100
 6264SOL     OW19080   4.396   5.340   3.878
 6264SOL    HW119081   4.405   5.350   3.779
 6264SOL    HW219082   4.356   5.251   3.899
 6265SOL     OW19083   5.374   5.444   5.118
 6265SOL    HW119084   5.427   5.454   5.034
 6265SOL    HW219085   5.347   5.534   5.152
 6266SOL     OW19086   5.565   3.899   4.687
 6266SOL    HW119087   5.604   3.814   4.651
 6266SOL    HW219088   5.467   3.901   4.668
 6267SOL     OW19089   3.987   4.050   4.444
 6267SOL    HW119090   3.908   4.101   4.410
 6267SOL    HW219091   3.978   4.035   4.542
 6268SOL     OW19092   4.918   5.336   3.755
 6268SOL    HW119093   4.924   5.243   3.792
 6268SOL    HW219094   4.859   5.336   3.675
 6269SOL     OW19095   4.546   4.726   5.096
 6269SOL    HW119096   4.586   4.725   5.004
 6269SOL    HW219097   4.556   4.818   5.136
 6270SOL     OW19098   4.640   4.634   4.015
 6270SOL    HW119099   4.703   4.672   3.947
 6270SOL    HW219100   4.680   4.551   4.054
 6271SOL     OW19101   5.228   5.331   3.768
 6271SOL    HW119102   5.136   5.368   3.775
 6271SOL    HW219103   5.266   5.351   3.678
 6272SOL     OW19104   4.096   5.012   5.214
 6272SOL    HW119105   4.083   5.105   5.180
 6272SOL    HW219106   4.012   4.960   5.201
 6273SOL     OW19107   5.338   5.016   5.013
 6273SOL    HW119108   5.398   5.019   5.093
 6273SOL    HW219109   5.263   5.080   5.026
 6274SOL     OW19110   4.763   4.822   4.420
 6274SOL    HW119111   4.693   4.775   4.474
 6274SOL    HW219112   4.822   4.754   4.377
 6275SOL     OW19113   4.738   3.960   4.695
 6275SOL    HW119114   4.730   3.924   4.602
 6275SOL    HW219115   4.736   3.884   4.760
 6276SOL     OW19116   4.314   5.211   4.215
 6276SOL    HW119117   4.356   5.153   4.145
 6276SOL    HW219118   4.270   5.290   4.171
 6277SOL     OW19119   5.433   4.109   5.105
 6277SOL    HW119120   5.506   4.178   5.109
 6277SOL    HW219121   5.461   4.034   5.046
 6278SOL     OW19122   3.979   5.072   4.014
 6278SOL    HW119123   3.883   5.073   3.987
 6278SOL    HW219124   3.991   5.125   4.098
 6279SOL     OW19125   3.829   4.737   5.450
 6279SOL    HW119126   3.752   4.704   5.504
 6279SOL    HW219127   3.914   4.707   5.492
 6280SOL     OW19128   4.396   3.927   5.213
 6280SOL    HW119129   4.486   3.911   5.173
 6280SOL    HW219130   4.404   3.932   5.312
 6281SOL     OW19131   3.799   4.069   3.757
 6281SOL    HW119132   3.707   4.041   3.728
 6281SOL    HW219133   3.830   4.146   3.701
 6282SOL     OW19134   5.164   4.580   5.122
 6282SOL    HW119135   5.107   4.632   5.059
 6282SOL    HW219136   5.260   4.592   5.098
 6283SOL     OW19137   3.796   3.890   4.042
 6283SOL    HW119138   3.779   3.973   3.988
 6283SOL    HW219139   3.886   3.853   4.020
 6284SOL     OW19140   4.907   5.059   3.843
 6284SOL    HW119141   4.808   5.048   3.845
 6284SOL    HW219142   4.941   5.074   3.936
 6285SOL     OW19143   4.337   4.566   5.155
 6285SOL    HW119144   4.393   4.647   5.138
 6285SOL    HW219145   4.396   4.486   5.158
 6286SOL     OW19146   5.217   5.491   4.683
 6286SOL    HW119147   5.250   5.555   4.614
 6286SOL    HW219148   5.283   5.485   4.758
 6287SOL     OW19149   4.440   4.289   5.432
 6287SOL    HW119150   4.459   4.354   5.506
 6287SOL    HW219151   4.500   4.209   5.441
 6288SOL     OW19152   5.174   4.944   5.357
 6288SOL    HW119153   5.165   4.934   5.456
 6288SOL    HW219154   5.270   4.937   5.331
 6289SOL     OW19155   4.114   5.465   5.284
 6289SOL    HW119156   4.023   5.506   5.282
 6289SOL    HW219157   4.107   5.371   5.316
 6290SOL     OW19158   5.398   4.607   4.978
 6290SOL    HW119159   5.371   4.518   4.941
 6290SOL    HW219160   5.399   4.675   4.905
 6291SOL     OW19161   4.949   4.049   4.173
 6291SOL    HW119162   5.014   3.975   4.162
 6291SOL    HW219163   4.969   4.099   4.257
 6292SOL     OW19164   4.318   4.469   4.376
 6292SOL    HW119165   4.368   4.554   4.357
 6292SOL    HW219166   4.230   4.471   4.328
 6293SOL     OW19167   5.501   4.066   5.366
 6293SOL    HW119168   5.484   4.097   5.272
 6293SOL    HW219169   5.417   4.029   5.404
 6294SOL     OW19170   5.454   4.658   5.241
 6294SOL    HW119171   5.492   4.749   5.256
 6294SOL    HW219172   5.446   4.641   5.142
 6295SOL     OW19173   4.583   5.098   3.740
 6295SOL    HW119174   4.537   5.113   3.828
 6295SOL    HW219175   4.627   5.183   3.710
 6296SOL     OW19176   4.385   5.514   4.677
 6296SOL    HW119177   4.339   5.602   4.664
 6296SOL    HW219178   4.484   5.526   4.670
 6297SOL     OW19179   4.583   4.680   4.585
 6297SOL    HW119180   4.637   4.611   4.633
 6297SOL    HW219181   4.551   4.749   4.651
 6298SOL     OW19182   4.807   4.708   3.811
 6298SOL    HW119183   4.784   4.761   3.729
 6298SOL    HW219184   4.888   4.652   3.792
 6299SOL     OW19185   5.585   5.293   4.575
 6299SOL    HW119186   5.514   5.281   4.505
 6299SOL    HW219187   5.586   5.214   4.635
 6300SOL     OW19188   3.945   5.038   5.568
 6300SOL    HW119189   3.880   4.965   5.547
 6300SOL    HW219190   3.949   5.052   5.666
 6301SOL     OW19191   3.803   4.964   4.377
 6301SOL    HW119192   3.802   4.917   4.465
 6301SOL    HW219193   3.885   4.936   4.326
 6302SOL     OW19194   4.396   5.115   5.348
 6302SOL    HW119195   4.318   5.065   5.386
 6302SOL    HW219196   4.393   5.210   5.379
 6303SOL     OW19197   5.548   3.916   4.951
 6303SOL    HW119198   5.544   3.826   4.995
 6303SOL    HW219199   5.551   3.905   4.852
 6304SOL     OW19200   4.152   4.148   4.244
 6304SOL    HW119201   4.182   4.076   4.182
 6304SOL    HW219202   4.113   4.108   4.327
 6305SOL     OW19203   5.429   5.211   4.828
 6305SOL    HW119204   5.336   5.186   4.801
 6305SOL    HW219205   5.455   5.161   4.910
 6306SOL     OW19206   4.041   4.271   5.004
 6306SOL    HW119207   4.079   4.212   5.076
 6306SOL    HW219208   4.081   4.245   4.916
 6307SOL     OW19209   4.536   5.310   4.411
 6307SOL    HW119210   4.568   5.320   4.317
 6307SOL    HW219211   4.457   5.248   4.413
 6308SOL     OW19212   5.148   3.938   4.836
 6308SOL    HW119213   5.200   3.873   4.891
 6308SOL    HW219214   5.099   4.001   4.897
 6309SOL     OW19215   4.725   3.758   4.878
 6309SOL    HW119216   4.662   3.686   4.847
 6309SOL    HW219217   4.818   3.722   4.878
 6310SOL     OW19218   4.494   5.054   4.025
 6310SOL    HW119219   4.448   4.967   4.042
 6310SOL    HW219220   4.585   5.051   4.066
 6311SOL     OW19221   4.342   5.291   5.008
 6311SOL    HW119222   4.337   5.373   5.065
 6311SOL    HW219223   4.431   5.288   4.963
 6312SOL     OW19224   5.076   3.776   3.892
 6312SOL    HW119225   5.111   3.735   3.808
 6312SOL    HW219226   4.986   3.738   3.912
 6313SOL     OW19227   5.024   4.177   4.415
 6313SOL    HW119228   4.965   4.257   4.419
 6313SOL    HW219229   5.039   4.142   4.508
 6314SOL     OW19230   5.317   3.945   4.606
 6314SOL    HW119231   5.233   3.944   4.660
 6314SOL    HW219232   5.319   4.028   4.550
 6315SOL     OW19233   3.763   4.801   4.024
 6315SOL    HW119234   3.862   4.790   4.015
 6315SOL    HW219235   3.723   4.715   4.056
 6316SOL     OW19236   4.599   5.370   4.061
 6316SOL    HW119237   4.522   5.335   4.007
 6316SOL    HW219238   4.567   5.441   4.123
 6317SOL     OW19239   3.954   4.352   5.699
 6317SOL    HW119240   3.861   4.350   5.736
 6317SOL    HW219241   3.955   4.313   5.607
 6318SOL     OW19242   5.479   4.331   5.817
 6318SOL    HW119243   5.467   4.318   5.718
 6318SOL    HW219244   5.449   4.250   5.866
 6319SOL     OW19245   3.955   5.437   6.069
 6319SOL    HW119246   3.989   5.514   6.123
 6319SOL    HW219247   3.999   5.437   5.979
 6320SOL     OW19248   4.330   4.688   5.709
 6320SOL    HW119249   4.337   4.772   5.655
 6320SOL    HW219250   4.376   4.701   5.797
 6321SOL     OW19251   5.566   5.491   5.945
 6321SOL    HW119252   5.620   5.462   6.025
 6321SOL    HW219253   5.596   5.581   5.916
 6322SOL     OW19254   3.751   5.320   5.703
 6322SOL    HW119255   3.732   5.224   5.724
 6322SOL    HW219256   3.718   5.378   5.778
 6323SOL     OW19257   5.413   4.646   6.198
 6323SOL    HW119258   5.508   4.617   6.206
 6323SOL    HW219259   5.405   4.711   6.123
 6324SOL     OW19260   5.365   4.832   6.018
 6324SOL    HW119261   5.451   4.834   5.966
 6324SOL    HW219262   5.379   4.879   6.106
 6325SOL     OW19263   5.249   4.723   5.776
 6325SOL    HW119264   5.186   4.647   5.789
 6325SOL    HW219265   5.297   4.741   5.862
 6326SOL     OW19266   4.322   4.453   5.856
 6326SOL    HW119267   4.346   4.522   5.788
 6326SOL    HW219268   4.244   4.486   5.910
 6327SOL     OW19269   4.589   4.072   5.781
 6327SOL    HW119270   4.648   4.135   5.732
 6327SOL    HW219271   4.608   3.978   5.752
 6328SOL     OW19272   4.045   4.667   5.828
 6328SOL    HW119273   4.127   4.706   5.786
 6328SOL    HW219274   4.018   4.585   5.779
 6329SOL     OW19275   4.835   5.500   5.823
 6329SOL    HW119276   4.775   5.438   5.873
 6329SOL    HW219277   4.866   5.456   5.738
 6330SOL     OW19278   5.356   5.101   5.667
 6330SOL    HW119279   5.324   5.195   5.657
 6330SOL    HW219280   5.280   5.038   5.655
 6331SOL     OW19281   4.188   5.467   5.909
 6331SOL    HW119282   4.221   5.506   5.995
 6331SOL    HW219283   4.264   5.460   5.844
 6332SOL     OW19284   4.338   3.846   5.703
 6332SOL    HW119285   4.436   3.824   5.710
 6332SOL    HW219286   4.307   3.829   5.610
 6333SOL     OW19287   5.158   4.912   5.627
 6333SOL    HW119288   5.190   4.836   5.684
 6333SOL    HW219289   5.066   4.939   5.657
 6334SOL     OW19290   4.021   3.759   5.757
 6334SOL    HW119291   4.070   3.843   5.736
 6334SOL    HW219292   4.083   3.694   5.802
 6335SOL     OW19293   4.756   4.273   5.602
 6335SOL    HW119294   4.715   4.355   5.563
 6335SOL    HW219295   4.820   4.299   5.675
 6336SOL     OW19296   5.581   4.557   5.963
 6336SOL    HW119297   5.623   4.493   6.027
 6336SOL    HW219298   5.543   4.506   5.885
 6337SOL     OW19299   4.212   5.109   5.760
 6337SOL    HW119300   4.125   5.094   5.807
 6337SOL    HW219301   4.195   5.135   5.665
 6338SOL     OW19302   5.388   5.004   6.243
 6338SOL    HW119303   5.487   5.012   6.257
 6338SOL    HW219304   5.343   5.088   6.274
 6339SOL     OW19305   5.114   4.299   5.664
 6339SOL    HW119306   5.060   4.278   5.745
 6339SOL    HW219307   5.205   4.258   5.673
 6340SOL     OW19308   4.251   3.980   5.914
 6340SOL    HW119309   4.278   3.921   5.839
 6340SOL    HW219310   4.251   4.075   5.883
 6341SOL     OW19311   4.091   4.824   6.087
 6341SOL    HW119312   4.084   4.907   6.031
 6341SOL    HW219313   4.095   4.744   6.027
 6342SOL     OW19314   4.933   4.249   5.861
 6342SOL    HW119315   4.946   4.165   5.915
 6342SOL    HW219316   4.904   4.323   5.921
 6343SOL     OW19317   4.031   3.787   6.204
 6343SOL    HW119318   4.020   3.881   6.237
 6343SOL    HW219319   4.026   3.724   6.281
 6344SOL     OW19320   5.264   3.998   5.711
 6344SOL    HW119321   5.203   3.923   5.734
 6344SOL    HW219322   5.286   4.050   5.794
 6345SOL     OW19323   5.027   4.562   5.628
 6345SOL    HW119324   5.061   4.469   5.643
 6345SOL    HW219325   5.045   4.589   5.533
 6346SOL     OW19326   3.732   5.050   5.786
 6346SOL    HW119327   3.639   5.071   5.755
 6346SOL    HW219328   3.742   4.951   5.799
 6347SOL     OW19329   4.539   4.296   5.911
 6347SOL    HW119330   4.546   4.207   5.865
 6347SOL    HW219331   4.445   4.330   5.903
 6348SOL     OW19332   4.197   4.224   5.777
 6348SOL    HW119333   4.258   4.304   5.781
 6348SOL    HW219334   4.102   4.255   5.784
 6349SOL     OW19335   5.450   3.859   6.109
 6349SOL    HW119336   5.523   3.842   6.042
 6349SOL    HW219337   5.419   3.772   6.147
 6350SOL     OW19338   4.396   5.340   5.740
 6350SOL    HW119339   4.405   5.350   5.641
 6350SOL    HW219340   4.356   5.251   5.761
 6351SOL     OW19341   4.918   5.336   5.617
 6351SOL    HW119342   4.924   5.243   5.654
 6351SOL    HW219343   4.859   5.336   5.537
 6352SOL     OW19344   4.640   4.634   5.877
 6352SOL    HW119345   4.703   4.672   5.809
 6352SOL    HW219346   4.680   4.551   5.916
 6353SOL     OW19347   5.228   5.331   5.630
 6353SOL    HW119348   5.136   5.368   5.637
 6353SOL    HW219349   5.266   5.351   5.540
 6354SOL     OW19350   4.763   4.822   6.282
 6354SOL    HW119351   4.693   4.775   6.336
 6354SOL    HW219352   4.822   4.754   6.239
 6355SOL     OW19353   3.979   5.072   5.876
 6355SOL    HW119354   3.883   5.073   5.849
 6355SOL    HW219355   3.991   5.125   5.960
 6356SOL     OW19356   3.799   4.069   5.619
 6356SOL    HW119357   3.707   4.041   5.590
 6356SOL    HW219358   3.830   4.146   5.563
 6357SOL     OW19359   3.796   3.890   5.904
 6357SOL    HW119360   3.779   3.973   5.850
 6357SOL    HW219361   3.886   3.853   5.882
 6358SOL     OW19362   4.907   5.059   5.705
 6358SOL    HW119363   4.808   5.048   5.707
 6358SOL    HW219364   4.941   5.074   5.798
 6359SOL     OW19365   4.949   4.049   6.035
 6359SOL    HW119366   5.014   3.975   6.024
 6359SOL    HW219367   4.969   4.099   6.119
 6360SOL     OW19368   4.583   5.098   5.602
 6360SOL    HW119369   4.537   5.113   5.690
 6360SOL    HW219370   4.627   5.183   5.572
 6361SOL     OW19371   4.807   4.708   5.673
 6361SOL    HW119372   4.784   4.761   5.591
 6361SOL    HW219373   4.888   4.652   5.654
 6362SOL     OW19374   5.076   3.776   5.754
 6362SOL    HW119375   5.111   3.735   5.670
 6362SOL    HW219376   4.986   3.738   5.774
 6363SOL     OW19377   3.763   4.801   5.886
 6363SOL    HW119378   3.862   4.790   5.877
 6363SOL    HW219379   3.723   4.715   5.918
 6364SOL     OW19380   4.599   5.370   5.923
 6364SOL    HW119381   4.522   5.335   5.869
 6364SOL    HW219382   4.567   5.441   5.985
 6365SOL     OW19383   3.954   6.214   0.113
 6365SOL    HW119384   3.861   6.212   0.150
 6365SOL    HW219385   3.955   6.175   0.021
 6366SOL     OW19386   3.949   5.861   0.996
 6366SOL    HW119387   3.984   5.844   1.088
 6366SOL    HW219388   3.861   5.816   0.984
 6367SOL     OW19389   3.743   5.954   0.647
 6367SOL    HW119390   3.661   5.997   0.686
 6367SOL    HW219391   3.715   5.881   0.584
 6368SOL     OW19392   4.162   5.978   1.499
 6368SOL    HW119393   4.244   5.922   1.508
 6368SOL    HW219394   4.081   5.920   1.503
 6369SOL     OW19395   5.327   6.033   0.737
 6369SOL    HW119396   5.253   6.079   0.687
 6369SOL    HW219397   5.378   6.101   0.790
 6370SOL     OW19398   5.318   5.700   1.480
 6370SOL    HW119399   5.300   5.767   1.408
 6370SOL    HW219400   5.315   5.746   1.569
 6371SOL     OW19401   4.533   5.590   0.502
 6371SOL    HW119402   4.573   5.681   0.493
 6371SOL    HW219403   4.433   5.598   0.508
 6372SOL     OW19404   4.041   5.837   1.801
 6372SOL    HW119405   4.112   5.908   1.807
 6372SOL    HW219406   3.953   5.876   1.829
 6373SOL     OW19407   5.005   5.931   0.944
 6373SOL    HW119408   4.919   5.881   0.931
 6373SOL    HW219409   5.067   5.877   1.000
 6374SOL     OW19410   4.274   5.782   0.885
 6374SOL    HW119411   4.269   5.777   0.985
 6374SOL    HW219412   4.276   5.878   0.856
 6375SOL     OW19413   3.926   5.871   1.498
 6375SOL    HW119414   3.846   5.931   1.485
 6375SOL    HW219415   3.916   5.822   1.584
 6376SOL     OW19416   5.124   5.693   0.426
 6376SOL    HW119417   5.100   5.656   0.336
 6376SOL    HW219418   5.223   5.709   0.430
 6377SOL     OW19419   5.271   5.808   1.729
 6377SOL    HW119420   5.266   5.845   1.821
 6377SOL    HW219421   5.199   5.739   1.717
 6378SOL     OW19422   4.338   5.708   0.117
 6378SOL    HW119423   4.436   5.686   0.124
 6378SOL    HW219424   4.307   5.691   0.024
 6379SOL     OW19425   4.505   5.850   1.749
 6379SOL    HW119426   4.572   5.789   1.792
 6379SOL    HW219427   4.432   5.869   1.814
 6380SOL     OW19428   5.075   6.176   1.433
 6380SOL    HW119429   5.103   6.133   1.518
 6380SOL    HW219430   5.100   6.272   1.434
 6381SOL     OW19431   4.263   5.650   0.512
 6381SOL    HW119432   4.182   5.651   0.570
 6381SOL    HW219433   4.266   5.733   0.457
 6382SOL     OW19434   4.659   5.822   0.480
 6382SOL    HW119435   4.611   5.863   0.402
 6382SOL    HW219436   4.758   5.820   0.461
 6383SOL     OW19437   4.285   5.808   1.147
 6383SOL    HW119438   4.323   5.724   1.184
 6383SOL    HW219439   4.197   5.827   1.191
 6384SOL     OW19440   4.741   5.625   0.753
 6384SOL    HW119441   4.669   5.630   0.684
 6384SOL    HW219442   4.717   5.556   0.822
 6385SOL     OW19443   4.251   5.842   0.328
 6385SOL    HW119444   4.278   5.783   0.253
 6385SOL    HW219445   4.251   5.937   0.297
 6386SOL     OW19446   4.639   5.675   1.402
 6386SOL    HW119447   4.664   5.655   1.307
 6386SOL    HW219448   4.711   5.731   1.444
 6387SOL     OW19449   4.737   5.691   1.770
 6387SOL    HW119450   4.743   5.776   1.718
 6387SOL    HW219451   4.769   5.615   1.713
 6388SOL     OW19452   4.228   5.636   1.740
 6388SOL    HW119453   4.186   5.579   1.670
 6388SOL    HW219454   4.162   5.705   1.772
 6389SOL     OW19455   4.031   5.799   1.231
 6389SOL    HW119456   4.008   5.836   1.321
 6389SOL    HW219457   4.001   5.704   1.225
 6390SOL     OW19458   4.456   6.220   1.064
 6390SOL    HW119459   4.515   6.194   0.988
 6390SOL    HW219460   4.428   6.316   1.053
 6391SOL     OW19461   4.031   5.649   0.618
 6391SOL    HW119462   4.020   5.743   0.651
 6391SOL    HW219463   4.026   5.586   0.695
 6392SOL     OW19464   5.264   5.860   0.125
 6392SOL    HW119465   5.203   5.785   0.148
 6392SOL    HW219466   5.286   5.912   0.208
 6393SOL     OW19467   4.063   6.095   1.006
 6393SOL    HW119468   4.011   6.012   0.989
 6393SOL    HW219469   4.140   6.100   0.942
 6394SOL     OW19470   4.884   5.793   1.477
 6394SOL    HW119471   4.884   5.857   1.554
 6394SOL    HW219472   4.912   5.841   1.394
 6395SOL     OW19473   4.627   5.672   0.133
 6395SOL    HW119474   4.678   5.673   0.047
 6395SOL    HW219475   4.683   5.630   0.204
 6396SOL     OW19476   5.450   5.721   0.523
 6396SOL    HW119477   5.523   5.704   0.456
 6396SOL    HW219478   5.419   5.634   0.561
 6397SOL     OW19479   5.565   5.761   0.963
 6397SOL    HW119480   5.604   5.676   0.927
 6397SOL    HW219481   5.467   5.763   0.944
 6398SOL     OW19482   4.738   5.822   0.971
 6398SOL    HW119483   4.730   5.786   0.878
 6398SOL    HW219484   4.736   5.746   1.036
 6399SOL     OW19485   4.396   5.789   1.489
 6399SOL    HW119486   4.486   5.773   1.449
 6399SOL    HW219487   4.404   5.794   1.588
 6400SOL     OW19488   3.799   5.931   0.033
 6400SOL    HW119489   3.707   5.903   0.004
 6400SOL    HW219490   3.830   6.008  -0.023
 6401SOL     OW19491   3.796   5.752   0.318
 6401SOL    HW119492   3.779   5.835   0.264
 6401SOL    HW219493   3.886   5.715   0.296
 6402SOL     OW19494   4.949   5.911   0.449
 6402SOL    HW119495   5.014   5.837   0.438
 6402SOL    HW219496   4.969   5.961   0.533
 6403SOL     OW19497   5.501   5.928   1.642
 6403SOL    HW119498   5.484   5.959   1.548
 6403SOL    HW219499   5.417   5.891   1.680
 6404SOL     OW19500   5.548   5.778   1.227
 6404SOL    HW119501   5.544   5.688   1.271
 6404SOL    HW219502   5.551   5.767   1.128
 6405SOL     OW19503   5.148   5.800   1.112
 6405SOL    HW119504   5.200   5.735   1.167
 6405SOL    HW219505   5.099   5.863   1.173
 6406SOL     OW19506   4.725   5.620   1.154
 6406SOL    HW119507   4.662   5.548   1.123
 6406SOL    HW219508   4.818   5.584   1.154
 6407SOL     OW19509   5.076   5.638   0.168
 6407SOL    HW119510   5.111   5.597   0.084
 6407SOL    HW219511   4.986   5.600   0.188
 6408SOL     OW19512   5.024   6.039   0.691
 6408SOL    HW119513   4.965   6.119   0.695
 6408SOL    HW219514   5.039   6.004   0.784
 6409SOL     OW19515   5.317   5.807   0.882
 6409SOL    HW119516   5.233   5.806   0.936
 6409SOL    HW219517   5.319   5.890   0.826
 6410SOL     OW19518   3.949   5.861   2.858
 6410SOL    HW119519   3.984   5.844   2.950
 6410SOL    HW219520   3.861   5.816   2.846
 6411SOL     OW19521   3.743   5.954   2.509
 6411SOL    HW119522   3.661   5.997   2.548
 6411SOL    HW219523   3.715   5.881   2.446
 6412SOL     OW19524   5.479   6.193   2.093
 6412SOL    HW119525   5.467   6.180   1.994
 6412SOL    HW219526   5.449   6.112   2.142
 6413SOL     OW19527   4.162   5.978   3.361
 6413SOL    HW119528   4.244   5.922   3.370
 6413SOL    HW219529   4.081   5.920   3.365
 6414SOL     OW19530   5.327   6.033   2.599
 6414SOL    HW119531   5.253   6.079   2.549
 6414SOL    HW219532   5.378   6.101   2.652
 6415SOL     OW19533   5.318   5.700   3.342
 6415SOL    HW119534   5.300   5.767   3.270
 6415SOL    HW219535   5.315   5.746   3.431
 6416SOL     OW19536   4.533   5.590   2.364
 6416SOL    HW119537   4.573   5.681   2.355
 6416SOL    HW219538   4.433   5.598   2.370
 6417SOL     OW19539   4.041   5.837   3.663
 6417SOL    HW119540   4.112   5.908   3.669
 6417SOL    HW219541   3.953   5.876   3.691
 6418SOL     OW19542   5.005   5.931   2.806
 6418SOL    HW119543   4.919   5.881   2.793
 6418SOL    HW219544   5.067   5.877   2.862
 6419SOL     OW19545   4.589   5.934   2.057
 6419SOL    HW119546   4.648   5.997   2.008
 6419SOL    HW219547   4.608   5.840   2.028
 6420SOL     OW19548   4.274   5.782   2.747
 6420SOL    HW119549   4.269   5.777   2.847
 6420SOL    HW219550   4.276   5.878   2.718
 6421SOL     OW19551   3.926   5.871   3.360
 6421SOL    HW119552   3.846   5.931   3.347
 6421SOL    HW219553   3.916   5.822   3.446
 6422SOL     OW19554   5.124   5.693   2.288
 6422SOL    HW119555   5.100   5.656   2.198
 6422SOL    HW219556   5.223   5.709   2.292
 6423SOL     OW19557   5.271   5.808   3.591
 6423SOL    HW119558   5.266   5.845   3.683
 6423SOL    HW219559   5.199   5.739   3.579
 6424SOL     OW19560   4.338   5.708   1.979
 6424SOL    HW119561   4.436   5.686   1.986
 6424SOL    HW219562   4.307   5.691   1.886
 6425SOL     OW19563   4.505   5.850   3.611
 6425SOL    HW119564   4.572   5.789   3.654
 6425SOL    HW219565   4.432   5.869   3.676
 6426SOL     OW19566   5.075   6.176   3.295
 6426SOL    HW119567   5.103   6.133   3.380
 6426SOL    HW219568   5.100   6.272   3.296
 6427SOL     OW19569   4.263   5.650   2.374
 6427SOL    HW119570   4.182   5.651   2.432
 6427SOL    HW219571   4.266   5.733   2.319
 6428SOL     OW19572   4.021   5.621   2.033
 6428SOL    HW119573   4.070   5.705   2.012
 6428SOL    HW219574   4.083   5.556   2.078
 6429SOL     OW19575   4.659   5.822   2.342
 6429SOL    HW119576   4.611   5.863   2.264
 6429SOL    HW219577   4.758   5.820   2.323
 6430SOL     OW19578   4.285   5.808   3.009
 6430SOL    HW119579   4.323   5.724   3.046
 6430SOL    HW219580   4.197   5.827   3.053
 6431SOL     OW19581   4.741   5.625   2.615
 6431SOL    HW119582   4.669   5.630   2.546
 6431SOL    HW219583   4.717   5.556   2.684
 6432SOL     OW19584   4.251   5.842   2.190
 6432SOL    HW119585   4.278   5.783   2.115
 6432SOL    HW219586   4.251   5.937   2.159
 6433SOL     OW19587   4.639   5.675   3.264
 6433SOL    HW119588   4.664   5.655   3.169
 6433SOL    HW219589   4.711   5.731   3.306
 6434SOL     OW19590   4.737   5.691   3.632
 6434SOL    HW119591   4.743   5.776   3.580
 6434SOL    HW219592   4.769   5.615   3.575
 6435SOL     OW19593   4.228   5.636   3.602
 6435SOL    HW119594   4.186   5.579   3.532
 6435SOL    HW219595   4.162   5.705   3.634
 6436SOL     OW19596   4.031   5.799   3.093
 6436SOL    HW119597   4.008   5.836   3.183
 6436SOL    HW219598   4.001   5.704   3.087
 6437SOL     OW19599   4.456   6.220   2.926
 6437SOL    HW119600   4.515   6.194   2.850
 6437SOL    HW219601   4.428   6.316   2.915
 6438SOL     OW19602   4.031   5.649   2.480
 6438SOL    HW119603   4.020   5.743   2.513
 6438SOL    HW219604   4.026   5.586   2.557
 6439SOL     OW19605   5.264   5.860   1.987
 6439SOL    HW119606   5.203   5.785   2.010
 6439SOL    HW219607   5.286   5.912   2.070
 6440SOL     OW19608   4.063   6.095   2.868
 6440SOL    HW119609   4.011   6.012   2.851
 6440SOL    HW219610   4.140   6.100   2.804
 6441SOL     OW19611   4.884   5.793   3.339
 6441SOL    HW119612   4.884   5.857   3.416
 6441SOL    HW219613   4.912   5.841   3.256
 6442SOL     OW19614   5.450   5.721   2.385
 6442SOL    HW119615   5.523   5.704   2.318
 6442SOL    HW219616   5.419   5.634   2.423
 6443SOL     OW19617   5.565   5.761   2.825
 6443SOL    HW119618   5.604   5.676   2.789
 6443SOL    HW219619   5.467   5.763   2.806
 6444SOL     OW19620   4.738   5.822   2.833
 6444SOL    HW119621   4.730   5.786   2.740
 6444SOL    HW219622   4.736   5.746   2.898
 6445SOL     OW19623   4.396   5.789   3.351
 6445SOL    HW119624   4.486   5.773   3.311
 6445SOL    HW219625   4.404   5.794   3.450
 6446SOL     OW19626   3.799   5.931   1.895
 6446SOL    HW119627   3.707   5.903   1.866
 6446SOL    HW219628   3.830   6.008   1.839
 6447SOL     OW19629   3.796   5.752   2.180
 6447SOL    HW119630   3.779   5.835   2.126
 6447SOL    HW219631   3.886   5.715   2.158
 6448SOL     OW19632   4.949   5.911   2.311
 6448SOL    HW119633   5.014   5.837   2.300
 6448SOL    HW219634   4.969   5.961   2.395
 6449SOL     OW19635   5.501   5.928   3.504
 6449SOL    HW119636   5.484   5.959   3.410
 6449SOL    HW219637   5.417   5.891   3.542
 6450SOL     OW19638   5.548   5.778   3.089
 6450SOL    HW119639   5.544   5.688   3.133
 6450SOL    HW219640   5.551   5.767   2.990
 6451SOL     OW19641   5.148   5.800   2.974
 6451SOL    HW119642   5.200   5.735   3.029
 6451SOL    HW219643   5.099   5.863   3.035
 6452SOL     OW19644   4.725   5.620   3.016
 6452SOL    HW119645   4.662   5.548   2.985
 6452SOL    HW219646   4.818   5.584   3.016
 6453SOL     OW19647   5.076   5.638   2.030
 6453SOL    HW119648   5.111   5.597   1.946
 6453SOL    HW219649   4.986   5.600   2.050
 6454SOL     OW19650   5.024   6.039   2.553
 6454SOL    HW119651   4.965   6.119   2.557
 6454SOL    HW219652   5.039   6.004   2.646
 6455SOL     OW19653   5.317   5.807   2.744
 6455SOL    HW119654   5.233   5.806   2.798
 6455SOL    HW219655   5.319   5.890   2.688
 6456SOL     OW19656   3.949   5.861   4.720
 6456SOL    HW119657   3.984   5.844   4.812
 6456SOL    HW219658   3.861   5.816   4.708
 6457SOL     OW19659   3.743   5.954   4.371
 6457SOL    HW119660   3.661   5.997   4.410
 6457SOL    HW219661   3.715   5.881   4.308
 6458SOL     OW19662   5.479   6.193   3.955
 6458SOL    HW119663   5.467   6.180   3.856
 6458SOL    HW219664   5.449   6.112   4.004
 6459SOL     OW19665   4.162   5.978   5.223
 6459SOL    HW119666   4.244   5.922   5.232
 6459SOL    HW219667   4.081   5.920   5.227
 6460SOL     OW19668   5.327   6.033   4.461
 6460SOL    HW119669   5.253   6.079   4.411
 6460SOL    HW219670   5.378   6.101   4.514
 6461SOL     OW19671   5.318   5.700   5.204
 6461SOL    HW119672   5.300   5.767   5.132
 6461SOL    HW219673   5.315   5.746   5.293
 6462SOL     OW19674   4.533   5.590   4.226
 6462SOL    HW119675   4.573   5.681   4.217
 6462SOL    HW219676   4.433   5.598   4.232
 6463SOL     OW19677   4.041   5.837   5.525
 6463SOL    HW119678   4.112   5.908   5.531
 6463SOL    HW219679   3.953   5.876   5.553
 6464SOL     OW19680   5.005   5.931   4.668
 6464SOL    HW119681   4.919   5.881   4.655
 6464SOL    HW219682   5.067   5.877   4.724
 6465SOL     OW19683   4.589   5.934   3.919
 6465SOL    HW119684   4.648   5.997   3.870
 6465SOL    HW219685   4.608   5.840   3.890
 6466SOL     OW19686   4.274   5.782   4.609
 6466SOL    HW119687   4.269   5.777   4.709
 6466SOL    HW219688   4.276   5.878   4.580
 6467SOL     OW19689   3.926   5.871   5.222
 6467SOL    HW119690   3.846   5.931   5.209
 6467SOL    HW219691   3.916   5.822   5.308
 6468SOL     OW19692   5.124   5.693   4.150
 6468SOL    HW119693   5.100   5.656   4.060
 6468SOL    HW219694   5.223   5.709   4.154
 6469SOL     OW19695   5.271   5.808   5.453
 6469SOL    HW119696   5.266   5.845   5.545
 6469SOL    HW219697   5.199   5.739   5.441
 6470SOL     OW19698   4.338   5.708   3.841
 6470SOL    HW119699   4.436   5.686   3.848
 6470SOL    HW219700   4.307   5.691   3.748
 6471SOL     OW19701   4.505   5.850   5.473
 6471SOL    HW119702   4.572   5.789   5.516
 6471SOL    HW219703   4.432   5.869   5.538
 6472SOL     OW19704   5.075   6.176   5.157
 6472SOL    HW119705   5.103   6.133   5.242
 6472SOL    HW219706   5.100   6.272   5.158
 6473SOL     OW19707   4.263   5.650   4.236
 6473SOL    HW119708   4.182   5.651   4.294
 6473SOL    HW219709   4.266   5.733   4.181
 6474SOL     OW19710   4.021   5.621   3.895
 6474SOL    HW119711   4.070   5.705   3.874
 6474SOL    HW219712   4.083   5.556   3.940
 6475SOL     OW19713   4.659   5.822   4.204
 6475SOL    HW119714   4.611   5.863   4.126
 6475SOL    HW219715   4.758   5.820   4.185
 6476SOL     OW19716   4.285   5.808   4.871
 6476SOL    HW119717   4.323   5.724   4.908
 6476SOL    HW219718   4.197   5.827   4.915
 6477SOL     OW19719   4.741   5.625   4.477
 6477SOL    HW119720   4.669   5.630   4.408
 6477SOL    HW219721   4.717   5.556   4.546
 6478SOL     OW19722   4.251   5.842   4.052
 6478SOL    HW119723   4.278   5.783   3.977
 6478SOL    HW219724   4.251   5.937   4.021
 6479SOL     OW19725   4.639   5.675   5.126
 6479SOL    HW119726   4.664   5.655   5.031
 6479SOL    HW219727   4.711   5.731   5.168
 6480SOL     OW19728   4.737   5.691   5.494
 6480SOL    HW119729   4.743   5.776   5.442
 6480SOL    HW219730   4.769   5.615   5.437
 6481SOL     OW19731   4.228   5.636   5.464
 6481SOL    HW119732   4.186   5.579   5.394
 6481SOL    HW219733   4.162   5.705   5.496
 6482SOL     OW19734   4.031   5.799   4.955
 6482SOL    HW119735   4.008   5.836   5.045
 6482SOL    HW219736   4.001   5.704   4.949
 6483SOL     OW19737   4.456   6.220   4.788
 6483SOL    HW119738   4.515   6.194   4.712
 6483SOL    HW219739   4.428   6.316   4.777
 6484SOL     OW19740   4.031   5.649   4.342
 6484SOL    HW119741   4.020   5.743   4.375
 6484SOL    HW219742   4.026   5.586   4.419
 6485SOL     OW19743   5.264   5.860   3.849
 6485SOL    HW119744   5.203   5.785   3.872
 6485SOL    HW219745   5.286   5.912   3.932
 6486SOL     OW19746   4.063   6.095   4.730
 6486SOL    HW119747   4.011   6.012   4.713
 6486SOL    HW219748   4.140   6.100   4.666
 6487SOL     OW19749   4.884   5.793   5.201
 6487SOL    HW119750   4.884   5.857   5.278
 6487SOL    HW219751   4.912   5.841   5.118
 6488SOL     OW19752   5.450   5.721   4.247
 6488SOL    HW119753   5.523   5.704   4.180
 6488SOL    HW219754   5.419   5.634   4.285
 6489SOL     OW19755   5.565   5.761   4.687
 6489SOL    HW119756   5.604   5.676   4.651
 6489SOL    HW219757   5.467   5.763   4.668
 6490SOL     OW19758   4.738   5.822   4.695
 6490SOL    HW119759   4.730   5.786   4.602
 6490SOL    HW219760   4.736   5.746   4.760
 6491SOL     OW19761   4.396   5.789   5.213
 6491SOL    HW119762   4.486   5.773   5.173
 6491SOL    HW219763   4.404   5.794   5.312
 6492SOL     OW19764   3.799   5.931   3.757
 6492SOL    HW119765   3.707   5.903   3.728
 6492SOL    HW219766   3.830   6.008   3.701
 6493SOL     OW19767   3.796   5.752   4.042
 6493SOL    HW119768   3.779   5.835   3.988
 6493SOL    HW219769   3.886   5.715   4.020
 6494SOL     OW19770   4.949   5.911   4.173
 6494SOL    HW119771   5.014   5.837   4.162
 6494SOL    HW219772   4.969   5.961   4.257
 6495SOL     OW19773   5.501   5.928   5.366
 6495SOL    HW119774   5.484   5.959   5.272
 6495SOL    HW219775   5.417   5.891   5.404
 6496SOL     OW19776   5.548   5.778   4.951
 6496SOL    HW119777   5.544   5.688   4.995
 6496SOL    HW219778   5.551   5.767   4.852
 6497SOL     OW19779   5.148   5.800   4.836
 6497SOL    HW119780   5.200   5.735   4.891
 6497SOL    HW219781   5.099   5.863   4.897
 6498SOL     OW19782   4.725   5.620   4.878
 6498SOL    HW119783   4.662   5.548   4.847
 6498SOL    HW219784   4.818   5.584   4.878
 6499SOL     OW19785   5.076   5.638   3.892
 6499SOL    HW119786   5.111   5.597   3.808
 6499SOL    HW219787   4.986   5.600   3.912
 6500SOL     OW19788   5.024   6.039   4.415
 6500SOL    HW119789   4.965   6.119   4.419
 6500SOL    HW219790   5.039   6.004   4.508
 6501SOL     OW19791   5.317   5.807   4.606
 6501SOL    HW119792   5.233   5.806   4.660
 6501SOL    HW219793   5.319   5.890   4.550
 6502SOL     OW19794   5.479   6.193   5.817
 6502SOL    HW119795   5.467   6.180   5.718
 6502SOL    HW219796   5.449   6.112   5.866
 6503SOL     OW19797   4.765   6.287   6.015
 6503SOL    HW119798   4.791   6.283   6.111
 6503SOL    HW219799   4.680   6.236   6.001
 6504SOL     OW19800   4.589   5.934   5.781
 6504SOL    HW119801   4.648   5.997   5.732
 6504SOL    HW219802   4.608   5.840   5.752
 6505SOL     OW19803   4.338   5.708   5.703
 6505SOL    HW119804   4.436   5.686   5.710
 6505SOL    HW219805   4.307   5.691   5.610
 6506SOL     OW19806   4.021   5.621   5.757
 6506SOL    HW119807   4.070   5.705   5.736
 6506SOL    HW219808   4.083   5.556   5.802
 6507SOL     OW19809   4.251   5.842   5.914
 6507SOL    HW119810   4.278   5.783   5.839
 6507SOL    HW219811   4.251   5.937   5.883
 6508SOL     OW19812   4.031   5.649   6.204
 6508SOL    HW119813   4.020   5.743   6.237
 6508SOL    HW219814   4.026   5.586   6.281
 6509SOL     OW19815   5.264   5.860   5.711
 6509SOL    HW119816   5.203   5.785   5.734
 6509SOL    HW219817   5.286   5.912   5.794
 6510SOL     OW19818   4.539   6.158   5.911
 6510SOL    HW119819   4.546   6.069   5.865
 6510SOL    HW219820   4.445   6.192   5.903
 6511SOL     OW19821   5.450   5.721   6.109
 6511SOL    HW119822   5.523   5.704   6.042
 6511SOL    HW219823   5.419   5.634   6.147
 6512SOL     OW19824   3.799   5.931   5.619
 6512SOL    HW119825   3.707   5.903   5.590
 6512SOL    HW219826   3.830   6.008   5.563
 6513SOL     OW19827   3.796   5.752   5.904
 6513SOL    HW119828   3.779   5.835   5.850
 6513SOL    HW219829   3.886   5.715   5.882
 6514SOL     OW19830   5.076   5.638   5.754
 6514SOL    HW119831   5.111   5.597   5.670
 6514SOL    HW219832   4.986   5.600   5.774
 6515SOL     OW19833   5.816   0.628   0.113
 6515SOL    HW119834   5.723   0.626   0.150
 6515SOL    HW219835   5.817   0.589   0.021
 6516SOL     OW19836   5.811   0.275   0.996
 6516SOL    HW119837   5.846   0.258   1.088
 6516SOL    HW219838   5.723   0.230   0.984
 6517SOL     OW19839   5.605   0.368   0.647
 6517SOL    HW119840   5.523   0.411   0.686
 6517SOL    HW219841   5.577   0.295   0.584
 6518SOL     OW19842   6.271   1.012   0.665
 6518SOL    HW119843   6.340   0.996   0.735
 6518SOL    HW219844   6.198   1.069   0.703
 6519SOL     OW19845   5.921   1.435   1.061
 6519SOL    HW119846   5.843   1.404   1.008
 6519SOL    HW219847   5.979   1.493   1.004
 6520SOL     OW19848   5.817   1.713   0.483
 6520SOL    HW119849   5.851   1.790   0.537
 6520SOL    HW219850   5.861   1.713   0.393
 6521SOL     OW19851   5.816   1.434   0.538
 6521SOL    HW119852   5.790   1.530   0.538
 6521SOL    HW219853   5.745   1.380   0.583
 6522SOL     OW19854   5.826   1.091   0.886
 6522SOL    HW119855   5.840   1.007   0.938
 6522SOL    HW219856   5.771   1.155   0.941
 6523SOL     OW19857   5.708   0.643   0.563
 6523SOL    HW119858   5.663   0.555   0.580
 6523SOL    HW219859   5.707   0.697   0.647
 6524SOL     OW19860   5.613   1.596   0.117
 6524SOL    HW119861   5.594   1.500   0.138
 6524SOL    HW219862   5.580   1.654   0.192
 6525SOL     OW19863   5.699   0.737   1.597
 6525SOL    HW119864   5.787   0.724   1.642
 6525SOL    HW219865   5.686   0.834   1.575
 6526SOL     OW19866   5.783   0.976   1.264
 6526SOL    HW119867   5.872   0.931   1.250
 6526SOL    HW219868   5.710   0.911   1.245
 6527SOL     OW19869   5.662   0.811   0.789
 6527SOL    HW119870   5.761   0.799   0.798
 6527SOL    HW219871   5.638   0.906   0.810
 6528SOL     OW19872   5.716   1.821   1.571
 6528SOL    HW119873   5.706   1.806   1.670
 6528SOL    HW219874   5.630   1.857   1.535
 6529SOL     OW19875   5.788   0.285   1.498
 6529SOL    HW119876   5.708   0.345   1.485
 6529SOL    HW219877   5.778   0.236   1.584
 6530SOL     OW19878   6.050   1.743   0.323
 6530SOL    HW119879   6.083   1.782   0.409
 6530SOL    HW219880   6.126   1.736   0.258
 6531SOL     OW19881   5.835   1.785   1.241
 6531SOL    HW119882   5.892   1.720   1.291
 6531SOL    HW219883   5.819   1.752   1.148
 6532SOL     OW19884   5.883   0.035   0.171
 6532SOL    HW119885   5.932   0.119   0.150
 6532SOL    HW219886   5.945  -0.030   0.216
 6533SOL     OW19887   5.664   0.556   1.386
 6533SOL    HW119888   5.756   0.555   1.345
 6533SOL    HW219889   5.658   0.630   1.453
 6534SOL     OW19890   5.650   1.564   1.331
 6534SOL    HW119891   5.604   1.646   1.297
 6534SOL    HW219892   5.748   1.583   1.340
 6535SOL     OW19893   6.152   0.537   0.865
 6535SOL    HW119894   6.164   0.603   0.791
 6535SOL    HW219895   6.198   0.571   0.948
 6536SOL     OW19896   5.893   0.213   1.231
 6536SOL    HW119897   5.870   0.250   1.321
 6536SOL    HW219898   5.863   0.118   1.225
 6537SOL     OW19899   5.623   1.310   1.282
 6537SOL    HW119900   5.676   1.261   1.350
 6537SOL    HW219901   5.645   1.408   1.287
 6538SOL     OW19902   5.905   0.810   0.949
 6538SOL    HW119903   5.998   0.846   0.954
 6538SOL    HW219904   5.899   0.725   1.001
 6539SOL     OW19905   5.674   1.801   0.927
 6539SOL    HW119906   5.632   1.715   0.900
 6539SOL    HW219907   5.768   1.804   0.893
 6540SOL     OW19908   6.090   1.568   0.910
 6540SOL    HW119909   6.156   1.642   0.919
 6540SOL    HW219910   6.134   1.489   0.868
 6541SOL     OW19911   5.626   0.544   1.114
 6541SOL    HW119912   5.711   0.511   1.073
 6541SOL    HW219913   5.639   0.559   1.212
 6542SOL     OW19914   5.775   0.520   1.722
 6542SOL    HW119915   5.834   0.480   1.652
 6542SOL    HW219916   5.717   0.591   1.681
 6543SOL     OW19917   5.838   1.564   1.744
 6543SOL    HW119918   5.808   1.621   1.820
 6543SOL    HW219919   5.831   1.467   1.770
 6544SOL     OW19920   5.745   1.137   1.466
 6544SOL    HW119921   5.767   1.076   1.542
 6544SOL    HW219922   5.755   1.088   1.380
 6545SOL     OW19923   5.669   1.258   1.022
 6545SOL    HW119924   5.664   1.257   1.122
 6545SOL    HW219925   5.586   1.217   0.984
 6546SOL     OW19926   5.716   1.794   1.851
 6546SOL    HW119927   5.675   1.720   1.904
 6546SOL    HW219928   5.780   1.845   1.909
 6547SOL     OW19929   5.958   1.288   1.490
 6547SOL    HW119930   5.945   1.381   1.456
 6547SOL    HW219931   5.874   1.236   1.477
 6548SOL     OW19932   5.691   1.013   1.726
 6548SOL    HW119933   5.614   0.980   1.780
 6548SOL    HW219934   5.776   0.983   1.768
 6549SOL     OW19935   5.661   0.345   0.033
 6549SOL    HW119936   5.569   0.317   0.004
 6549SOL    HW219937   5.692   0.422  -0.023
 6550SOL     OW19938   5.658   0.166   0.318
 6550SOL    HW119939   5.641   0.249   0.264
 6550SOL    HW219940   5.748   0.129   0.296
 6551SOL     OW19941   6.199   0.842   1.431
 6551SOL    HW119942   6.255   0.923   1.414
 6551SOL    HW219943   6.258   0.762   1.434
 6552SOL     OW19944   5.665   1.240   0.653
 6552SOL    HW119945   5.664   1.193   0.741
 6552SOL    HW219946   5.747   1.212   0.602
 6553SOL     OW19947   5.625   1.077   0.300
 6553SOL    HW119948   5.724   1.066   0.291
 6553SOL    HW219949   5.585   0.991   0.332
 6554SOL     OW19950   5.816   0.628   1.975
 6554SOL    HW119951   5.723   0.626   2.012
 6554SOL    HW219952   5.817   0.589   1.883
 6555SOL     OW19953   5.811   0.275   2.858
 6555SOL    HW119954   5.846   0.258   2.950
 6555SOL    HW219955   5.723   0.230   2.846
 6556SOL     OW19956   5.605   0.368   2.509
 6556SOL    HW119957   5.523   0.411   2.548
 6556SOL    HW219958   5.577   0.295   2.446
 6557SOL     OW19959   6.271   1.012   2.527
 6557SOL    HW119960   6.340   0.996   2.597
 6557SOL    HW219961   6.198   1.069   2.565
 6558SOL     OW19962   5.921   1.435   2.923
 6558SOL    HW119963   5.843   1.404   2.870
 6558SOL    HW219964   5.979   1.493   2.866
 6559SOL     OW19965   5.817   1.713   2.345
 6559SOL    HW119966   5.851   1.790   2.399
 6559SOL    HW219967   5.861   1.713   2.255
 6560SOL     OW19968   5.816   1.434   2.400
 6560SOL    HW119969   5.790   1.530   2.400
 6560SOL    HW219970   5.745   1.380   2.445
 6561SOL     OW19971   5.826   1.091   2.748
 6561SOL    HW119972   5.840   1.007   2.800
 6561SOL    HW219973   5.771   1.155   2.803
 6562SOL     OW19974   5.708   0.643   2.425
 6562SOL    HW119975   5.663   0.555   2.442
 6562SOL    HW219976   5.707   0.697   2.509
 6563SOL     OW19977   5.613   1.596   1.979
 6563SOL    HW119978   5.594   1.500   2.000
 6563SOL    HW219979   5.580   1.654   2.054
 6564SOL     OW19980   5.699   0.737   3.459
 6564SOL    HW119981   5.787   0.724   3.504
 6564SOL    HW219982   5.686   0.834   3.437
 6565SOL     OW19983   5.783   0.976   3.126
 6565SOL    HW119984   5.872   0.931   3.112
 6565SOL    HW219985   5.710   0.911   3.107
 6566SOL     OW19986   5.662   0.811   2.651
 6566SOL    HW119987   5.761   0.799   2.660
 6566SOL    HW219988   5.638   0.906   2.672
 6567SOL     OW19989   5.716   1.821   3.433
 6567SOL    HW119990   5.706   1.806   3.532
 6567SOL    HW219991   5.630   1.857   3.397
 6568SOL     OW19992   5.788   0.285   3.360
 6568SOL    HW119993   5.708   0.345   3.347
 6568SOL    HW219994   5.778   0.236   3.446
 6569SOL     OW19995   6.050   1.743   2.185
 6569SOL    HW119996   6.083   1.782   2.271
 6569SOL    HW219997   6.126   1.736   2.120
 6570SOL     OW19998   5.835   1.785   3.103
 6570SOL    HW119999   5.892   1.720   3.153
 6570SOL    HW220000   5.819   1.752   3.010
 6571SOL     OW20001   5.883   0.035   2.033
 6571SOL    HW120002   5.932   0.119   2.012
 6571SOL    HW220003   5.945  -0.030   2.078
 6572SOL     OW20004   5.664   0.556   3.248
 6572SOL    HW120005   5.756   0.555   3.207
 6572SOL    HW220006   5.658   0.630   3.315
 6573SOL     OW20007   5.650   1.564   3.193
 6573SOL    HW120008   5.604   1.646   3.159
 6573SOL    HW220009   5.748   1.583   3.202
 6574SOL     OW20010   6.152   0.537   2.727
 6574SOL    HW120011   6.164   0.603   2.653
 6574SOL    HW220012   6.198   0.571   2.810
 6575SOL     OW20013   5.893   0.213   3.093
 6575SOL    HW120014   5.870   0.250   3.183
 6575SOL    HW220015   5.863   0.118   3.087
 6576SOL     OW20016   5.623   1.310   3.144
 6576SOL    HW120017   5.676   1.261   3.212
 6576SOL    HW220018   5.645   1.408   3.149
 6577SOL     OW20019   5.905   0.810   2.811
 6577SOL    HW120020   5.998   0.846   2.816
 6577SOL    HW220021   5.899   0.725   2.863
 6578SOL     OW20022   5.594   1.326   2.062
 6578SOL    HW120023   5.501   1.347   2.031
 6578SOL    HW220024   5.604   1.227   2.075
 6579SOL     OW20025   5.674   1.801   2.789
 6579SOL    HW120026   5.632   1.715   2.762
 6579SOL    HW220027   5.768   1.804   2.755
 6580SOL     OW20028   6.090   1.568   2.772
 6580SOL    HW120029   6.156   1.642   2.781
 6580SOL    HW220030   6.134   1.489   2.730
 6581SOL     OW20031   5.626   0.544   2.976
 6581SOL    HW120032   5.711   0.511   2.935
 6581SOL    HW220033   5.639   0.559   3.074
 6582SOL     OW20034   5.775   0.520   3.584
 6582SOL    HW120035   5.834   0.480   3.514
 6582SOL    HW220036   5.717   0.591   3.543
 6583SOL     OW20037   5.838   1.564   3.606
 6583SOL    HW120038   5.808   1.621   3.682
 6583SOL    HW220039   5.831   1.467   3.632
 6584SOL     OW20040   5.745   1.137   3.328
 6584SOL    HW120041   5.767   1.076   3.404
 6584SOL    HW220042   5.755   1.088   3.242
 6585SOL     OW20043   5.669   1.258   2.884
 6585SOL    HW120044   5.664   1.257   2.984
 6585SOL    HW220045   5.586   1.217   2.846
 6586SOL     OW20046   5.716   1.794   3.713
 6586SOL    HW120047   5.675   1.720   3.766
 6586SOL    HW220048   5.780   1.845   3.771
 6587SOL     OW20049   5.958   1.288   3.352
 6587SOL    HW120050   5.945   1.381   3.318
 6587SOL    HW220051   5.874   1.236   3.339
 6588SOL     OW20052   5.691   1.013   3.588
 6588SOL    HW120053   5.614   0.980   3.642
 6588SOL    HW220054   5.776   0.983   3.630
 6589SOL     OW20055   5.661   0.345   1.895
 6589SOL    HW120056   5.569   0.317   1.866
 6589SOL    HW220057   5.692   0.422   1.839
 6590SOL     OW20058   5.658   0.166   2.180
 6590SOL    HW120059   5.641   0.249   2.126
 6590SOL    HW220060   5.748   0.129   2.158
 6591SOL     OW20061   6.199   0.842   3.293
 6591SOL    HW120062   6.255   0.923   3.276
 6591SOL    HW220063   6.258   0.762   3.296
 6592SOL     OW20064   5.665   1.240   2.515
 6592SOL    HW120065   5.664   1.193   2.603
 6592SOL    HW220066   5.747   1.212   2.464
 6593SOL     OW20067   5.625   1.077   2.162
 6593SOL    HW120068   5.724   1.066   2.153
 6593SOL    HW220069   5.585   0.991   2.194
 6594SOL     OW20070   5.816   0.628   3.837
 6594SOL    HW120071   5.723   0.626   3.874
 6594SOL    HW220072   5.817   0.589   3.745
 6595SOL     OW20073   5.811   0.275   4.720
 6595SOL    HW120074   5.846   0.258   4.812
 6595SOL    HW220075   5.723   0.230   4.708
 6596SOL     OW20076   5.605   0.368   4.371
 6596SOL    HW120077   5.523   0.411   4.410
 6596SOL    HW220078   5.577   0.295   4.308
 6597SOL     OW20079   6.271   1.012   4.389
 6597SOL    HW120080   6.340   0.996   4.459
 6597SOL    HW220081   6.198   1.069   4.427
 6598SOL     OW20082   5.921   1.435   4.785
 6598SOL    HW120083   5.843   1.404   4.732
 6598SOL    HW220084   5.979   1.493   4.728
 6599SOL     OW20085   5.817   1.713   4.207
 6599SOL    HW120086   5.851   1.790   4.261
 6599SOL    HW220087   5.861   1.713   4.117
 6600SOL     OW20088   5.816   1.434   4.262
 6600SOL    HW120089   5.790   1.530   4.262
 6600SOL    HW220090   5.745   1.380   4.307
 6601SOL     OW20091   5.826   1.091   4.610
 6601SOL    HW120092   5.840   1.007   4.662
 6601SOL    HW220093   5.771   1.155   4.665
 6602SOL     OW20094   5.708   0.643   4.287
 6602SOL    HW120095   5.663   0.555   4.304
 6602SOL    HW220096   5.707   0.697   4.371
 6603SOL     OW20097   5.613   1.596   3.841
 6603SOL    HW120098   5.594   1.500   3.862
 6603SOL    HW220099   5.580   1.654   3.916
 6604SOL     OW20100   5.699   0.737   5.321
 6604SOL    HW120101   5.787   0.724   5.366
 6604SOL    HW220102   5.686   0.834   5.299
 6605SOL     OW20103   5.783   0.976   4.988
 6605SOL    HW120104   5.872   0.931   4.974
 6605SOL    HW220105   5.710   0.911   4.969
 6606SOL     OW20106   5.662   0.811   4.513
 6606SOL    HW120107   5.761   0.799   4.522
 6606SOL    HW220108   5.638   0.906   4.534
 6607SOL     OW20109   5.716   1.821   5.295
 6607SOL    HW120110   5.706   1.806   5.394
 6607SOL    HW220111   5.630   1.857   5.259
 6608SOL     OW20112   5.788   0.285   5.222
 6608SOL    HW120113   5.708   0.345   5.209
 6608SOL    HW220114   5.778   0.236   5.308
 6609SOL     OW20115   6.050   1.743   4.047
 6609SOL    HW120116   6.083   1.782   4.133
 6609SOL    HW220117   6.126   1.736   3.982
 6610SOL     OW20118   5.835   1.785   4.965
 6610SOL    HW120119   5.892   1.720   5.015
 6610SOL    HW220120   5.819   1.752   4.872
 6611SOL     OW20121   5.883   0.035   3.895
 6611SOL    HW120122   5.932   0.119   3.874
 6611SOL    HW220123   5.945  -0.030   3.940
 6612SOL     OW20124   5.664   0.556   5.110
 6612SOL    HW120125   5.756   0.555   5.069
 6612SOL    HW220126   5.658   0.630   5.177
 6613SOL     OW20127   5.650   1.564   5.055
 6613SOL    HW120128   5.604   1.646   5.021
 6613SOL    HW220129   5.748   1.583   5.064
 6614SOL     OW20130   6.152   0.537   4.589
 6614SOL    HW120131   6.164   0.603   4.515
 6614SOL    HW220132   6.198   0.571   4.672
 6615SOL     OW20133   5.893   0.213   4.955
 6615SOL    HW120134   5.870   0.250   5.045
 6615SOL    HW220135   5.863   0.118   4.949
 6616SOL     OW20136   5.623   1.310   5.006
 6616SOL    HW120137   5.676   1.261   5.074
 6616SOL    HW220138   5.645   1.408   5.011
 6617SOL     OW20139   5.905   0.810   4.673
 6617SOL    HW120140   5.998   0.846   4.678
 6617SOL    HW220141   5.899   0.725   4.725
 6618SOL     OW20142   5.594   1.326   3.924
 6618SOL    HW120143   5.501   1.347   3.893
 6618SOL    HW220144   5.604   1.227   3.937
 6619SOL     OW20145   5.674   1.801   4.651
 6619SOL    HW120146   5.632   1.715   4.624
 6619SOL    HW220147   5.768   1.804   4.617
 6620SOL     OW20148   6.090   1.568   4.634
 6620SOL    HW120149   6.156   1.642   4.643
 6620SOL    HW220150   6.134   1.489   4.592
 6621SOL     OW20151   5.626   0.544   4.838
 6621SOL    HW120152   5.711   0.511   4.797
 6621SOL    HW220153   5.639   0.559   4.936
 6622SOL     OW20154   5.775   0.520   5.446
 6622SOL    HW120155   5.834   0.480   5.376
 6622SOL    HW220156   5.717   0.591   5.405
 6623SOL     OW20157   5.838   1.564   5.468
 6623SOL    HW120158   5.808   1.621   5.544
 6623SOL    HW220159   5.831   1.467   5.494
 6624SOL     OW20160   5.745   1.137   5.190
 6624SOL    HW120161   5.767   1.076   5.266
 6624SOL    HW220162   5.755   1.088   5.104
 6625SOL     OW20163   5.669   1.258   4.746
 6625SOL    HW120164   5.664   1.257   4.846
 6625SOL    HW220165   5.586   1.217   4.708
 6626SOL     OW20166   5.716   1.794   5.575
 6626SOL    HW120167   5.675   1.720   5.628
 6626SOL    HW220168   5.780   1.845   5.633
 6627SOL     OW20169   5.958   1.288   5.214
 6627SOL    HW120170   5.945   1.381   5.180
 6627SOL    HW220171   5.874   1.236   5.201
 6628SOL     OW20172   5.691   1.013   5.450
 6628SOL    HW120173   5.614   0.980   5.504
 6628SOL    HW220174   5.776   0.983   5.492
 6629SOL     OW20175   5.661   0.345   3.757
 6629SOL    HW120176   5.569   0.317   3.728
 6629SOL    HW220177   5.692   0.422   3.701
 6630SOL     OW20178   5.658   0.166   4.042
 6630SOL    HW120179   5.641   0.249   3.988
 6630SOL    HW220180   5.748   0.129   4.020
 6631SOL     OW20181   6.199   0.842   5.155
 6631SOL    HW120182   6.255   0.923   5.138
 6631SOL    HW220183   6.258   0.762   5.158
 6632SOL     OW20184   5.665   1.240   4.377
 6632SOL    HW120185   5.664   1.193   4.465
 6632SOL    HW220186   5.747   1.212   4.326
 6633SOL     OW20187   5.625   1.077   4.024
 6633SOL    HW120188   5.724   1.066   4.015
 6633SOL    HW220189   5.585   0.991   4.056
 6634SOL     OW20190   5.816   0.628   5.699
 6634SOL    HW120191   5.723   0.626   5.736
 6634SOL    HW220192   5.817   0.589   5.607
 6635SOL     OW20193   5.817   1.713   6.069
 6635SOL    HW120194   5.851   1.790   6.123
 6635SOL    HW220195   5.861   1.713   5.979
 6636SOL     OW20196   5.613   1.596   5.703
 6636SOL    HW120197   5.594   1.500   5.724
 6636SOL    HW220198   5.580   1.654   5.778
 6637SOL     OW20199   6.050   1.743   5.909
 6637SOL    HW120200   6.083   1.782   5.995
 6637SOL    HW220201   6.126   1.736   5.844
 6638SOL     OW20202   5.883   0.035   5.757
 6638SOL    HW120203   5.932   0.119   5.736
 6638SOL    HW220204   5.945  -0.030   5.802
 6639SOL     OW20205   5.594   1.326   5.786
 6639SOL    HW120206   5.501   1.347   5.755
 6639SOL    HW220207   5.604   1.227   5.799
 6640SOL     OW20208   5.661   0.345   5.619
 6640SOL    HW120209   5.569   0.317   5.590
 6640SOL    HW220210   5.692   0.422   5.563
 6641SOL     OW20211   5.658   0.166   5.904
 6641SOL    HW120212   5.641   0.249   5.850
 6641SOL    HW220213   5.748   0.129   5.882
 6642SOL     OW20214   5.625   1.077   5.886
 6642SOL    HW120215   5.724   1.066   5.877
 6642SOL    HW220216   5.585   0.991   5.918
 6643SOL     OW20217   5.816   2.490   0.113
 6643SOL    HW120218   5.723   2.488   0.150
 6643SOL    HW220219   5.817   2.451   0.021
 6644SOL     OW20220   5.811   2.137   0.996
 6644SOL    HW120221   5.846   2.120   1.088
 6644SOL    HW220222   5.723   2.092   0.984
 6645SOL     OW20223   5.605   2.230   0.647
 6645SOL    HW120224   5.523   2.273   0.686
 6645SOL    HW220225   5.577   2.157   0.584
 6646SOL     OW20226   6.271   2.874   0.665
 6646SOL    HW120227   6.340   2.858   0.735
 6646SOL    HW220228   6.198   2.931   0.703
 6647SOL     OW20229   5.921   3.297   1.061
 6647SOL    HW120230   5.843   3.266   1.008
 6647SOL    HW220231   5.979   3.355   1.004
 6648SOL     OW20232   5.817   3.575   0.483
 6648SOL    HW120233   5.851   3.652   0.537
 6648SOL    HW220234   5.861   3.575   0.393
 6649SOL     OW20235   5.816   3.296   0.538
 6649SOL    HW120236   5.790   3.392   0.538
 6649SOL    HW220237   5.745   3.242   0.583
 6650SOL     OW20238   5.826   2.953   0.886
 6650SOL    HW120239   5.840   2.869   0.938
 6650SOL    HW220240   5.771   3.017   0.941
 6651SOL     OW20241   5.708   2.505   0.563
 6651SOL    HW120242   5.663   2.417   0.580
 6651SOL    HW220243   5.707   2.559   0.647
 6652SOL     OW20244   5.613   3.458   0.117
 6652SOL    HW120245   5.594   3.362   0.138
 6652SOL    HW220246   5.580   3.516   0.192
 6653SOL     OW20247   5.699   2.599   1.597
 6653SOL    HW120248   5.787   2.586   1.642
 6653SOL    HW220249   5.686   2.696   1.575
 6654SOL     OW20250   5.783   2.838   1.264
 6654SOL    HW120251   5.872   2.793   1.250
 6654SOL    HW220252   5.710   2.773   1.245
 6655SOL     OW20253   5.662   2.673   0.789
 6655SOL    HW120254   5.761   2.661   0.798
 6655SOL    HW220255   5.638   2.768   0.810
 6656SOL     OW20256   5.716   3.683   1.571
 6656SOL    HW120257   5.706   3.668   1.670
 6656SOL    HW220258   5.630   3.719   1.535
 6657SOL     OW20259   5.788   2.147   1.498
 6657SOL    HW120260   5.708   2.207   1.485
 6657SOL    HW220261   5.778   2.098   1.584
 6658SOL     OW20262   6.050   3.605   0.323
 6658SOL    HW120263   6.083   3.644   0.409
 6658SOL    HW220264   6.126   3.598   0.258
 6659SOL     OW20265   5.835   3.647   1.241
 6659SOL    HW120266   5.892   3.582   1.291
 6659SOL    HW220267   5.819   3.614   1.148
 6660SOL     OW20268   5.664   2.418   1.386
 6660SOL    HW120269   5.756   2.417   1.345
 6660SOL    HW220270   5.658   2.492   1.453
 6661SOL     OW20271   5.650   3.426   1.331
 6661SOL    HW120272   5.604   3.508   1.297
 6661SOL    HW220273   5.748   3.445   1.340
 6662SOL     OW20274   6.152   2.399   0.865
 6662SOL    HW120275   6.164   2.465   0.791
 6662SOL    HW220276   6.198   2.433   0.948
 6663SOL     OW20277   5.893   2.075   1.231
 6663SOL    HW120278   5.870   2.112   1.321
 6663SOL    HW220279   5.863   1.980   1.225
 6664SOL     OW20280   5.623   3.172   1.282
 6664SOL    HW120281   5.676   3.123   1.350
 6664SOL    HW220282   5.645   3.270   1.287
 6665SOL     OW20283   5.893   1.925   0.618
 6665SOL    HW120284   5.882   2.019   0.651
 6665SOL    HW220285   5.888   1.862   0.695
 6666SOL     OW20286   5.905   2.672   0.949
 6666SOL    HW120287   5.998   2.708   0.954
 6666SOL    HW220288   5.899   2.587   1.001
 6667SOL     OW20289   5.674   3.663   0.927
 6667SOL    HW120290   5.632   3.577   0.900
 6667SOL    HW220291   5.768   3.666   0.893
 6668SOL     OW20292   6.090   3.430   0.910
 6668SOL    HW120293   6.156   3.504   0.919
 6668SOL    HW220294   6.134   3.351   0.868
 6669SOL     OW20295   5.626   2.406   1.114
 6669SOL    HW120296   5.711   2.373   1.073
 6669SOL    HW220297   5.639   2.421   1.212
 6670SOL     OW20298   5.775   2.382   1.722
 6670SOL    HW120299   5.834   2.342   1.652
 6670SOL    HW220300   5.717   2.453   1.681
 6671SOL     OW20301   5.838   3.426   1.744
 6671SOL    HW120302   5.808   3.483   1.820
 6671SOL    HW220303   5.831   3.329   1.770
 6672SOL     OW20304   5.745   2.999   1.466
 6672SOL    HW120305   5.767   2.938   1.542
 6672SOL    HW220306   5.755   2.950   1.380
 6673SOL     OW20307   5.669   3.120   1.022
 6673SOL    HW120308   5.664   3.119   1.122
 6673SOL    HW220309   5.586   3.079   0.984
 6674SOL     OW20310   5.716   3.656   1.851
 6674SOL    HW120311   5.675   3.582   1.904
 6674SOL    HW220312   5.780   3.707   1.909
 6675SOL     OW20313   5.958   3.150   1.490
 6675SOL    HW120314   5.945   3.243   1.456
 6675SOL    HW220315   5.874   3.098   1.477
 6676SOL     OW20316   5.691   2.875   1.726
 6676SOL    HW120317   5.614   2.842   1.780
 6676SOL    HW220318   5.776   2.845   1.768
 6677SOL     OW20319   5.661   2.207   0.033
 6677SOL    HW120320   5.569   2.179   0.004
 6677SOL    HW220321   5.692   2.284  -0.023
 6678SOL     OW20322   5.658   2.028   0.318
 6678SOL    HW120323   5.641   2.111   0.264
 6678SOL    HW220324   5.748   1.991   0.296
 6679SOL     OW20325   6.199   2.704   1.431
 6679SOL    HW120326   6.255   2.785   1.414
 6679SOL    HW220327   6.258   2.624   1.434
 6680SOL     OW20328   5.665   3.102   0.653
 6680SOL    HW120329   5.664   3.055   0.741
 6680SOL    HW220330   5.747   3.074   0.602
 6681SOL     OW20331   5.625   2.939   0.300
 6681SOL    HW120332   5.724   2.928   0.291
 6681SOL    HW220333   5.585   2.853   0.332
 6682SOL     OW20334   5.816   2.490   1.975
 6682SOL    HW120335   5.723   2.488   2.012
 6682SOL    HW220336   5.817   2.451   1.883
 6683SOL     OW20337   5.811   2.137   2.858
 6683SOL    HW120338   5.846   2.120   2.950
 6683SOL    HW220339   5.723   2.092   2.846
 6684SOL     OW20340   5.605   2.230   2.509
 6684SOL    HW120341   5.523   2.273   2.548
 6684SOL    HW220342   5.577   2.157   2.446
 6685SOL     OW20343   6.271   2.874   2.527
 6685SOL    HW120344   6.340   2.858   2.597
 6685SOL    HW220345   6.198   2.931   2.565
 6686SOL     OW20346   5.921   3.297   2.923
 6686SOL    HW120347   5.843   3.266   2.870
 6686SOL    HW220348   5.979   3.355   2.866
 6687SOL     OW20349   5.817   3.575   2.345
 6687SOL    HW120350   5.851   3.652   2.399
 6687SOL    HW220351   5.861   3.575   2.255
 6688SOL     OW20352   5.816   3.296   2.400
 6688SOL    HW120353   5.790   3.392   2.400
 6688SOL    HW220354   5.745   3.242   2.445
 6689SOL     OW20355   5.826   2.953   2.748
 6689SOL    HW120356   5.840   2.869   2.800
 6689SOL    HW220357   5.771   3.017   2.803
 6690SOL     OW20358   5.708   2.505   2.425
 6690SOL    HW120359   5.663   2.417   2.442
 6690SOL    HW220360   5.707   2.559   2.509
 6691SOL     OW20361   5.613   3.458   1.979
 6691SOL    HW120362   5.594   3.362   2.000
 6691SOL    HW220363   5.580   3.516   2.054
 6692SOL     OW20364   5.699   2.599   3.459
 6692SOL    HW120365   5.787   2.586   3.504
 6692SOL    HW220366   5.686   2.696   3.437
 6693SOL     OW20367   5.783   2.838   3.126
 6693SOL    HW120368   5.872   2.793   3.112
 6693SOL    HW220369   5.710   2.773   3.107
 6694SOL     OW20370   5.662   2.673   2.651
 6694SOL    HW120371   5.761   2.661   2.660
 6694SOL    HW220372   5.638   2.768   2.672
 6695SOL     OW20373   5.716   3.683   3.433
 6695SOL    HW120374   5.706   3.668   3.532
 6695SOL    HW220375   5.630   3.719   3.397
 6696SOL     OW20376   5.788   2.147   3.360
 6696SOL    HW120377   5.708   2.207   3.347
 6696SOL    HW220378   5.778   2.098   3.446
 6697SOL     OW20379   6.050   3.605   2.185
 6697SOL    HW120380   6.083   3.644   2.271
 6697SOL    HW220381   6.126   3.598   2.120
 6698SOL     OW20382   5.835   3.647   3.103
 6698SOL    HW120383   5.892   3.582   3.153
 6698SOL    HW220384   5.819   3.614   3.010
 6699SOL     OW20385   5.883   1.897   2.033
 6699SOL    HW120386   5.932   1.981   2.012
 6699SOL    HW220387   5.945   1.832   2.078
 6700SOL     OW20388   5.664   2.418   3.248
 6700SOL    HW120389   5.756   2.417   3.207
 6700SOL    HW220390   5.658   2.492   3.315
 6701SOL     OW20391   5.650   3.426   3.193
 6701SOL    HW120392   5.604   3.508   3.159
 6701SOL    HW220393   5.748   3.445   3.202
 6702SOL     OW20394   6.152   2.399   2.727
 6702SOL    HW120395   6.164   2.465   2.653
 6702SOL    HW220396   6.198   2.433   2.810
 6703SOL     OW20397   5.893   2.075   3.093
 6703SOL    HW120398   5.870   2.112   3.183
 6703SOL    HW220399   5.863   1.980   3.087
 6704SOL     OW20400   5.623   3.172   3.144
 6704SOL    HW120401   5.676   3.123   3.212
 6704SOL    HW220402   5.645   3.270   3.149
 6705SOL     OW20403   5.893   1.925   2.480
 6705SOL    HW120404   5.882   2.019   2.513
 6705SOL    HW220405   5.888   1.862   2.557
 6706SOL     OW20406   5.905   2.672   2.811
 6706SOL    HW120407   5.998   2.708   2.816
 6706SOL    HW220408   5.899   2.587   2.863
 6707SOL     OW20409   5.594   3.188   2.062
 6707SOL    HW120410   5.501   3.209   2.031
 6707SOL    HW220411   5.604   3.089   2.075
 6708SOL     OW20412   5.674   3.663   2.789
 6708SOL    HW120413   5.632   3.577   2.762
 6708SOL    HW220414   5.768   3.666   2.755
 6709SOL     OW20415   6.090   3.430   2.772
 6709SOL    HW120416   6.156   3.504   2.781
 6709SOL    HW220417   6.134   3.351   2.730
 6710SOL     OW20418   5.626   2.406   2.976
 6710SOL    HW120419   5.711   2.373   2.935
 6710SOL    HW220420   5.639   2.421   3.074
 6711SOL     OW20421   5.775   2.382   3.584
 6711SOL    HW120422   5.834   2.342   3.514
 6711SOL    HW220423   5.717   2.453   3.543
 6712SOL     OW20424   5.838   3.426   3.606
 6712SOL    HW120425   5.808   3.483   3.682
 6712SOL    HW220426   5.831   3.329   3.632
 6713SOL     OW20427   5.745   2.999   3.328
 6713SOL    HW120428   5.767   2.938   3.404
 6713SOL    HW220429   5.755   2.950   3.242
 6714SOL     OW20430   5.669   3.120   2.884
 6714SOL    HW120431   5.664   3.119   2.984
 6714SOL    HW220432   5.586   3.079   2.846
 6715SOL     OW20433   5.716   3.656   3.713
 6715SOL    HW120434   5.675   3.582   3.766
 6715SOL    HW220435   5.780   3.707   3.771
 6716SOL     OW20436   5.958   3.150   3.352
 6716SOL    HW120437   5.945   3.243   3.318
 6716SOL    HW220438   5.874   3.098   3.339
 6717SOL     OW20439   5.691   2.875   3.588
 6717SOL    HW120440   5.614   2.842   3.642
 6717SOL    HW220441   5.776   2.845   3.630
 6718SOL     OW20442   5.661   2.207   1.895
 6718SOL    HW120443   5.569   2.179   1.866
 6718SOL    HW220444   5.692   2.284   1.839
 6719SOL     OW20445   5.658   2.028   2.180
 6719SOL    HW120446   5.641   2.111   2.126
 6719SOL    HW220447   5.748   1.991   2.158
 6720SOL     OW20448   6.199   2.704   3.293
 6720SOL    HW120449   6.255   2.785   3.276
 6720SOL    HW220450   6.258   2.624   3.296
 6721SOL     OW20451   5.665   3.102   2.515
 6721SOL    HW120452   5.664   3.055   2.603
 6721SOL    HW220453   5.747   3.074   2.464
 6722SOL     OW20454   5.625   2.939   2.162
 6722SOL    HW120455   5.724   2.928   2.153
 6722SOL    HW220456   5.585   2.853   2.194
 6723SOL     OW20457   5.816   2.490   3.837
 6723SOL    HW120458   5.723   2.488   3.874
 6723SOL    HW220459   5.817   2.451   3.745
 6724SOL     OW20460   5.811   2.137   4.720
 6724SOL    HW120461   5.846   2.120   4.812
 6724SOL    HW220462   5.723   2.092   4.708
 6725SOL     OW20463   5.605   2.230   4.371
 6725SOL    HW120464   5.523   2.273   4.410
 6725SOL    HW220465   5.577   2.157   4.308
 6726SOL     OW20466   6.271   2.874   4.389
 6726SOL    HW120467   6.340   2.858   4.459
 6726SOL    HW220468   6.198   2.931   4.427
 6727SOL     OW20469   5.921   3.297   4.785
 6727SOL    HW120470   5.843   3.266   4.732
 6727SOL    HW220471   5.979   3.355   4.728
 6728SOL     OW20472   5.817   3.575   4.207
 6728SOL    HW120473   5.851   3.652   4.261
 6728SOL    HW220474   5.861   3.575   4.117
 6729SOL     OW20475   5.816   3.296   4.262
 6729SOL    HW120476   5.790   3.392   4.262
 6729SOL    HW220477   5.745   3.242   4.307
 6730SOL     OW20478   5.826   2.953   4.610
 6730SOL    HW120479   5.840   2.869   4.662
 6730SOL    HW220480   5.771   3.017   4.665
 6731SOL     OW20481   5.708   2.505   4.287
 6731SOL    HW120482   5.663   2.417   4.304
 6731SOL    HW220483   5.707   2.559   4.371
 6732SOL     OW20484   5.613   3.458   3.841
 6732SOL    HW120485   5.594   3.362   3.862
 6732SOL    HW220486   5.580   3.516   3.916
 6733SOL     OW20487   5.699   2.599   5.321
 6733SOL    HW120488   5.787   2.586   5.366
 6733SOL    HW220489   5.686   2.696   5.299
 6734SOL     OW20490   5.783   2.838   4.988
 6734SOL    HW120491   5.872   2.793   4.974
 6734SOL    HW220492   5.710   2.773   4.969
 6735SOL     OW20493   5.662   2.673   4.513
 6735SOL    HW120494   5.761   2.661   4.522
 6735SOL    HW220495   5.638   2.768   4.534
 6736SOL     OW20496   5.716   3.683   5.295
 6736SOL    HW120497   5.706   3.668   5.394
 6736SOL    HW220498   5.630   3.719   5.259
 6737SOL     OW20499   5.788   2.147   5.222
 6737SOL    HW120500   5.708   2.207   5.209
 6737SOL    HW220501   5.778   2.098   5.308
 6738SOL     OW20502   6.050   3.605   4.047
 6738SOL    HW120503   6.083   3.644   4.133
 6738SOL    HW220504   6.126   3.598   3.982
 6739SOL     OW20505   5.835   3.647   4.965
 6739SOL    HW120506   5.892   3.582   5.015
 6739SOL    HW220507   5.819   3.614   4.872
 6740SOL     OW20508   5.883   1.897   3.895
 6740SOL    HW120509   5.932   1.981   3.874
 6740SOL    HW220510   5.945   1.832   3.940
 6741SOL     OW20511   5.664   2.418   5.110
 6741SOL    HW120512   5.756   2.417   5.069
 6741SOL    HW220513   5.658   2.492   5.177
 6742SOL     OW20514   5.650   3.426   5.055
 6742SOL    HW120515   5.604   3.508   5.021
 6742SOL    HW220516   5.748   3.445   5.064
 6743SOL     OW20517   6.152   2.399   4.589
 6743SOL    HW120518   6.164   2.465   4.515
 6743SOL    HW220519   6.198   2.433   4.672
 6744SOL     OW20520   5.893   2.075   4.955
 6744SOL    HW120521   5.870   2.112   5.045
 6744SOL    HW220522   5.863   1.980   4.949
 6745SOL     OW20523   5.623   3.172   5.006
 6745SOL    HW120524   5.676   3.123   5.074
 6745SOL    HW220525   5.645   3.270   5.011
 6746SOL     OW20526   5.893   1.925   4.342
 6746SOL    HW120527   5.882   2.019   4.375
 6746SOL    HW220528   5.888   1.862   4.419
 6747SOL     OW20529   5.905   2.672   4.673
 6747SOL    HW120530   5.998   2.708   4.678
 6747SOL    HW220531   5.899   2.587   4.725
 6748SOL     OW20532   5.594   3.188   3.924
 6748SOL    HW120533   5.501   3.209   3.893
 6748SOL    HW220534   5.604   3.089   3.937
 6749SOL     OW20535   5.674   3.663   4.651
 6749SOL    HW120536   5.632   3.577   4.624
 6749SOL    HW220537   5.768   3.666   4.617
 6750SOL     OW20538   6.090   3.430   4.634
 6750SOL    HW120539   6.156   3.504   4.643
 6750SOL    HW220540   6.134   3.351   4.592
 6751SOL     OW20541   5.626   2.406   4.838
 6751SOL    HW120542   5.711   2.373   4.797
 6751SOL    HW220543   5.639   2.421   4.936
 6752SOL     OW20544   5.775   2.382   5.446
 6752SOL    HW120545   5.834   2.342   5.376
 6752SOL    HW220546   5.717   2.453   5.405
 6753SOL     OW20547   5.838   3.426   5.468
 6753SOL    HW120548   5.808   3.483   5.544
 6753SOL    HW220549   5.831   3.329   5.494
 6754SOL     OW20550   5.745   2.999   5.190
 6754SOL    HW120551   5.767   2.938   5.266
 6754SOL    HW220552   5.755   2.950   5.104
 6755SOL     OW20553   5.669   3.120   4.746
 6755SOL    HW120554   5.664   3.119   4.846
 6755SOL    HW220555   5.586   3.079   4.708
 6756SOL     OW20556   5.716   3.656   5.575
 6756SOL    HW120557   5.675   3.582   5.628
 6756SOL    HW220558   5.780   3.707   5.633
 6757SOL     OW20559   5.958   3.150   5.214
 6757SOL    HW120560   5.945   3.243   5.180
 6757SOL    HW220561   5.874   3.098   5.201
 6758SOL     OW20562   5.691   2.875   5.450
 6758SOL    HW120563   5.614   2.842   5.504
 6758SOL    HW220564   5.776   2.845   5.492
 6759SOL     OW20565   5.661   2.207   3.757
 6759SOL    HW120566   5.569   2.179   3.728
 6759SOL    HW220567   5.692   2.284   3.701
 6760SOL     OW20568   5.658   2.028   4.042
 6760SOL    HW120569   5.641   2.111   3.988
 6760SOL    HW220570   5.748   1.991   4.020
 6761SOL     OW20571   6.199   2.704   5.155
 6761SOL    HW120572   6.255   2.785   5.138
 6761SOL    HW220573   6.258   2.624   5.158
 6762SOL     OW20574   5.665   3.102   4.377
 6762SOL    HW120575   5.664   3.055   4.465
 6762SOL    HW220576   5.747   3.074   4.326
 6763SOL     OW20577   5.625   2.939   4.024
 6763SOL    HW120578   5.724   2.928   4.015
 6763SOL    HW220579   5.585   2.853   4.056
 6764SOL     OW20580   5.816   2.490   5.699
 6764SOL    HW120581   5.723   2.488   5.736
 6764SOL    HW220582   5.817   2.451   5.607
 6765SOL     OW20583   5.817   3.575   6.069
 6765SOL    HW120584   5.851   3.652   6.123
 6765SOL    HW220585   5.861   3.575   5.979
 6766SOL     OW20586   5.613   3.458   5.703
 6766SOL    HW120587   5.594   3.362   5.724
 6766SOL    HW220588   5.580   3.516   5.778
 6767SOL     OW20589   6.050   3.605   5.909
 6767SOL    HW120590   6.083   3.644   5.995
 6767SOL    HW220591   6.126   3.598   5.844
 6768SOL     OW20592   5.883   1.897   5.757
 6768SOL    HW120593   5.932   1.981   5.736
 6768SOL    HW220594   5.945   1.832   5.802
 6769SOL     OW20595   5.893   1.925   6.204
 6769SOL    HW120596   5.882   2.019   6.237
 6769SOL    HW220597   5.888   1.862   6.281
 6770SOL     OW20598   5.594   3.188   5.786
 6770SOL    HW120599   5.501   3.209   5.755
 6770SOL    HW220600   5.604   3.089   5.799
 6771SOL     OW20601   5.661   2.207   5.619
 6771SOL    HW120602   5.569   2.179   5.590
 6771SOL    HW220603   5.692   2.284   5.563
 6772SOL     OW20604   5.658   2.028   5.904
 6772SOL    HW120605   5.641   2.111   5.850
 6772SOL    HW220606   5.748   1.991   5.882
 6773SOL     OW20607   5.625   2.939   5.886
 6773SOL    HW120608   5.724   2.928   5.877
 6773SOL    HW220609   5.585   2.853   5.918
 6774SOL     OW20610   5.816   4.352   0.113
 6774SOL    HW120611   5.723   4.350   0.150
 6774SOL    HW220612   5.817   4.313   0.021
 6775SOL     OW20613   5.811   3.999   0.996
 6775SOL    HW120614   5.846   3.982   1.088
 6775SOL    HW220615   5.723   3.954   0.984
 6776SOL     OW20616   5.605   4.092   0.647
 6776SOL    HW120617   5.523   4.135   0.686
 6776SOL    HW220618   5.577   4.019   0.584
 6777SOL     OW20619   6.271   4.736   0.665
 6777SOL    HW120620   6.340   4.720   0.735
 6777SOL    HW220621   6.198   4.793   0.703
 6778SOL     OW20622   5.921   5.159   1.061
 6778SOL    HW120623   5.843   5.128   1.008
 6778SOL    HW220624   5.979   5.217   1.004
 6779SOL     OW20625   5.817   5.437   0.483
 6779SOL    HW120626   5.851   5.514   0.537
 6779SOL    HW220627   5.861   5.437   0.393
 6780SOL     OW20628   5.816   5.158   0.538
 6780SOL    HW120629   5.790   5.254   0.538
 6780SOL    HW220630   5.745   5.104   0.583
 6781SOL     OW20631   5.826   4.815   0.886
 6781SOL    HW120632   5.840   4.731   0.938
 6781SOL    HW220633   5.771   4.879   0.941
 6782SOL     OW20634   5.708   4.367   0.563
 6782SOL    HW120635   5.663   4.279   0.580
 6782SOL    HW220636   5.707   4.421   0.647
 6783SOL     OW20637   5.613   5.320   0.117
 6783SOL    HW120638   5.594   5.224   0.138
 6783SOL    HW220639   5.580   5.378   0.192
 6784SOL     OW20640   5.699   4.461   1.597
 6784SOL    HW120641   5.787   4.448   1.642
 6784SOL    HW220642   5.686   4.558   1.575
 6785SOL     OW20643   5.783   4.700   1.264
 6785SOL    HW120644   5.872   4.655   1.250
 6785SOL    HW220645   5.710   4.635   1.245
 6786SOL     OW20646   5.662   4.535   0.789
 6786SOL    HW120647   5.761   4.523   0.798
 6786SOL    HW220648   5.638   4.630   0.810
 6787SOL     OW20649   5.716   5.545   1.571
 6787SOL    HW120650   5.706   5.530   1.670
 6787SOL    HW220651   5.630   5.581   1.535
 6788SOL     OW20652   5.788   4.009   1.498
 6788SOL    HW120653   5.708   4.069   1.485
 6788SOL    HW220654   5.778   3.960   1.584
 6789SOL     OW20655   6.050   5.467   0.323
 6789SOL    HW120656   6.083   5.506   0.409
 6789SOL    HW220657   6.126   5.460   0.258
 6790SOL     OW20658   5.835   5.509   1.241
 6790SOL    HW120659   5.892   5.444   1.291
 6790SOL    HW220660   5.819   5.476   1.148
 6791SOL     OW20661   5.664   4.280   1.386
 6791SOL    HW120662   5.756   4.279   1.345
 6791SOL    HW220663   5.658   4.354   1.453
 6792SOL     OW20664   5.650   5.288   1.331
 6792SOL    HW120665   5.604   5.370   1.297
 6792SOL    HW220666   5.748   5.307   1.340
 6793SOL     OW20667   6.152   4.261   0.865
 6793SOL    HW120668   6.164   4.327   0.791
 6793SOL    HW220669   6.198   4.295   0.948
 6794SOL     OW20670   5.893   3.937   1.231
 6794SOL    HW120671   5.870   3.974   1.321
 6794SOL    HW220672   5.863   3.842   1.225
 6795SOL     OW20673   5.623   5.034   1.282
 6795SOL    HW120674   5.676   4.985   1.350
 6795SOL    HW220675   5.645   5.132   1.287
 6796SOL     OW20676   5.893   3.787   0.618
 6796SOL    HW120677   5.882   3.881   0.651
 6796SOL    HW220678   5.888   3.724   0.695
 6797SOL     OW20679   5.905   4.534   0.949
 6797SOL    HW120680   5.998   4.570   0.954
 6797SOL    HW220681   5.899   4.449   1.001
 6798SOL     OW20682   5.674   5.525   0.927
 6798SOL    HW120683   5.632   5.439   0.900
 6798SOL    HW220684   5.768   5.528   0.893
 6799SOL     OW20685   6.090   5.292   0.910
 6799SOL    HW120686   6.156   5.366   0.919
 6799SOL    HW220687   6.134   5.213   0.868
 6800SOL     OW20688   5.626   4.268   1.114
 6800SOL    HW120689   5.711   4.235   1.073
 6800SOL    HW220690   5.639   4.283   1.212
 6801SOL     OW20691   5.775   4.244   1.722
 6801SOL    HW120692   5.834   4.204   1.652
 6801SOL    HW220693   5.717   4.315   1.681
 6802SOL     OW20694   5.838   5.288   1.744
 6802SOL    HW120695   5.808   5.345   1.820
 6802SOL    HW220696   5.831   5.191   1.770
 6803SOL     OW20697   5.745   4.861   1.466
 6803SOL    HW120698   5.767   4.800   1.542
 6803SOL    HW220699   5.755   4.812   1.380
 6804SOL     OW20700   5.669   4.982   1.022
 6804SOL    HW120701   5.664   4.981   1.122
 6804SOL    HW220702   5.586   4.941   0.984
 6805SOL     OW20703   5.716   5.518   1.851
 6805SOL    HW120704   5.675   5.444   1.904
 6805SOL    HW220705   5.780   5.569   1.909
 6806SOL     OW20706   5.958   5.012   1.490
 6806SOL    HW120707   5.945   5.105   1.456
 6806SOL    HW220708   5.874   4.960   1.477
 6807SOL     OW20709   5.691   4.737   1.726
 6807SOL    HW120710   5.614   4.704   1.780
 6807SOL    HW220711   5.776   4.707   1.768
 6808SOL     OW20712   5.661   4.069   0.033
 6808SOL    HW120713   5.569   4.041   0.004
 6808SOL    HW220714   5.692   4.146  -0.023
 6809SOL     OW20715   5.658   3.890   0.318
 6809SOL    HW120716   5.641   3.973   0.264
 6809SOL    HW220717   5.748   3.853   0.296
 6810SOL     OW20718   6.199   4.566   1.431
 6810SOL    HW120719   6.255   4.647   1.414
 6810SOL    HW220720   6.258   4.486   1.434
 6811SOL     OW20721   5.665   4.964   0.653
 6811SOL    HW120722   5.664   4.917   0.741
 6811SOL    HW220723   5.747   4.936   0.602
 6812SOL     OW20724   5.625   4.801   0.300
 6812SOL    HW120725   5.724   4.790   0.291
 6812SOL    HW220726   5.585   4.715   0.332
 6813SOL     OW20727   5.816   4.352   1.975
 6813SOL    HW120728   5.723   4.350   2.012
 6813SOL    HW220729   5.817   4.313   1.883
 6814SOL     OW20730   5.811   3.999   2.858
 6814SOL    HW120731   5.846   3.982   2.950
 6814SOL    HW220732   5.723   3.954   2.846
 6815SOL     OW20733   5.605   4.092   2.509
 6815SOL    HW120734   5.523   4.135   2.548
 6815SOL    HW220735   5.577   4.019   2.446
 6816SOL     OW20736   6.271   4.736   2.527
 6816SOL    HW120737   6.340   4.720   2.597
 6816SOL    HW220738   6.198   4.793   2.565
 6817SOL     OW20739   5.921   5.159   2.923
 6817SOL    HW120740   5.843   5.128   2.870
 6817SOL    HW220741   5.979   5.217   2.866
 6818SOL     OW20742   5.817   5.437   2.345
 6818SOL    HW120743   5.851   5.514   2.399
 6818SOL    HW220744   5.861   5.437   2.255
 6819SOL     OW20745   5.816   5.158   2.400
 6819SOL    HW120746   5.790   5.254   2.400
 6819SOL    HW220747   5.745   5.104   2.445
 6820SOL     OW20748   5.826   4.815   2.748
 6820SOL    HW120749   5.840   4.731   2.800
 6820SOL    HW220750   5.771   4.879   2.803
 6821SOL     OW20751   5.708   4.367   2.425
 6821SOL    HW120752   5.663   4.279   2.442
 6821SOL    HW220753   5.707   4.421   2.509
 6822SOL     OW20754   5.613   5.320   1.979
 6822SOL    HW120755   5.594   5.224   2.000
 6822SOL    HW220756   5.580   5.378   2.054
 6823SOL     OW20757   5.699   4.461   3.459
 6823SOL    HW120758   5.787   4.448   3.504
 6823SOL    HW220759   5.686   4.558   3.437
 6824SOL     OW20760   5.783   4.700   3.126
 6824SOL    HW120761   5.872   4.655   3.112
 6824SOL    HW220762   5.710   4.635   3.107
 6825SOL     OW20763   5.662   4.535   2.651
 6825SOL    HW120764   5.761   4.523   2.660
 6825SOL    HW220765   5.638   4.630   2.672
 6826SOL     OW20766   5.716   5.545   3.433
 6826SOL    HW120767   5.706   5.530   3.532
 6826SOL    HW220768   5.630   5.581   3.397
 6827SOL     OW20769   5.788   4.009   3.360
 6827SOL    HW120770   5.708   4.069   3.347
 6827SOL    HW220771   5.778   3.960   3.446
 6828SOL     OW20772   6.050   5.467   2.185
 6828SOL    HW120773   6.083   5.506   2.271
 6828SOL    HW220774   6.126   5.460   2.120
 6829SOL     OW20775   5.835   5.509   3.103
 6829SOL    HW120776   5.892   5.444   3.153
 6829SOL    HW220777   5.819   5.476   3.010
 6830SOL     OW20778   5.883   3.759   2.033
 6830SOL    HW120779   5.932   3.843   2.012
 6830SOL    HW220780   5.945   3.694   2.078
 6831SOL     OW20781   5.664   4.280   3.248
 6831SOL    HW120782   5.756   4.279   3.207
 6831SOL    HW220783   5.658   4.354   3.315
 6832SOL     OW20784   5.650   5.288   3.193
 6832SOL    HW120785   5.604   5.370   3.159
 6832SOL    HW220786   5.748   5.307   3.202
 6833SOL     OW20787   6.152   4.261   2.727
 6833SOL    HW120788   6.164   4.327   2.653
 6833SOL    HW220789   6.198   4.295   2.810
 6834SOL     OW20790   5.893   3.937   3.093
 6834SOL    HW120791   5.870   3.974   3.183
 6834SOL    HW220792   5.863   3.842   3.087
 6835SOL     OW20793   5.623   5.034   3.144
 6835SOL    HW120794   5.676   4.985   3.212
 6835SOL    HW220795   5.645   5.132   3.149
 6836SOL     OW20796   5.893   3.787   2.480
 6836SOL    HW120797   5.882   3.881   2.513
 6836SOL    HW220798   5.888   3.724   2.557
 6837SOL     OW20799   5.905   4.534   2.811
 6837SOL    HW120800   5.998   4.570   2.816
 6837SOL    HW220801   5.899   4.449   2.863
 6838SOL     OW20802   5.594   5.050   2.062
 6838SOL    HW120803   5.501   5.071   2.031
 6838SOL    HW220804   5.604   4.951   2.075
 6839SOL     OW20805   5.674   5.525   2.789
 6839SOL    HW120806   5.632   5.439   2.762
 6839SOL    HW220807   5.768   5.528   2.755
 6840SOL     OW20808   6.090   5.292   2.772
 6840SOL    HW120809   6.156   5.366   2.781
 6840SOL    HW220810   6.134   5.213   2.730
 6841SOL     OW20811   5.626   4.268   2.976
 6841SOL    HW120812   5.711   4.235   2.935
 6841SOL    HW220813   5.639   4.283   3.074
 6842SOL     OW20814   5.775   4.244   3.584
 6842SOL    HW120815   5.834   4.204   3.514
 6842SOL    HW220816   5.717   4.315   3.543
 6843SOL     OW20817   5.838   5.288   3.606
 6843SOL    HW120818   5.808   5.345   3.682
 6843SOL    HW220819   5.831   5.191   3.632
 6844SOL     OW20820   5.745   4.861   3.328
 6844SOL    HW120821   5.767   4.800   3.404
 6844SOL    HW220822   5.755   4.812   3.242
 6845SOL     OW20823   5.669   4.982   2.884
 6845SOL    HW120824   5.664   4.981   2.984
 6845SOL    HW220825   5.586   4.941   2.846
 6846SOL     OW20826   5.716   5.518   3.713
 6846SOL    HW120827   5.675   5.444   3.766
 6846SOL    HW220828   5.780   5.569   3.771
 6847SOL     OW20829   5.958   5.012   3.352
 6847SOL    HW120830   5.945   5.105   3.318
 6847SOL    HW220831   5.874   4.960   3.339
 6848SOL     OW20832   5.691   4.737   3.588
 6848SOL    HW120833   5.614   4.704   3.642
 6848SOL    HW220834   5.776   4.707   3.630
 6849SOL     OW20835   5.661   4.069   1.895
 6849SOL    HW120836   5.569   4.041   1.866
 6849SOL    HW220837   5.692   4.146   1.839
 6850SOL     OW20838   5.658   3.890   2.180
 6850SOL    HW120839   5.641   3.973   2.126
 6850SOL    HW220840   5.748   3.853   2.158
 6851SOL     OW20841   6.199   4.566   3.293
 6851SOL    HW120842   6.255   4.647   3.276
 6851SOL    HW220843   6.258   4.486   3.296
 6852SOL     OW20844   5.665   4.964   2.515
 6852SOL    HW120845   5.664   4.917   2.603
 6852SOL    HW220846   5.747   4.936   2.464
 6853SOL     OW20847   5.625   4.801   2.162
 6853SOL    HW120848   5.724   4.790   2.153
 6853SOL    HW220849   5.585   4.715   2.194
 6854SOL     OW20850   5.816   4.352   3.837
 6854SOL    HW120851   5.723   4.350   3.874
 6854SOL    HW220852   5.817   4.313   3.745
 6855SOL     OW20853   5.811   3.999   4.720
 6855SOL    HW120854   5.846   3.982   4.812
 6855SOL    HW220855   5.723   3.954   4.708
 6856SOL     OW20856   5.605   4.092   4.371
 6856SOL    HW120857   5.523   4.135   4.410
 6856SOL    HW220858   5.577   4.019   4.308
 6857SOL     OW20859   6.271   4.736   4.389
 6857SOL    HW120860   6.340   4.720   4.459
 6857SOL    HW220861   6.198   4.793   4.427
 6858SOL     OW20862   5.921   5.159   4.785
 6858SOL    HW120863   5.843   5.128   4.732
 6858SOL    HW220864   5.979   5.217   4.728
 6859SOL     OW20865   5.817   5.437   4.207
 6859SOL    HW120866   5.851   5.514   4.261
 6859SOL    HW220867   5.861   5.437   4.117
 6860SOL     OW20868   5.816   5.158   4.262
 6860SOL    HW120869   5.790   5.254   4.262
 6860SOL    HW220870   5.745   5.104   4.307
 6861SOL     OW20871   5.826   4.815   4.610
 6861SOL    HW120872   5.840   4.731   4.662
 6861SOL    HW220873   5.771   4.879   4.665
 6862SOL     OW20874   5.708   4.367   4.287
 6862SOL    HW120875   5.663   4.279   4.304
 6862SOL    HW220876   5.707   4.421   4.371
 6863SOL     OW20877   5.613   5.320   3.841
 6863SOL    HW120878   5.594   5.224   3.862
 6863SOL    HW220879   5.580   5.378   3.916
 6864SOL     OW20880   5.699   4.461   5.321
 6864SOL    HW120881   5.787   4.448   5.366
 6864SOL    HW220882   5.686   4.558   5.299
 6865SOL     OW20883   5.783   4.700   4.988
 6865SOL    HW120884   5.872   4.655   4.974
 6865SOL    HW220885   5.710   4.635   4.969
 6866SOL     OW20886   5.662   4.535   4.513
 6866SOL    HW120887   5.761   4.523   4.522
 6866SOL    HW220888   5.638   4.630   4.534
 6867SOL     OW20889   5.716   5.545   5.295
 6867SOL    HW120890   5.706   5.530   5.394
 6867SOL    HW220891   5.630   5.581   5.259
 6868SOL     OW20892   5.788   4.009   5.222
 6868SOL    HW120893   5.708   4.069   5.209
 6868SOL    HW220894   5.778   3.960   5.308
 6869SOL     OW20895   6.050   5.467   4.047
 6869SOL    HW120896   6.083   5.506   4.133
 6869SOL    HW220897   6.126   5.460   3.982
 6870SOL     OW20898   5.835   5.509   4.965
 6870SOL    HW120899   5.892   5.444   5.015
 6870SOL    HW220900   5.819   5.476   4.872
 6871SOL     OW20901   5.883   3.759   3.895
 6871SOL    HW120902   5.932   3.843   3.874
 6871SOL    HW220903   5.945   3.694   3.940
 6872SOL     OW20904   5.664   4.280   5.110
 6872SOL    HW120905   5.756   4.279   5.069
 6872SOL    HW220906   5.658   4.354   5.177
 6873SOL     OW20907   5.650   5.288   5.055
 6873SOL    HW120908   5.604   5.370   5.021
 6873SOL    HW220909   5.748   5.307   5.064
 6874SOL     OW20910   6.152   4.261   4.589
 6874SOL    HW120911   6.164   4.327   4.515
 6874SOL    HW220912   6.198   4.295   4.672
 6875SOL     OW20913   5.893   3.937   4.955
 6875SOL    HW120914   5.870   3.974   5.045
 6875SOL    HW220915   5.863   3.842   4.949
 6876SOL     OW20916   5.623   5.034   5.006
 6876SOL    HW120917   5.676   4.985   5.074
 6876SOL    HW220918   5.645   5.132   5.011
 6877SOL     OW20919   5.893   3.787   4.342
 6877SOL    HW120920   5.882   3.881   4.375
 6877SOL    HW220921   5.888   3.724   4.419
 6878SOL     OW20922   5.905   4.534   4.673
 6878SOL    HW120923   5.998   4.570   4.678
 6878SOL    HW220924   5.899   4.449   4.725
 6879SOL     OW20925   5.594   5.050   3.924
 6879SOL    HW120926   5.501   5.071   3.893
 6879SOL    HW220927   5.604   4.951   3.937
 6880SOL     OW20928   5.674   5.525   4.651
 6880SOL    HW120929   5.632   5.439   4.624
 6880SOL    HW220930   5.768   5.528   4.617
 6881SOL     OW20931   6.090   5.292   4.634
 6881SOL    HW120932   6.156   5.366   4.643
 6881SOL    HW220933   6.134   5.213   4.592
 6882SOL     OW20934   5.626   4.268   4.838
 6882SOL    HW120935   5.711   4.235   4.797
 6882SOL    HW220936   5.639   4.283   4.936
 6883SOL     OW20937   5.775   4.244   5.446
 6883SOL    HW120938   5.834   4.204   5.376
 6883SOL    HW220939   5.717   4.315   5.405
 6884SOL     OW20940   5.838   5.288   5.468
 6884SOL    HW120941   5.808   5.345   5.544
 6884SOL    HW220942   5.831   5.191   5.494
 6885SOL     OW20943   5.745   4.861   5.190
 6885SOL    HW120944   5.767   4.800   5.266
 6885SOL    HW220945   5.755   4.812   5.104
 6886SOL     OW20946   5.669   4.982   4.746
 6886SOL    HW120947   5.664   4.981   4.846
 6886SOL    HW220948   5.586   4.941   4.708
 6887SOL     OW20949   5.716   5.518   5.575
 6887SOL    HW120950   5.675   5.444   5.628
 6887SOL    HW220951   5.780   5.569   5.633
 6888SOL     OW20952   5.958   5.012   5.214
 6888SOL    HW120953   5.945   5.105   5.180
 6888SOL    HW220954   5.874   4.960   5.201
 6889SOL     OW20955   5.691   4.737   5.450
 6889SOL    HW120956   5.614   4.704   5.504
 6889SOL    HW220957   5.776   4.707   5.492
 6890SOL     OW20958   5.661   4.069   3.757
 6890SOL    HW120959   5.569   4.041   3.728
 6890SOL    HW220960   5.692   4.146   3.701
 6891SOL     OW20961   5.658   3.890   4.042
 6891SOL    HW120962   5.641   3.973   3.988
 6891SOL    HW220963   5.748   3.853   4.020
 6892SOL     OW20964   6.199   4.566   5.155
 6892SOL    HW120965   6.255   4.647   5.138
 6892SOL    HW220966   6.258   4.486   5.158
 6893SOL     OW20967   5.665   4.964   4.377
 6893SOL    HW120968   5.664   4.917   4.465
 6893SOL    HW220969   5.747   4.936   4.326
 6894SOL     OW20970   5.625   4.801   4.024
 6894SOL    HW120971   5.724   4.790   4.015
 6894SOL    HW220972   5.585   4.715   4.056
 6895SOL     OW20973   5.816   4.352   5.699
 6895SOL    HW120974   5.723   4.350   5.736
 6895SOL    HW220975   5.817   4.313   5.607
 6896SOL     OW20976   5.817   5.437   6.069
 6896SOL    HW120977   5.851   5.514   6.123
 6896SOL    HW220978   5.861   5.437   5.979
 6897SOL     OW20979   5.613   5.320   5.703
 6897SOL    HW120980   5.594   5.224   5.724
 6897SOL    HW220981   5.580   5.378   5.778
 6898SOL     OW20982   6.050   5.467   5.909
 6898SOL    HW120983   6.083   5.506   5.995
 6898SOL    HW220984   6.126   5.460   5.844
 6899SOL     OW20985   5.883   3.759   5.757
 6899SOL    HW120986   5.932   3.843   5.736
 6899SOL    HW220987   5.945   3.694   5.802
 6900SOL     OW20988   5.893   3.787   6.204
 6900SOL    HW120989   5.882   3.881   6.237
 6900SOL    HW220990   5.888   3.724   6.281
 6901SOL     OW20991   5.594   5.050   5.786
 6901SOL    HW120992   5.501   5.071   5.755
 6901SOL    HW220993   5.604   4.951   5.799
 6902SOL     OW20994   5.661   4.069   5.619
 6902SOL    HW120995   5.569   4.041   5.590
 6902SOL    HW220996   5.692   4.146   5.563
 6903SOL     OW20997   5.658   3.890   5.904
 6903SOL    HW120998   5.641   3.973   5.850
 6903SOL    HW220999   5.748   3.853   5.882
 6904SOL     OW21000   5.625   4.801   5.886
 6904SOL    HW121001   5.724   4.790   5.877
 6904SOL    HW221002   5.585   4.715   5.918
 6905SOL     OW21003   5.816   6.214   0.113
 6905SOL    HW121004   5.723   6.212   0.150
 6905SOL    HW221005   5.817   6.175   0.021
 6906SOL     OW21006   5.811   5.861   0.996
 6906SOL    HW121007   5.846   5.844   1.088
 6906SOL    HW221008   5.723   5.816   0.984
 6907SOL     OW21009   5.605   5.954   0.647
 6907SOL    HW121010   5.523   5.997   0.686
 6907SOL    HW221011   5.577   5.881   0.584
 6908SOL     OW21012   5.788   5.871   1.498
 6908SOL    HW121013   5.708   5.931   1.485
 6908SOL    HW221014   5.778   5.822   1.584
 6909SOL     OW21015   5.893   5.799   1.231
 6909SOL    HW121016   5.870   5.836   1.321
 6909SOL    HW221017   5.863   5.704   1.225
 6910SOL     OW21018   5.893   5.649   0.618
 6910SOL    HW121019   5.882   5.743   0.651
 6910SOL    HW221020   5.888   5.586   0.695
 6911SOL     OW21021   5.661   5.931   0.033
 6911SOL    HW121022   5.569   5.903   0.004
 6911SOL    HW221023   5.692   6.008  -0.023
 6912SOL     OW21024   5.658   5.752   0.318
 6912SOL    HW121025   5.641   5.835   0.264
 6912SOL    HW221026   5.748   5.715   0.296
 6913SOL     OW21027   5.816   6.214   1.975
 6913SOL    HW121028   5.723   6.212   2.012
 6913SOL    HW221029   5.817   6.175   1.883
 6914SOL     OW21030   5.811   5.861   2.858
 6914SOL    HW121031   5.846   5.844   2.950
 6914SOL    HW221032   5.723   5.816   2.846
 6915SOL     OW21033   5.605   5.954   2.509
 6915SOL    HW121034   5.523   5.997   2.548
 6915SOL    HW221035   5.577   5.881   2.446
 6916SOL     OW21036   5.788   5.871   3.360
 6916SOL    HW121037   5.708   5.931   3.347
 6916SOL    HW221038   5.778   5.822   3.446
 6917SOL     OW21039   5.883   5.621   2.033
 6917SOL    HW121040   5.932   5.705   2.012
 6917SOL    HW221041   5.945   5.556   2.078
 6918SOL     OW21042   5.893   5.799   3.093
 6918SOL    HW121043   5.870   5.836   3.183
 6918SOL    HW221044   5.863   5.704   3.087
 6919SOL     OW21045   5.893   5.649   2.480
 6919SOL    HW121046   5.882   5.743   2.513
 6919SOL    HW221047   5.888   5.586   2.557
 6920SOL     OW21048   5.661   5.931   1.895
 6920SOL    HW121049   5.569   5.903   1.866
 6920SOL    HW221050   5.692   6.008   1.839
 6921SOL     OW21051   5.658   5.752   2.180
 6921SOL    HW121052   5.641   5.835   2.126
 6921SOL    HW221053   5.748   5.715   2.158
 6922SOL     OW21054   5.816   6.214   3.837
 6922SOL    HW121055   5.723   6.212   3.874
 6922SOL    HW221056   5.817   6.175   3.745
 6923SOL     OW21057   5.811   5.861   4.720
 6923SOL    HW121058   5.846   5.844   4.812
 6923SOL    HW221059   5.723   5.816   4.708
 6924SOL     OW21060   5.605   5.954   4.371
 6924SOL    HW121061   5.523   5.997   4.410
 6924SOL    HW221062   5.577   5.881   4.308
 6925SOL     OW21063   5.788   5.871   5.222
 6925SOL    HW121064   5.708   5.931   5.209
 6925SOL    HW221065   5.778   5.822   5.308
 6926SOL     OW21066   5.883   5.621   3.895
 6926SOL    HW121067   5.932   5.705   3.874
 6926SOL    HW221068   5.945   5.556   3.940
 6927SOL     OW21069   5.893   5.799   4.955
 6927SOL    HW121070   5.870   5.836   5.045
 6927SOL    HW221071   5.863   5.704   4.949
 6928SOL     OW21072   5.893   5.649   4.342
 6928SOL    HW121073   5.882   5.743   4.375
 6928SOL    HW221074   5.888   5.586   4.419
 6929SOL     OW21075   5.661   5.931   3.757
 6929SOL    HW121076   5.569   5.903   3.728
 6929SOL    HW221077   5.692   6.008   3.701
 6930SOL     OW21078   5.658   5.752   4.042
 6930SOL    HW121079   5.641   5.835   3.988
 6930SOL    HW221080   5.748   5.715   4.020
 6931SOL     OW21081   5.816   6.214   5.699
 6931SOL    HW121082   5.723   6.212   5.736
 6931SOL    HW221083   5.817   6.175   5.607
 6932SOL     OW21084   5.883   5.621   5.757
 6932SOL    HW121085   5.932   5.705   5.736
 6932SOL    HW221086   5.945   5.556   5.802
 6933SOL     OW21087   5.893   5.649   6.204
 6933SOL    HW121088   5.882   5.743   6.237
 6933SOL    HW221089   5.888   5.586   6.281
 6934SOL     OW21090   5.661   5.931   5.619
 6934SOL    HW121091   5.569   5.903   5.590
 6934SOL    HW221092   5.692   6.008   5.563
 6935SOL     OW21093   5.658   5.752   5.904
 6935SOL    HW121094   5.641   5.835   5.850
 6935SOL    HW221095   5.748   5.715   5.882
   5.99195   5.99195   5.99195
