GRoups of Organic Molecules in ACtion for Science
  384
    1LEU      N    1   0.435   0.685  -1.409
    1LEU     H1    2   0.391   0.595  -1.401
    1LEU     H2    3   0.371   0.749  -1.451
    1LEU     H3    4   0.517   0.677  -1.466
    1LEU     CA    5   0.473   0.733  -1.276
    1LEU     HA    6   0.537   0.664  -1.243
    1LEU     CB    7   0.541   0.871  -1.284
    1LEU    HB1    8   0.520   0.921  -1.199
    1LEU    HB2    9   0.503   0.920  -1.362
    1LEU     CG   10   0.692   0.865  -1.300
    1LEU     HG   11   0.714   0.809  -1.380
    1LEU    CD1   12   0.747   1.003  -1.325
    1LEU   HD11   13   0.846   0.997  -1.335
    1LEU   HD12   14   0.707   1.040  -1.408
    1LEU   HD13   15   0.725   1.062  -1.248
    1LEU    CD2   16   0.758   0.801  -1.181
    1LEU   HD21   17   0.857   0.799  -1.195
    1LEU   HD22   18   0.737   0.853  -1.099
    1LEU   HD23   19   0.724   0.707  -1.171
    1LEU      C   20   0.354   0.740  -1.180
    1LEU      O   21   0.362   0.690  -1.070
    2ILE      N   22   0.243   0.797  -1.222
    2ILE      H   23   0.239   0.834  -1.314
    2ILE     CA   24   0.123   0.806  -1.137
    2ILE     HA   25   0.153   0.853  -1.054
    2ILE     CB   26   0.013   0.887  -1.208
    2ILE     HB   27  -0.001   0.853  -1.301
    2ILE    CG2   28  -0.118   0.873  -1.132
    2ILE   HG21   29  -0.189   0.926  -1.179
    2ILE   HG22   30  -0.145   0.777  -1.129
    2ILE   HG23   31  -0.107   0.908  -1.039
    2ILE    CG1   32   0.054   1.034  -1.213
    2ILE   HG11   33   0.136   1.042  -1.271
    2ILE   HG12   34   0.076   1.064  -1.121
    2ILE     CD   35  -0.051   1.126  -1.269
    2ILE    HD1   36  -0.016   1.220  -1.269
    2ILE    HD2   37  -0.074   1.098  -1.362
    2ILE    HD3   38  -0.133   1.121  -1.212
    2ILE      C   39   0.072   0.668  -1.099
    2ILE      O   40   0.042   0.642  -0.983
    3LEU      N   41   0.064   0.579  -1.194
    3LEU      H   42   0.090   0.605  -1.287
    3LEU     CA   43   0.018   0.443  -1.169
    3LEU     HA   44  -0.073   0.454  -1.129
    3LEU     CB   45   0.013   0.363  -1.300
    3LEU    HB1   46   0.058   0.275  -1.285
    3LEU    HB2   47   0.062   0.415  -1.370
    3LEU     CG   48  -0.127   0.336  -1.354
    3LEU     HG   49  -0.174   0.423  -1.365
    3LEU    CD1   50  -0.118   0.269  -1.489
    3LEU   HD11   51  -0.211   0.251  -1.523
    3LEU   HD12   52  -0.070   0.329  -1.553
    3LEU   HD13   53  -0.069   0.182  -1.480
    3LEU    CD2   54  -0.206   0.249  -1.257
    3LEU   HD21   55  -0.297   0.232  -1.295
    3LEU   HD22   56  -0.159   0.162  -1.244
    3LEU   HD23   57  -0.215   0.296  -1.169
    3LEU      C   58   0.107   0.371  -1.069
    3LEU      O   59   0.059   0.301  -0.980
    4LEU      N   60   0.237   0.389  -1.083
    4LEU      H   61   0.270   0.448  -1.157
    4LEU     CA   62   0.336   0.325  -0.995
    4LEU     HA   63   0.317   0.227  -0.999
    4LEU     CB   64   0.477   0.357  -1.044
    4LEU    HB1   65   0.520   0.418  -0.978
    4LEU    HB2   66   0.470   0.403  -1.132
    4LEU     CG   67   0.569   0.236  -1.062
    4LEU     HG   68   0.523   0.169  -1.120
    4LEU    CD1   69   0.696   0.277  -1.131
    4LEU   HD11   70   0.755   0.197  -1.142
    4LEU   HD12   71   0.674   0.315  -1.221
    4LEU   HD13   72   0.743   0.346  -1.076
    4LEU    CD2   73   0.600   0.172  -0.928
    4LEU   HD21   74   0.661   0.094  -0.942
    4LEU   HD22   75   0.646   0.239  -0.869
    4LEU   HD23   76   0.515   0.142  -0.885
    4LEU      C   77   0.319   0.373  -0.852
    4LEU      O   78   0.320   0.295  -0.758
    5VAL      N   79   0.303   0.502  -0.835
    5VAL      H   80   0.303   0.562  -0.915
    5VAL     CA   81   0.287   0.563  -0.703
    5VAL     HA   82   0.364   0.531  -0.649
    5VAL     CB   83   0.286   0.717  -0.713
    5VAL     HB   84   0.214   0.747  -0.776
    5VAL    CG1   85   0.258   0.780  -0.577
    5VAL   HG11   86   0.258   0.879  -0.586
    5VAL   HG12   87   0.169   0.749  -0.544
    5VAL   HG13   88   0.329   0.751  -0.513
    5VAL    CG2   89   0.419   0.767  -0.767
    5VAL   HG21   90   0.418   0.866  -0.773
    5VAL   HG22   91   0.492   0.738  -0.706
    5VAL   HG23   92   0.435   0.728  -0.858
    5VAL      C   93   0.156   0.517  -0.640
    5VAL      O   94   0.151   0.488  -0.521
    6LEU      N   95   0.053   0.508  -0.721
    6LEU      H   96   0.065   0.531  -0.817
    6LEU     CA   97  -0.079   0.465  -0.673
    6LEU     HA   98  -0.103   0.526  -0.598
    6LEU     CB   99  -0.181   0.476  -0.788
    6LEU    HB1  100  -0.195   0.385  -0.826
    6LEU    HB2  101  -0.143   0.536  -0.858
    6LEU     CG  102  -0.316   0.531  -0.748
    6LEU     HG  103  -0.301   0.609  -0.686
    6LEU    CD1  104  -0.392   0.581  -0.868
    6LEU   HD11  105  -0.480   0.617  -0.840
    6LEU   HD12  106  -0.339   0.653  -0.914
    6LEU   HD13  107  -0.406   0.505  -0.932
    6LEU    CD2  108  -0.397   0.425  -0.676
    6LEU   HD21  109  -0.486   0.463  -0.650
    6LEU   HD22  110  -0.410   0.347  -0.737
    6LEU   HD23  111  -0.348   0.395  -0.594
    6LEU      C  112  -0.074   0.321  -0.622
    6LEU      O  113  -0.126   0.291  -0.516
    7VAL      N  114  -0.009   0.235  -0.697
    7VAL      H  115   0.032   0.265  -0.783
    7VAL     CA  116   0.005   0.095  -0.658
    7VAL     HA  117  -0.088   0.062  -0.644
    7VAL     CB  118   0.077   0.013  -0.768
    7VAL     HB  119   0.164   0.058  -0.793
    7VAL    CG1  120   0.110  -0.126  -0.719
    7VAL   HG11  121   0.156  -0.177  -0.791
    7VAL   HG12  122   0.170  -0.120  -0.639
    7VAL   HG13  123   0.026  -0.173  -0.694
    7VAL    CG2  124  -0.009   0.006  -0.893
    7VAL   HG21  125   0.039  -0.047  -0.963
    7VAL   HG22  126  -0.095  -0.038  -0.871
    7VAL   HG23  127  -0.026   0.099  -0.926
    7VAL      C  128   0.084   0.084  -0.528
    7VAL      O  129   0.049   0.008  -0.439
    8LEU      N  130   0.190   0.163  -0.517
    8LEU      H  131   0.213   0.224  -0.592
    8LEU     CA  132   0.273   0.162  -0.397
    8LEU     HA  133   0.303   0.067  -0.384
    8LEU     CB  134   0.394   0.254  -0.419
    8LEU    HB1  135   0.364   0.349  -0.406
    8LEU    HB2  136   0.427   0.242  -0.512
    8LEU     CG  137   0.511   0.228  -0.325
    8LEU     HG  138   0.504   0.134  -0.291
    8LEU    CD1  139   0.643   0.244  -0.397
    8LEU   HD11  140   0.718   0.227  -0.333
    8LEU   HD12  141   0.647   0.179  -0.472
    8LEU   HD13  142   0.650   0.337  -0.433
    8LEU    CD2  143   0.505   0.322  -0.206
    8LEU   HD21  144   0.582   0.303  -0.145
    8LEU   HD22  145   0.509   0.416  -0.238
    8LEU   HD23  146   0.419   0.307  -0.156
    8LEU      C  147   0.193   0.206  -0.275
    8LEU      O  148   0.206   0.147  -0.168
    9ILE      N  149   0.110   0.306  -0.291
    9ILE      H  150   0.104   0.350  -0.381
    9ILE     CA  151   0.026   0.356  -0.182
    9ILE     HA  152   0.090   0.375  -0.107
    9ILE     CB  153  -0.050   0.483  -0.226
    9ILE     HB  154  -0.092   0.470  -0.315
    9ILE    CG2  155  -0.159   0.516  -0.124
    9ILE   HG21  156  -0.208   0.598  -0.153
    9ILE   HG22  157  -0.223   0.439  -0.119
    9ILE   HG23  158  -0.118   0.531  -0.035
    9ILE    CG1  159   0.048   0.600  -0.233
    9ILE   HG11  160   0.117   0.580  -0.303
    9ILE   HG12  161   0.093   0.610  -0.144
    9ILE     CD  162  -0.017   0.732  -0.268
    9ILE    HD1  163   0.053   0.804  -0.271
    9ILE    HD2  164  -0.061   0.725  -0.357
    9ILE    HD3  165  -0.085   0.755  -0.198
    9ILE      C  166  -0.073   0.250  -0.139
    9ILE      O  167  -0.095   0.228  -0.020
   10VAL      N  168  -0.134   0.181  -0.235
   10VAL      H  169  -0.112   0.202  -0.330
   10VAL     CA  170  -0.231   0.077  -0.205
   10VAL     HA  171  -0.300   0.122  -0.148
   10VAL     CB  172  -0.295   0.022  -0.335
   10VAL     HB  173  -0.223  -0.007  -0.398
   10VAL    CG1  174  -0.381  -0.099  -0.305
   10VAL   HG11  175  -0.421  -0.133  -0.390
   10VAL   HG12  176  -0.325  -0.171  -0.264
   10VAL   HG13  177  -0.454  -0.073  -0.242
   10VAL    CG2  178  -0.377   0.129  -0.403
   10VAL   HG21  179  -0.417   0.092  -0.486
   10VAL   HG22  180  -0.450   0.159  -0.341
   10VAL   HG23  181  -0.318   0.207  -0.425
   10VAL      C  182  -0.166  -0.037  -0.130
   10VAL      O  183  -0.221  -0.089  -0.033
   11VAL      N  184  -0.046  -0.077  -0.172
   11VAL      H  185  -0.005  -0.031  -0.251
   11VAL     CA  186   0.028  -0.185  -0.108
   11VAL     HA  187  -0.035  -0.263  -0.110
   11VAL     CB  188   0.159  -0.216  -0.183
   11VAL     HB  189   0.211  -0.132  -0.194
   11VAL    CG1  190   0.243  -0.315  -0.105
   11VAL   HG11  191   0.328  -0.334  -0.155
   11VAL   HG12  192   0.266  -0.276  -0.016
   11VAL   HG13  193   0.192  -0.400  -0.092
   11VAL    CG2  194   0.127  -0.272  -0.322
   11VAL   HG21  195   0.213  -0.292  -0.370
   11VAL   HG22  196   0.074  -0.356  -0.312
   11VAL   HG23  197   0.075  -0.205  -0.374
   11VAL      C  198   0.061  -0.149   0.036
   11VAL      O  199   0.045  -0.231   0.127
   12VAL      N  200   0.105  -0.027   0.058
   12VAL      H  201   0.117   0.035  -0.019
   12VAL     CA  202   0.139   0.020   0.192
   12VAL     HA  203   0.206  -0.047   0.227
   12VAL     CB  204   0.200   0.161   0.188
   12VAL     HB  205   0.138   0.221   0.138
   12VAL    CG1  206   0.218   0.217   0.329
   12VAL   HG11  207   0.257   0.308   0.323
   12VAL   HG12  208   0.129   0.221   0.374
   12VAL   HG13  209   0.279   0.157   0.381
   12VAL    CG2  210   0.334   0.159   0.117
   12VAL   HG21  211   0.372   0.252   0.115
   12VAL   HG22  212   0.396   0.099   0.165
   12VAL   HG23  213   0.321   0.126   0.023
   12VAL      C  214   0.015   0.021   0.280
   12VAL      O  215   0.020  -0.019   0.396
   13LEU      N  216  -0.095   0.065   0.224
   13LEU      H  217  -0.092   0.095   0.128
   13LEU     CA  218  -0.222   0.071   0.296
   13LEU     HA  219  -0.204   0.125   0.379
   13LEU     CB  220  -0.328   0.139   0.209
   13LEU    HB1  221  -0.410   0.082   0.208
   13LEU    HB2  222  -0.292   0.148   0.117
   13LEU     CG  223  -0.366   0.277   0.260
   13LEU     HG  224  -0.288   0.318   0.306
   13LEU    CD1  225  -0.403   0.368   0.146
   13LEU   HD11  226  -0.428   0.458   0.182
   13LEU   HD12  227  -0.325   0.377   0.084
   13LEU   HD13  228  -0.481   0.329   0.097
   13LEU    CD2  229  -0.483   0.266   0.357
   13LEU   HD21  230  -0.508   0.357   0.390
   13LEU   HD22  231  -0.562   0.225   0.310
   13LEU   HD23  232  -0.457   0.209   0.434
   13LEU      C  233  -0.270  -0.068   0.336
   13LEU      O  234  -0.316  -0.089   0.447
   14VAL      N  235  -0.258  -0.162   0.246
   14VAL      H  236  -0.220  -0.140   0.156
   14VAL     CA  237  -0.299  -0.300   0.273
   14VAL     HA  238  -0.394  -0.293   0.305
   14VAL     CB  239  -0.290  -0.387   0.145
   14VAL     HB  240  -0.199  -0.378   0.103
   14VAL    CG1  241  -0.311  -0.534   0.178
   14VAL   HG11  242  -0.304  -0.588   0.094
   14VAL   HG12  243  -0.241  -0.564   0.242
   14VAL   HG13  244  -0.401  -0.546   0.219
   14VAL    CG2  245  -0.391  -0.341   0.043
   14VAL   HG21  246  -0.385  -0.398  -0.039
   14VAL   HG22  247  -0.483  -0.349   0.082
   14VAL   HG23  248  -0.374  -0.245   0.019
   14VAL      C  249  -0.212  -0.361   0.381
   14VAL      O  250  -0.261  -0.429   0.471
   15LEU      N  251  -0.082  -0.336   0.375
   15LEU      H  252  -0.047  -0.280   0.299
   15LEU     CA  253   0.012  -0.386   0.474
   15LEU     HA  254  -0.002  -0.485   0.476
   15LEU     CB  255   0.156  -0.352   0.434
   15LEU    HB1  256   0.212  -0.351   0.517
   15LEU    HB2  257   0.156  -0.261   0.393
   15LEU     CG  258   0.220  -0.448   0.334
   15LEU     HG  259   0.159  -0.457   0.255
   15LEU    CD1  260   0.352  -0.392   0.288
   15LEU   HD11  261   0.394  -0.456   0.223
   15LEU   HD12  262   0.338  -0.304   0.244
   15LEU   HD13  263   0.413  -0.381   0.367
   15LEU    CD2  264   0.239  -0.586   0.395
   15LEU   HD21  265   0.281  -0.647   0.327
   15LEU   HD22  266   0.298  -0.579   0.475
   15LEU   HD23  267   0.150  -0.623   0.422
   15LEU      C  268  -0.018  -0.328   0.611
   15LEU      O  269  -0.012  -0.397   0.712
   16LEU      N  270  -0.051  -0.200   0.613
   16LEU      H  271  -0.053  -0.149   0.527
   16LEU     CA  272  -0.083  -0.131   0.738
   16LEU     HA  273  -0.008  -0.147   0.802
   16LEU     CB  274  -0.099   0.020   0.709
   16LEU    HB1  275  -0.194   0.037   0.682
   16LEU    HB2  276  -0.038   0.043   0.632
   16LEU     CG  277  -0.065   0.112   0.825
   16LEU     HG  278   0.007   0.070   0.880
   16LEU    CD1  279  -0.014   0.244   0.774
   16LEU   HD11  280   0.008   0.304   0.852
   16LEU   HD12  281   0.069   0.229   0.720
   16LEU   HD13  282  -0.084   0.288   0.717
   16LEU    CD2  283  -0.189   0.134   0.911
   16LEU   HD21  284  -0.165   0.195   0.987
   16LEU   HD22  285  -0.261   0.176   0.856
   16LEU   HD23  286  -0.220   0.047   0.947
   16LEU      C  287  -0.211  -0.187   0.798
   16LEU      O  288  -0.221  -0.207   0.918
   17LEU      N  289  -0.307  -0.214   0.714
   17LEU      H  290  -0.292  -0.196   0.616
   17LEU     CA  291  -0.435  -0.271   0.757
   17LEU     HA  292  -0.472  -0.210   0.827
   17LEU     CB  293  -0.531  -0.278   0.636
   17LEU    HB1  294  -0.510  -0.361   0.585
   17LEU    HB2  295  -0.514  -0.197   0.579
   17LEU     CG  296  -0.678  -0.281   0.669
   17LEU     HG  297  -0.693  -0.224   0.750
   17LEU    CD1  298  -0.760  -0.224   0.556
   17LEU   HD11  299  -0.857  -0.227   0.580
   17LEU   HD12  300  -0.732  -0.129   0.540
   17LEU   HD13  301  -0.744  -0.278   0.474
   17LEU    CD2  302  -0.723  -0.423   0.699
   17LEU   HD21  303  -0.821  -0.423   0.721
   17LEU   HD22  304  -0.706  -0.480   0.619
   17LEU   HD23  305  -0.671  -0.459   0.777
   17LEU      C  306  -0.415  -0.410   0.815
   17LEU      O  307  -0.472  -0.444   0.917
   18LEU      N  308  -0.331  -0.488   0.752
   18LEU      H  309  -0.287  -0.455   0.669
   18LEU     CA  310  -0.299  -0.623   0.799
   18LEU     HA  311  -0.387  -0.669   0.808
   18LEU     CB  312  -0.209  -0.695   0.698
   18LEU    HB1  313  -0.155  -0.763   0.747
   18LEU    HB2  314  -0.148  -0.627   0.657
   18LEU     CG  315  -0.282  -0.767   0.586
   18LEU     HG  316  -0.342  -0.700   0.541
   18LEU    CD1  317  -0.182  -0.819   0.485
   18LEU   HD11  318  -0.231  -0.866   0.411
   18LEU   HD12  319  -0.130  -0.743   0.446
   18LEU   HD13  320  -0.120  -0.883   0.529
   18LEU    CD2  321  -0.367  -0.881   0.639
   18LEU   HD21  322  -0.413  -0.926   0.563
   18LEU   HD22  323  -0.308  -0.947   0.686
   18LEU   HD23  324  -0.435  -0.845   0.703
   18LEU      C  325  -0.229  -0.618   0.934
   18LEU      O  326  -0.250  -0.703   1.020
   19LEU      N  327  -0.145  -0.518   0.953
   19LEU      H  328  -0.131  -0.451   0.879
   19LEU     CA  329  -0.071  -0.501   1.078
   19LEU     HA  330  -0.027  -0.589   1.096
   19LEU     CB  331   0.032  -0.388   1.063
   19LEU    HB1  332  -0.012  -0.302   1.089
   19LEU    HB2  333   0.059  -0.384   0.967
   19LEU     CG  334   0.158  -0.403   1.146
   19LEU     HG  335   0.187  -0.498   1.146
   19LEU    CD1  336   0.270  -0.321   1.087
   19LEU   HD11  337   0.352  -0.331   1.143
   19LEU   HD12  338   0.288  -0.353   0.994
   19LEU   HD13  339   0.243  -0.225   1.085
   19LEU    CD2  340   0.133  -0.361   1.290
   19LEU   HD21  341   0.217  -0.371   1.343
   19LEU   HD22  342   0.103  -0.266   1.292
   19LEU   HD23  343   0.061  -0.419   1.329
   19LEU      C  344  -0.167  -0.468   1.193
   19LEU      O  345  -0.151  -0.518   1.304
   20ILE      N  346  -0.268  -0.387   1.164
   20ILE      H  347  -0.277  -0.352   1.071
   20ILE     CA  348  -0.367  -0.348   1.265
   20ILE     HA  349  -0.314  -0.323   1.346
   20ILE     CB  350  -0.453  -0.230   1.213
   20ILE     HB  351  -0.485  -0.248   1.119
   20ILE    CG2  352  -0.575  -0.211   1.301
   20ILE   HG21  353  -0.630  -0.135   1.267
   20ILE   HG22  354  -0.630  -0.295   1.301
   20ILE   HG23  355  -0.546  -0.191   1.395
   20ILE    CG1  356  -0.369  -0.104   1.213
   20ILE   HG11  357  -0.294  -0.115   1.147
   20ILE   HG12  358  -0.332  -0.090   1.304
   20ILE     CD  359  -0.446   0.021   1.174
   20ILE    HD1  360  -0.385   0.100   1.176
   20ILE    HD2  361  -0.484   0.010   1.082
   20ILE    HD3  362  -0.521   0.035   1.239
   20ILE      C  363  -0.459  -0.464   1.298
   20ILE      O  364  -0.495  -0.484   1.414
   21LEU      N  365  -0.496  -0.540   1.198
   21LEU      H  366  -0.464  -0.518   1.106
   21LEU     CA  367  -0.582  -0.656   1.217
   21LEU     HA  368  -0.662  -0.621   1.266
   21LEU     CB  369  -0.623  -0.716   1.081
   21LEU    HB1  370  -0.638  -0.814   1.094
   21LEU    HB2  371  -0.548  -0.702   1.017
   21LEU     CG  372  -0.749  -0.660   1.015
   21LEU     HG  373  -0.736  -0.563   0.997
   21LEU    CD1  374  -0.773  -0.728   0.884
   21LEU   HD11  375  -0.855  -0.690   0.842
   21LEU   HD12  376  -0.695  -0.712   0.824
   21LEU   HD13  377  -0.785  -0.826   0.899
   21LEU    CD2  378  -0.868  -0.678   1.107
   21LEU   HD21  379  -0.950  -0.641   1.062
   21LEU   HD22  380  -0.882  -0.775   1.125
   21LEU   HD23  381  -0.852  -0.629   1.192
   21LEU      C  382  -0.512  -0.764   1.298
   21LEU    OC1  383  -0.416  -0.786   1.280
   21LEU    OC2  384  -0.574  -0.823   1.386
   1.80713   2.16666   2.96662
