Protein in water
21091
    1MET      N    1   1.905   2.021   3.792
    1MET     H1    2   1.878   1.998   3.699
    1MET     H2    3   2.005   2.023   3.799
    1MET     H3    4   1.869   1.952   3.855
    1MET     CA    5   1.851   2.153   3.828
    1MET     HA    6   1.752   2.145   3.819
    1MET     CB    7   1.892   2.189   3.972
    1MET    HB1    8   1.879   2.287   3.985
    1MET    HB2    9   1.988   2.165   3.985
    1MET     CG   10   1.811   2.115   4.076
    1MET    HG1   11   1.827   2.018   4.059
    1MET    HG2   12   1.715   2.137   4.055
    1MET     SD   13   1.858   2.165   4.242
    1MET     CE   14   1.722   2.097   4.337
    1MET    HE1   15   1.736   2.118   4.434
    1MET    HE2   16   1.636   2.137   4.306
    1MET    HE3   17   1.719   1.998   4.325
    1MET      C   18   1.907   2.260   3.735
    1MET      O   19   1.994   2.232   3.653
    2LYS      N   20   1.855   2.382   3.747
    2LYS      H   21   1.785   2.401   3.816
    2LYS     CA   22   1.901   2.489   3.658
    2LYS     HA   23   1.891   2.450   3.566
    2LYS     CB   24   1.814   2.613   3.676
    2LYS    HB1   25   1.725   2.595   3.632
    2LYS    HB2   26   1.859   2.690   3.630
    2LYS     CG   27   1.788   2.653   3.821
    2LYS    HG1   28   1.873   2.683   3.863
    2LYS    HG2   29   1.752   2.574   3.870
    2LYS     CD   30   1.687   2.766   3.827
    2LYS    HD1   31   1.602   2.737   3.782
    2LYS    HD2   32   1.724   2.845   3.779
    2LYS     CE   33   1.659   2.801   3.972
    2LYS    HE1   34   1.743   2.830   4.017
    2LYS    HE2   35   1.622   2.721   4.020
    2LYS     NZ   36   1.558   2.913   3.982
    2LYS    HZ1   37   1.542   2.934   4.078
    2LYS    HZ2   38   1.594   2.994   3.935
    2LYS    HZ3   39   1.473   2.884   3.938
    2LYS      C   40   2.049   2.526   3.678
    2LYS      O   41   2.108   2.596   3.595
    3LEU      N   42   2.109   2.474   3.783
    3LEU      H   43   2.055   2.421   3.848
    3LEU     CA   44   2.252   2.494   3.807
    3LEU     HA   45   2.264   2.593   3.815
    3LEU     CB   46   2.294   2.423   3.936
    3LEU    HB1   47   2.390   2.396   3.928
    3LEU    HB2   48   2.238   2.341   3.947
    3LEU     CG   49   2.280   2.510   4.062
    3LEU     HG   50   2.186   2.545   4.068
    3LEU    CD1   51   2.308   2.426   4.186
    3LEU   HD11   52   2.298   2.482   4.268
    3LEU   HD12   53   2.243   2.350   4.190
    3LEU   HD13   54   2.401   2.390   4.181
    3LEU    CD2   55   2.374   2.630   4.056
    3LEU   HD21   56   2.363   2.686   4.139
    3LEU   HD22   57   2.468   2.598   4.050
    3LEU   HD23   58   2.352   2.686   3.976
    3LEU      C   59   2.334   2.439   3.691
    3LEU      O   60   2.438   2.494   3.654
    4ALA      N   61   2.288   2.330   3.633
    4ALA      H   62   2.204   2.287   3.667
    4ALA     CA   63   2.358   2.269   3.519
    4ALA     HA   64   2.452   2.252   3.549
    4ALA     CB   65   2.290   2.138   3.481
    4ALA    HB1   66   2.337   2.096   3.404
    4ALA    HB2   67   2.292   2.075   3.559
    4ALA    HB3   68   2.195   2.156   3.456
    4ALA      C   69   2.359   2.365   3.400
    4ALA      O   70   2.459   2.378   3.329
    5VAL      N   71   2.248   2.432   3.379
    5VAL      H   72   2.169   2.416   3.438
    5VAL     CA   73   2.237   2.529   3.270
    5VAL     HA   74   2.264   2.480   3.188
    5VAL     CB   75   2.092   2.581   3.258
    5VAL     HB   76   2.063   2.624   3.344
    5VAL    CG1   77   2.083   2.687   3.149
    5VAL   HG11   78   1.989   2.720   3.142
    5VAL   HG12   79   2.144   2.764   3.171
    5VAL   HG13   80   2.111   2.647   3.061
    5VAL    CG2   81   1.997   2.465   3.228
    5VAL   HG21   82   1.903   2.500   3.221
    5VAL   HG22   83   2.023   2.422   3.142
    5VAL   HG23   84   2.002   2.398   3.303
    5VAL      C   85   2.332   2.647   3.294
    5VAL      O   86   2.399   2.693   3.201
    6ASP      N   87   2.338   2.693   3.417
    6ASP      H   88   2.281   2.653   3.488
    6ASP     CA   89   2.427   2.804   3.451
    6ASP     HA   90   2.400   2.879   3.390
    6ASP     CB   91   2.409   2.842   3.599
    6ASP    HB1   92   2.492   2.886   3.631
    6ASP    HB2   93   2.392   2.759   3.651
    6ASP     CG   94   2.292   2.937   3.620
    6ASP    OD1   95   2.228   2.976   3.521
    6ASP    OD2   96   2.266   2.973   3.737
    6ASP      C   97   2.574   2.767   3.426
    6ASP      O   98   2.652   2.847   3.376
    7ALA      N   99   2.610   2.643   3.461
    7ALA      H  100   2.543   2.581   3.502
    7ALA     CA  101   2.748   2.596   3.441
    7ALA     HA  102   2.807   2.661   3.489
    7ALA     CB  103   2.764   2.456   3.501
    7ALA    HB1  104   2.858   2.425   3.487
    7ALA    HB2  105   2.744   2.459   3.599
    7ALA    HB3  106   2.701   2.393   3.455
    7ALA      C  107   2.783   2.595   3.292
    7ALA      O  108   2.891   2.639   3.252
    8LEU      N  109   2.691   2.546   3.211
    8LEU      H  110   2.605   2.512   3.250
    8LEU     CA  111   2.711   2.541   3.067
    8LEU     HA  112   2.795   2.488   3.054
    8LEU     CB  113   2.592   2.473   2.999
    8LEU    HB1  114   2.578   2.516   2.910
    8LEU    HB2  115   2.511   2.487   3.056
    8LEU     CG  116   2.609   2.322   2.976
    8LEU     HG  117   2.635   2.278   3.062
    8LEU    CD1  118   2.478   2.262   2.929
    8LEU   HD11  119   2.490   2.164   2.914
    8LEU   HD12  120   2.408   2.277   2.998
    8LEU   HD13  121   2.450   2.306   2.843
    8LEU    CD2  122   2.720   2.296   2.874
    8LEU   HD21  123   2.730   2.198   2.860
    8LEU   HD22  124   2.696   2.340   2.787
    8LEU   HD23  125   2.806   2.334   2.908
    8LEU      C  126   2.729   2.682   3.009
    8LEU      O  127   2.821   2.707   2.930
    9LEU      N  128   2.643   2.772   3.048
    9LEU      H  129   2.571   2.746   3.113
    9LEU     CA  130   2.649   2.910   3.000
    9LEU     HA  131   2.644   2.903   2.900
    9LEU     CB  132   2.532   2.991   3.056
    9LEU    HB1  133   2.555   3.088   3.049
    9LEU    HB2  134   2.521   2.967   3.153
    9LEU     CG  135   2.398   2.967   2.985
    9LEU     HG  136   2.378   2.869   2.982
    9LEU    CD1  137   2.286   3.035   3.061
    9LEU   HD11  138   2.199   3.019   3.014
    9LEU   HD12  139   2.281   2.997   3.153
    9LEU   HD13  140   2.304   3.133   3.065
    9LEU    CD2  141   2.405   3.019   2.840
    9LEU   HD21  142   2.318   3.002   2.794
    9LEU   HD22  143   2.425   3.117   2.841
    9LEU   HD23  144   2.478   2.971   2.791
    9LEU      C  145   2.781   2.976   3.038
    9LEU      O  146   2.842   3.048   2.960
   10ARG      N  147   2.825   2.950   3.160
   10ARG      H  148   2.772   2.890   3.220
   10ARG     CA  149   2.950   3.009   3.209
   10ARG     HA  150   2.942   3.108   3.196
   10ARG     CB  151   2.968   2.975   3.357
   10ARG    HB1  152   3.008   2.884   3.366
   10ARG    HB2  153   2.878   2.977   3.402
   10ARG     CG  154   3.059   3.076   3.425
   10ARG    HG1  155   3.028   3.169   3.403
   10ARG    HG2  156   3.152   3.064   3.393
   10ARG     CD  157   3.056   3.058   3.575
   10ARG    HD1  158   3.096   2.970   3.600
   10ARG    HD2  159   2.962   3.063   3.608
   10ARG     NE  160   3.133   3.164   3.640
   10ARG     HE  161   3.230   3.172   3.617
   10ARG     CZ  162   3.083   3.249   3.727
   10ARG    NH1  163   2.956   3.244   3.762
   10ARG   HH11  164   2.896   3.174   3.723
   10ARG   HH12  165   2.919   3.310   3.829
   10ARG    NH2  166   3.160   3.343   3.780
   10ARG   HH21  167   3.256   3.349   3.753
   10ARG   HH22  168   3.122   3.408   3.846
   10ARG      C  169   3.070   2.958   3.129
   10ARG      O  170   3.157   3.034   3.090
   11THR      N  171   3.072   2.828   3.103
   11THR      H  172   2.998   2.770   3.137
   11THR     CA  173   3.180   2.768   3.026
   11THR     HA  174   3.264   2.792   3.076
   11THR     CB  175   3.163   2.616   3.017
   11THR     HB  176   3.079   2.593   2.970
   11THR    CG2  177   3.281   2.551   2.947
   11THR   HG21  178   3.268   2.452   2.942
   11THR   HG22  179   3.289   2.588   2.854
   11THR   HG23  180   3.365   2.571   2.997
   11THR    OG1  181   3.154   2.561   3.150
   11THR    HG1  182   3.143   2.462   3.144
   11THR      C  183   3.183   2.827   2.885
   11THR      O  184   3.289   2.859   2.831
   12PHE      N  185   3.067   2.842   2.826
   12PHE      H  186   2.983   2.815   2.873
   12PHE     CA  187   3.057   2.898   2.692
   12PHE     HA  188   3.117   2.843   2.634
   12PHE     CB  189   2.912   2.890   2.644
   12PHE    HB1  190   2.857   2.956   2.694
   12PHE    HB2  191   2.877   2.798   2.662
   12PHE     CG  192   2.898   2.918   2.497
   12PHE    CD1  193   2.938   2.824   2.403
   12PHE    HD1  194   2.975   2.736   2.434
   12PHE    CE1  195   2.926   2.849   2.267
   12PHE    HE1  196   2.956   2.780   2.200
   12PHE     CZ  197   2.874   2.970   2.223
   12PHE     HZ  198   2.865   2.989   2.125
   12PHE    CE2  199   2.834   3.066   2.316
   12PHE    HE2  200   2.796   3.153   2.285
   12PHE    CD2  201   2.846   3.039   2.452
   12PHE    HD2  202   2.818   3.108   2.519
   12PHE      C  203   3.105   3.043   2.689
   12PHE      O  204   3.174   3.086   2.597
   13ALA      N  205   3.068   3.120   2.791
   13ALA      H  206   3.011   3.081   2.863
   13ALA     CA  207   3.110   3.260   2.799
   13ALA     HA  208   3.078   3.303   2.715
   13ALA     CB  209   3.044   3.325   2.922
   13ALA    HB1  210   3.073   3.421   2.928
   13ALA    HB2  211   2.945   3.320   2.913
   13ALA    HB3  212   3.073   3.277   3.005
   13ALA      C  213   3.262   3.272   2.808
   13ALA      O  214   3.322   3.357   2.742
   14GLU      N  215   3.324   3.186   2.886
   14GLU      H  216   3.270   3.119   2.937
   14GLU     CA  217   3.469   3.187   2.899
   14GLU     HA  218   3.491   3.280   2.928
   14GLU     CB  219   3.514   3.084   3.003
   14GLU    HB1  220   3.602   3.046   2.975
   14GLU    HB2  221   3.446   3.011   3.008
   14GLU     CG  222   3.529   3.144   3.142
   14GLU    HG1  223   3.438   3.165   3.178
   14GLU    HG2  224   3.583   3.228   3.134
   14GLU     CD  225   3.599   3.050   3.238
   14GLU    OE1  226   3.632   2.937   3.198
   14GLU    OE2  227   3.621   3.088   3.352
   14GLU      C  228   3.536   3.156   2.766
   14GLU      O  229   3.633   3.220   2.725
   15SER      N  230   3.484   3.055   2.697
   15SER      H  231   3.405   3.006   2.735
   15SER     CA  232   3.538   3.015   2.568
   15SER     HA  233   3.634   2.994   2.584
   15SER     CB  234   3.464   2.892   2.516
   15SER    HB1  235   3.370   2.916   2.490
   15SER    HB2  236   3.462   2.820   2.585
   15SER     OG  237   3.526   2.839   2.402
   15SER     HG  238   3.475   2.759   2.370
   15SER      C  239   3.526   3.130   2.468
   15SER      O  240   3.619   3.161   2.393
   16SER      N  241   3.410   3.194   2.466
   16SER      H  242   3.338   3.164   2.528
   16SER     CA  243   3.385   3.306   2.377
   16SER     HA  244   3.402   3.272   2.285
   16SER     CB  245   3.240   3.353   2.391
   16SER    HB1  246   3.224   3.392   2.482
   16SER    HB2  247   3.177   3.277   2.377
   16SER     OG  248   3.209   3.452   2.296
   16SER     HG  249   3.113   3.481   2.307
   16SER      C  250   3.480   3.423   2.407
   16SER      O  251   3.529   3.490   2.315
   17ASP      N  252   3.505   3.447   2.535
   17ASP      H  253   3.463   3.390   2.605
   17ASP     CA  254   3.594   3.556   2.575
   17ASP     HA  255   3.554   3.639   2.535
   17ASP     CB  256   3.598   3.567   2.728
   17ASP    HB1  257   3.650   3.490   2.765
   17ASP    HB2  258   3.505   3.564   2.764
   17ASP     CG  259   3.663   3.696   2.775
   17ASP    OD1  260   3.636   3.801   2.713
   17ASP    OD2  261   3.741   3.692   2.872
   17ASP      C  262   3.736   3.536   2.521
   17ASP      O  263   3.802   3.630   2.476
   18LYS      N  264   3.784   3.411   2.524
   18LYS      H  265   3.727   3.338   2.562
   18LYS     CA  266   3.917   3.380   2.473
   18LYS     HA  267   3.980   3.443   2.519
   18LYS     CB  268   3.952   3.234   2.506
   18LYS    HB1  269   4.021   3.201   2.441
   18LYS    HB2  270   3.869   3.178   2.498
   18LYS     CG  271   4.007   3.222   2.648
   18LYS    HG1  272   3.950   3.275   2.711
   18LYS    HG2  273   4.101   3.257   2.650
   18LYS     CD  274   4.008   3.076   2.694
   18LYS    HD1  275   3.923   3.032   2.665
   18LYS    HD2  276   4.015   3.072   2.794
   18LYS     CE  277   4.122   3.000   2.636
   18LYS    HE1  278   4.208   3.043   2.663
   18LYS    HE2  279   4.115   2.999   2.537
   18LYS     NZ  280   4.119   2.860   2.688
   18LYS    HZ1  281   4.196   2.809   2.649
   18LYS    HZ2  282   4.127   2.861   2.787
   18LYS    HZ3  283   4.033   2.817   2.661
   18LYS      C  284   3.924   3.401   2.322
   18LYS      O  285   4.021   3.457   2.271
   19LEU      N  286   3.821   3.357   2.252
   19LEU      H  287   3.746   3.311   2.300
   19LEU     CA  288   3.814   3.373   2.107
   19LEU     HA  289   3.900   3.334   2.073
   19LEU     CB  290   3.693   3.297   2.049
   19LEU    HB1  291   3.671   3.337   1.961
   19LEU    HB2  292   3.616   3.309   2.112
   19LEU     CG  293   3.717   3.147   2.030
   19LEU     HG  294   3.747   3.106   2.116
   19LEU    CD1  295   3.586   3.081   1.988
   19LEU   HD11  296   3.601   2.983   1.976
   19LEU   HD12  297   3.517   3.095   2.060
   19LEU   HD13  298   3.554   3.121   1.903
   19LEU    CD2  299   3.825   3.124   1.923
   19LEU   HD21  300   3.839   3.026   1.910
   19LEU   HD22  301   3.795   3.165   1.836
   19LEU   HD23  302   3.910   3.167   1.952
   19LEU      C  303   3.804   3.520   2.069
   19LEU      O  304   3.864   3.565   1.972
   20ARG      N  305   3.725   3.595   2.145
   20ARG      H  306   3.679   3.553   2.223
   20ARG     CA  307   3.706   3.736   2.118
   20ARG     HA  308   3.674   3.741   2.023
   20ARG     CB  309   3.602   3.794   2.215
   20ARG    HB1  310   3.643   3.801   2.306
   20ARG    HB2  311   3.523   3.732   2.219
   20ARG     CG  312   3.554   3.931   2.173
   20ARG    HG1  313   3.520   3.925   2.080
   20ARG    HG2  314   3.632   3.994   2.177
   20ARG     CD  315   3.445   3.982   2.263
   20ARG    HD1  316   3.478   3.992   2.357
   20ARG    HD2  317   3.367   3.919   2.262
   20ARG     NE  318   3.398   4.112   2.219
   20ARG     HE  319   3.338   4.114   2.139
   20ARG     CZ  320   3.428   4.227   2.279
   20ARG    NH1  321   3.498   4.230   2.390
   20ARG   HH11  322   3.530   4.144   2.431
   20ARG   HH12  323   3.520   4.317   2.434
   20ARG    NH2  324   3.386   4.341   2.225
   20ARG   HH21  325   3.332   4.340   2.141
   20ARG   HH22  326   3.408   4.428   2.269
   20ARG      C  327   3.835   3.815   2.129
   20ARG      O  328   3.859   3.910   2.054
   21ARG      N  329   3.916   3.776   2.225
   21ARG      H  330   3.889   3.701   2.286
   21ARG     CA  331   4.045   3.841   2.242
   21ARG     HA  332   4.024   3.939   2.243
   21ARG     CB  333   4.112   3.798   2.372
   21ARG    HB1  334   4.151   3.707   2.361
   21ARG    HB2  335   4.045   3.798   2.446
   21ARG     CG  336   4.224   3.895   2.407
   21ARG    HG1  337   4.187   3.988   2.407
   21ARG    HG2  338   4.296   3.887   2.338
   21ARG     CD  339   4.283   3.866   2.543
   21ARG    HD1  340   4.326   3.776   2.544
   21ARG    HD2  341   4.212   3.871   2.613
   21ARG     NE  342   4.384   3.967   2.571
   21ARG     HE  343   4.354   4.061   2.586
   21ARG     CZ  344   4.513   3.942   2.580
   21ARG    NH1  345   4.556   3.819   2.571
   21ARG   HH11  346   4.492   3.744   2.557
   21ARG   HH12  347   4.654   3.800   2.577
   21ARG    NH2  348   4.600   4.041   2.596
   21ARG   HH21  349   4.568   4.136   2.601
   21ARG   HH22  350   4.698   4.021   2.602
   21ARG      C  351   4.137   3.809   2.126
   21ARG    OC1  352   4.147   3.715   2.093
   21ARG    OC2  353   4.203   3.906   2.073
   22SOL     OW  354   0.230   0.628   0.113
   22SOL    HW1  355   0.137   0.626   0.150
   22SOL    HW2  356   0.231   0.589   0.021
   23SOL     OW  357   0.225   0.275   0.996
   23SOL    HW1  358   0.260   0.258   1.088
   23SOL    HW2  359   0.137   0.230   0.984
   24SOL     OW  360   0.019   0.368   0.647
   24SOL    HW1  361  -0.063   0.411   0.686
   24SOL    HW2  362  -0.009   0.295   0.584
   25SOL     OW  363   0.569   1.275   1.165
   25SOL    HW1  364   0.476   1.268   1.128
   25SOL    HW2  365   0.580   1.364   1.209
   26SOL     OW  366   1.555   1.511   0.703
   26SOL    HW1  367   1.498   1.495   0.784
   26SOL    HW2  368   1.496   1.521   0.623
   27SOL     OW  369   1.135   0.703   0.717
   27SOL    HW1  370   1.192   0.781   0.692
   27SOL    HW2  371   1.075   0.729   0.793
   28SOL     OW  372   1.755   0.607   0.231
   28SOL    HW1  373   1.743   0.594   0.132
   28SOL    HW2  374   1.725   0.526   0.280
   29SOL     OW  375   0.768   1.144   1.023
   29SOL    HW1  376   0.690   1.161   1.083
   29SOL    HW2  377   0.802   1.231   0.987
   30SOL     OW  378   0.850   0.798   1.823
   30SOL    HW1  379   0.846   0.874   1.888
   30SOL    HW2  380   0.872   0.834   1.732
   31SOL     OW  381   0.685   1.012   0.665
   31SOL    HW1  382   0.754   0.996   0.735
   31SOL    HW2  383   0.612   1.069   0.703
   32SOL     OW  384   0.686   1.161   1.803
   32SOL    HW1  385   0.746   1.240   1.817
   32SOL    HW2  386   0.600   1.192   1.762
   33SOL     OW  387   0.335   1.435   1.061
   33SOL    HW1  388   0.257   1.404   1.008
   33SOL    HW2  389   0.393   1.493   1.004
   34SOL     OW  390   1.460   1.505   1.339
   34SOL    HW1  391   1.484   1.599   1.365
   34SOL    HW2  392   1.444   1.451   1.421
   35SOL     OW  393   0.438   0.392   1.499
   35SOL    HW1  394   0.520   0.336   1.508
   35SOL    HW2  395   0.357   0.334   1.503
   36SOL     OW  396   1.603   0.447   0.737
   36SOL    HW1  397   1.529   0.493   0.687
   36SOL    HW2  398   1.654   0.515   0.790
   37SOL     OW  399   0.231   1.713   0.483
   37SOL    HW1  400   0.265   1.790   0.537
   37SOL    HW2  401   0.275   1.713   0.393
   38SOL     OW  402   1.127   1.341   1.690
   38SOL    HW1  403   1.174   1.341   1.778
   38SOL    HW2  404   1.079   1.254   1.679
   39SOL     OW  405   0.230   1.434   0.538
   39SOL    HW1  406   0.204   1.530   0.538
   39SOL    HW2  407   0.159   1.380   0.583
   40SOL     OW  408   0.240   1.091   0.886
   40SOL    HW1  409   0.254   1.007   0.938
   40SOL    HW2  410   0.185   1.155   0.941
   41SOL     OW  411   0.620   1.786   1.439
   41SOL    HW1  412   0.528   1.769   1.474
   41SOL    HW2  413   0.648   1.878   1.465
   42SOL     OW  414   0.606   0.964   0.123
   42SOL    HW1  415   0.613   1.048   0.069
   42SOL    HW2  416   0.652   0.977   0.211
   43SOL     OW  417   1.594   0.114   1.480
   43SOL    HW1  418   1.576   0.181   1.408
   43SOL    HW2  419   1.591   0.160   1.569
   44SOL     OW  420   0.122   0.643   0.563
   44SOL    HW1  421   0.077   0.555   0.580
   44SOL    HW2  422   0.121   0.697   0.647
   45SOL     OW  423   1.842   1.767   0.359
   45SOL    HW1  424   1.896   1.738   0.439
   45SOL    HW2  425   1.872   1.857   0.330
   46SOL     OW  426   0.027   1.596   0.117
   46SOL    HW1  427   0.008   1.500   0.138
   46SOL    HW2  428  -0.006   1.654   0.192
   47SOL     OW  429   1.689   0.922   0.612
   47SOL    HW1  430   1.784   0.893   0.620
   47SOL    HW2  431   1.681   0.987   0.537
   48SOL     OW  432   1.641   1.108   0.432
   48SOL    HW1  433   1.727   1.110   0.380
   48SOL    HW2  434   1.655   1.155   0.520
   49SOL     OW  435   0.113   0.737   1.597
   49SOL    HW1  436   0.201   0.724   1.642
   49SOL    HW2  437   0.100   0.834   1.575
   50SOL     OW  438   0.613   1.365   0.726
   50SOL    HW1  439   0.564   1.278   0.735
   50SOL    HW2  440   0.590   1.408   0.639
   51SOL     OW  441   1.293   1.228   1.423
   51SOL    HW1  442   1.330   1.155   1.365
   51SOL    HW2  443   1.345   1.233   1.508
   52SOL     OW  444   0.809   0.004   0.502
   52SOL    HW1  445   0.849   0.095   0.493
   52SOL    HW2  446   0.709   0.012   0.508
   53SOL     OW  447   0.197   0.976   1.264
   53SOL    HW1  448   0.286   0.931   1.250
   53SOL    HW2  449   0.124   0.911   1.245
   54SOL     OW  450   1.525   0.999   0.190
   54SOL    HW1  451   1.462   0.923   0.203
   54SOL    HW2  452   1.573   1.017   0.276
   55SOL     OW  453   1.187   1.792   1.616
   55SOL    HW1  454   1.211   1.852   1.540
   55SOL    HW2  455   1.194   1.697   1.586
   56SOL     OW  456   0.317   0.251   1.801
   56SOL    HW1  457   0.388   0.322   1.807
   56SOL    HW2  458   0.229   0.290   1.829
   57SOL     OW  459   1.466   1.417   0.953
   57SOL    HW1  460   1.407   1.423   1.033
   57SOL    HW2  461   1.451   1.329   0.907
   58SOL     OW  462   1.667   1.714   0.572
   58SOL    HW1  463   1.626   1.691   0.484
   58SOL    HW2  464   1.649   1.640   0.637
   59SOL     OW  465   0.598   0.729   0.270
   59SOL    HW1  466   0.622   0.798   0.202
   59SOL    HW2  467   0.520   0.762   0.324
   60SOL     OW  468   1.281   0.345   0.944
   60SOL    HW1  469   1.195   0.295   0.931
   60SOL    HW2  470   1.343   0.291   1.000
   61SOL     OW  471   1.576   1.662   0.307
   61SOL    HW1  472   1.665   1.708   0.310
   61SOL    HW2  473   1.555   1.638   0.212
   62SOL     OW  474   0.807   0.605   1.465
   62SOL    HW1  475   0.760   0.602   1.554
   62SOL    HW2  476   0.756   0.550   1.399
   63SOL     OW  477   1.394   0.469   1.674
   63SOL    HW1  478   1.374   0.512   1.762
   63SOL    HW2  479   1.472   0.407   1.683
   64SOL     OW  480   0.973   0.890   1.572
   64SOL    HW1  481   1.019   0.806   1.543
   64SOL    HW2  482   0.917   0.924   1.497
   65SOL     OW  483   0.991   0.410   1.242
   65SOL    HW1  484   0.914   0.444   1.296
   65SOL    HW2  485   0.957   0.359   1.163
   66SOL     OW  486   1.041   0.701   0.429
   66SOL    HW1  487   1.067   0.697   0.525
   66SOL    HW2  488   0.956   0.650   0.415
   67SOL     OW  489   0.076   0.811   0.789
   67SOL    HW1  490   0.175   0.799   0.798
   67SOL    HW2  491   0.052   0.906   0.810
   68SOL     OW  492   0.130   1.821   1.571
   68SOL    HW1  493   0.120   1.806   1.670
   68SOL    HW2  494   0.044   1.857   1.535
   69SOL     OW  495   0.865   0.348   0.195
   69SOL    HW1  496   0.924   0.411   0.146
   69SOL    HW2  497   0.884   0.254   0.166
   70SOL     OW  498   1.719   0.585   1.831
   70SOL    HW1  499   1.693   0.674   1.795
   70SOL    HW2  500   1.717   0.517   1.758
   71SOL     OW  501   1.362   1.144   0.545
   71SOL    HW1  502   1.445   1.115   0.497
   71SOL    HW2  503   1.313   1.211   0.489
   72SOL     OW  504   0.550   0.196   0.885
   72SOL    HW1  505   0.545   0.191   0.985
   72SOL    HW2  506   0.552   0.292   0.856
   73SOL     OW  507   1.008   1.456   0.477
   73SOL    HW1  508   0.962   1.528   0.425
   73SOL    HW2  509   1.004   1.476   0.575
   74SOL     OW  510   0.351   1.801   0.853
   74SOL    HW1  511   0.401   1.715   0.859
   74SOL    HW2  512   0.416   1.878   0.850
   75SOL     OW  513   1.795   1.066   0.873
   75SOL    HW1  514   1.733   1.051   0.797
   75SOL    HW2  515   1.743   1.077   0.958
   76SOL     OW  516   1.227   1.550   1.506
   76SOL    HW1  517   1.233   1.473   1.570
   76SOL    HW2  518   1.175   1.524   1.426
   77SOL     OW  519   0.321   0.943   0.242
   77SOL    HW1  520   0.403   0.982   0.200
   77SOL    HW2  521   0.294   0.861   0.193
   78SOL     OW  522   1.458   0.735   0.728
   78SOL    HW1  523   1.453   0.670   0.803
   78SOL    HW2  524   1.538   0.794   0.741
   79SOL     OW  525   0.461   1.266   1.727
   79SOL    HW1  526   0.411   1.267   1.641
   79SOL    HW2  527   0.398   1.248   1.803
   80SOL     OW  528   1.111   1.776   0.237
   80SOL    HW1  529   1.051   1.714   0.287
   80SOL    HW2  530   1.142   1.732   0.152
   81SOL     OW  531   0.202   0.285   1.498
   81SOL    HW1  532   0.122   0.345   1.485
   81SOL    HW2  533   0.192   0.236   1.584
   82SOL     OW  534   1.632   1.377   0.081
   82SOL    HW1  535   1.600   1.471   0.071
   82SOL    HW2  536   1.556   1.314   0.069
   83SOL     OW  537   0.464   1.743   0.323
   83SOL    HW1  538   0.497   1.782   0.409
   83SOL    HW2  539   0.540   1.736   0.258
   84SOL     OW  540   1.400   0.107   0.426
   84SOL    HW1  541   1.376   0.070   0.336
   84SOL    HW2  542   1.499   0.123   0.430
   85SOL     OW  543   0.249   1.785   1.241
   85SOL    HW1  544   0.306   1.720   1.291
   85SOL    HW2  545   0.233   1.752   1.148
   86SOL     OW  546   0.940   1.698   0.904
   86SOL    HW1  547   1.020   1.641   0.925
   86SOL    HW2  548   0.891   1.658   0.827
   87SOL     OW  549   0.382   0.700   0.480
   87SOL    HW1  550   0.427   0.610   0.477
   87SOL    HW2  551   0.288   0.689   0.513
   88SOL     OW  552   1.547   0.222   1.729
   88SOL    HW1  553   1.542   0.259   1.821
   88SOL    HW2  554   1.475   0.153   1.717
   89SOL     OW  555   0.614   0.122   0.117
   89SOL    HW1  556   0.712   0.100   0.124
   89SOL    HW2  557   0.583   0.105   0.024
   90SOL     OW  558   0.781   0.264   1.749
   90SOL    HW1  559   0.848   0.203   1.792
   90SOL    HW2  560   0.708   0.283   1.814
   91SOL     OW  561   0.888   1.514   1.195
   91SOL    HW1  562   0.865   1.489   1.101
   91SOL    HW2  563   0.949   1.445   1.234
   92SOL     OW  564   1.351   0.590   1.433
   92SOL    HW1  565   1.379   0.547   1.518
   92SOL    HW2  566   1.376   0.686   1.434
   93SOL     OW  567   0.803   1.402   0.924
   93SOL    HW1  568   0.893   1.416   0.882
   93SOL    HW2  569   0.732   1.404   0.853
   94SOL     OW  570   0.922   0.503   0.899
   94SOL    HW1  571   0.897   0.494   0.803
   94SOL    HW2  572   0.970   0.421   0.930
   95SOL     OW  573   0.539   0.064   0.512
   95SOL    HW1  574   0.458   0.065   0.570
   95SOL    HW2  575   0.542   0.147   0.457
   96SOL     OW  576   1.434   1.188   0.041
   96SOL    HW1  577   1.466   1.112   0.098
   96SOL    HW2  578   1.342   1.215   0.071
   97SOL     OW  579   0.297   0.035   0.171
   97SOL    HW1  580   0.346   0.119   0.150
   97SOL    HW2  581   0.359  -0.030   0.216
   98SOL     OW  582   0.935   0.236   0.480
   98SOL    HW1  583   0.887   0.277   0.402
   98SOL    HW2  584   1.034   0.234   0.461
   99SOL     OW  585   1.076   0.683   1.464
   99SOL    HW1  586   0.996   0.622   1.467
   99SOL    HW2  587   1.157   0.630   1.440
  100SOL     OW  588   1.227   1.570   0.793
  100SOL    HW1  589   1.248   1.644   0.728
  100SOL    HW2  590   1.295   1.570   0.866
  101SOL     OW  591   0.459   1.152   0.741
  101SOL    HW1  592   0.388   1.125   0.806
  101SOL    HW2  593   0.433   1.124   0.648
  102SOL     OW  594   1.271   1.797   0.591
  102SOL    HW1  595   1.315   1.861   0.527
  102SOL    HW2  596   1.221   1.849   0.661
  103SOL     OW  597   1.032   0.549   0.016
  103SOL    HW1  598   0.991   0.631  -0.023
  103SOL    HW2  599   1.096   0.575   0.089
  104SOL     OW  600   0.078   0.556   1.386
  104SOL    HW1  601   0.170   0.555   1.345
  104SOL    HW2  602   0.072   0.630   1.453
  105SOL     OW  603   0.561   0.222   1.147
  105SOL    HW1  604   0.599   0.138   1.184
  105SOL    HW2  605   0.473   0.241   1.191
  106SOL     OW  606   0.866   0.454   0.642
  106SOL    HW1  607   0.834   0.526   0.580
  106SOL    HW2  608   0.890   0.373   0.589
  107SOL     OW  609   1.017   0.039   0.753
  107SOL    HW1  610   0.945   0.044   0.684
  107SOL    HW2  611   0.993  -0.030   0.822
  108SOL     OW  612   1.429   1.173   0.867
  108SOL    HW1  613   1.374   1.089   0.860
  108SOL    HW2  614   1.455   1.202   0.775
  109SOL     OW  615   1.466   0.590   0.992
  109SOL    HW1  616   1.436   0.495   0.999
  109SOL    HW2  617   1.539   0.606   1.058
  110SOL     OW  618   1.857   0.833   0.377
  110SOL    HW1  619   1.899   0.769   0.441
  110SOL    HW2  620   1.819   0.782   0.299
  111SOL     OW  621   0.488   1.385   0.174
  111SOL    HW1  622   0.401   1.370   0.221
  111SOL    HW2  623   0.471   1.411   0.079
  112SOL     OW  624   1.664   1.280   0.657
  112SOL    HW1  625   1.763   1.288   0.671
  112SOL    HW2  626   1.619   1.364   0.688
  113SOL     OW  627   1.390   0.575   0.078
  113SOL    HW1  628   1.336   0.554   0.159
  113SOL    HW2  629   1.481   0.534   0.087
  114SOL     OW  630   0.527   0.256   0.328
  114SOL    HW1  631   0.554   0.197   0.253
  114SOL    HW2  632   0.527   0.351   0.297
  115SOL     OW  633   1.754   1.223   1.588
  115SOL    HW1  634   1.845   1.184   1.575
  115SOL    HW2  635   1.762   1.319   1.612
  116SOL     OW  636   1.064   1.347   1.340
  116SOL    HW1  637   0.984   1.324   1.395
  116SOL    HW2  638   1.147   1.321   1.389
  117SOL     OW  639   1.592   1.629   1.625
  117SOL    HW1  640   1.619   1.663   1.535
  117SOL    HW2  641   1.671   1.591   1.671
  118SOL     OW  642   1.111   1.195   1.100
  118SOL    HW1  643   1.071   1.239   1.181
  118SOL    HW2  644   1.070   1.232   1.017
  119SOL     OW  645   1.638   1.099   1.079
  119SOL    HW1  646   1.643   1.180   1.138
  119SOL    HW2  647   1.552   1.101   1.028
  120SOL     OW  648   0.915   0.089   1.402
  120SOL    HW1  649   0.940   0.069   1.307
  120SOL    HW2  650   0.987   0.145   1.444
  121SOL     OW  651   0.980   1.116   1.719
  121SOL    HW1  652   0.881   1.122   1.729
  121SOL    HW2  653   1.003   1.036   1.663
  122SOL     OW  654   0.705   1.050   0.368
  122SOL    HW1  655   0.691   1.057   0.467
  122SOL    HW2  656   0.789   0.999   0.350
  123SOL     OW  657   0.410   0.813   1.251
  123SOL    HW1  658   0.496   0.825   1.301
  123SOL    HW2  659   0.368   0.726   1.278
  124SOL     OW  660   1.274   0.386   1.262
  124SOL    HW1  661   1.295   0.460   1.326
  124SOL    HW2  662   1.185   0.403   1.219
  125SOL     OW  663   0.064   1.564   1.331
  125SOL    HW1  664   0.018   1.646   1.297
  125SOL    HW2  665   0.162   1.583   1.340
  126SOL     OW  666   0.367   1.100   0.501
  126SOL    HW1  667   0.360   1.183   0.445
  126SOL    HW2  668   0.371   1.020   0.441
  127SOL     OW  669   0.566   0.537   0.865
  127SOL    HW1  670   0.578   0.603   0.791
  127SOL    HW2  671   0.612   0.571   0.948
  128SOL     OW  672   1.252   1.348   0.388
  128SOL    HW1  673   1.302   1.425   0.428
  128SOL    HW2  674   1.157   1.350   0.420
  129SOL     OW  675   1.272   1.445   1.142
  129SOL    HW1  676   1.319   1.458   1.229
  129SOL    HW2  677   1.206   1.371   1.151
  130SOL     OW  678   1.582   0.639   0.472
  130SOL    HW1  679   1.551   0.700   0.545
  130SOL    HW2  680   1.632   0.691   0.403
  131SOL     OW  681   0.354   1.510   1.329
  131SOL    HW1  682   0.333   1.466   1.242
  131SOL    HW2  683   0.451   1.536   1.332
  132SOL     OW  684   0.402   0.751   1.598
  132SOL    HW1  685   0.470   0.806   1.551
  132SOL    HW2  686   0.442   0.663   1.625
  133SOL     OW  687   1.587   0.779   1.670
  133SOL    HW1  688   1.495   0.817   1.665
  133SOL    HW2  689   1.647   0.826   1.605
  134SOL     OW  690   1.013   0.105   1.770
  134SOL    HW1  691   1.019   0.190   1.718
  134SOL    HW2  692   1.045   0.029   1.713
  135SOL     OW  693   0.504   0.050   1.740
  135SOL    HW1  694   0.462  -0.007   1.670
  135SOL    HW2  695   0.438   0.119   1.772
  136SOL     OW  696   0.573   0.870   1.029
  136SOL    HW1  697   0.617   0.959   1.020
  136SOL    HW2  698   0.510   0.870   1.106
  137SOL     OW  699   1.360   0.862   1.045
  137SOL    HW1  700   1.285   0.862   0.979
  137SOL    HW2  701   1.397   0.770   1.054
  138SOL     OW  702   1.209   0.525   0.275
  138SOL    HW1  703   1.222   0.441   0.329
  138SOL    HW2  704   1.180   0.599   0.335
  139SOL     OW  705   0.307   0.213   1.231
  139SOL    HW1  706   0.284   0.250   1.321
  139SOL    HW2  707   0.277   0.118   1.225
  140SOL     OW  708   0.037   1.310   1.282
  140SOL    HW1  709   0.090   1.261   1.350
  140SOL    HW2  710   0.059   1.408   1.287
  141SOL     OW  711   0.732   0.634   1.064
  141SOL    HW1  712   0.791   0.608   0.988
  141SOL    HW2  713   0.704   0.730   1.053
  142SOL     OW  714   1.728   0.935   1.854
  142SOL    HW1  715   1.682   0.928   1.765
  142SOL    HW2  716   1.666   0.979   1.920
  143SOL     OW  717   0.307   0.063   0.618
  143SOL    HW1  718   0.296   0.157   0.651
  143SOL    HW2  719   0.302   0.000   0.695
  144SOL     OW  720   1.622   0.367   0.374
  144SOL    HW1  721   1.624   0.291   0.438
  144SOL    HW2  722   1.574   0.444   0.414
  145SOL     OW  723   1.023   0.766   0.966
  145SOL    HW1  724   1.038   0.787   1.062
  145SOL    HW2  725   0.993   0.671   0.957
  146SOL     OW  726   0.980   1.573   1.700
  146SOL    HW1  727   0.960   1.617   1.612
  146SOL    HW2  728   1.019   1.482   1.684
  147SOL     OW  729   1.859   1.518   1.605
  147SOL    HW1  730   1.873   1.545   1.510
  147SOL    HW2  731   1.942   1.540   1.658
  148SOL     OW  732   0.350   0.898   1.804
  148SOL    HW1  733   0.426   0.942   1.852
  148SOL    HW2  734   0.385   0.851   1.722
  149SOL     OW  735   1.540   0.274   0.125
  149SOL    HW1  736   1.479   0.199   0.148
  149SOL    HW2  737   1.562   0.326   0.208
  150SOL     OW  738   1.303   0.838   0.042
  150SOL    HW1  739   1.337   0.745   0.057
  150SOL    HW2  740   1.321   0.865  -0.053
  151SOL     OW  741   1.068   1.333   0.849
  151SOL    HW1  742   1.075   1.249   0.794
  151SOL    HW2  743   1.130   1.402   0.813
  152SOL     OW  744   0.319   0.810   0.949
  152SOL    HW1  745   0.412   0.846   0.954
  152SOL    HW2  746   0.313   0.725   1.001
  153SOL     OW  747   0.339   0.509   1.006
  153SOL    HW1  748   0.287   0.426   0.989
  153SOL    HW2  749   0.416   0.514   0.942
  154SOL     OW  750   1.138   0.380   1.678
  154SOL    HW1  751   1.093   0.443   1.742
  154SOL    HW2  752   1.231   0.411   1.661
  155SOL     OW  753   1.160   0.207   1.477
  155SOL    HW1  754   1.160   0.271   1.554
  155SOL    HW2  755   1.188   0.255   1.394
  156SOL     OW  756   0.008   1.326   0.200
  156SOL    HW1  757  -0.085   1.347   0.169
  156SOL    HW2  758   0.018   1.227   0.213
  157SOL     OW  759   0.088   1.801   0.927
  157SOL    HW1  760   0.046   1.715   0.900
  157SOL    HW2  761   0.182   1.804   0.893
  158SOL     OW  762   0.504   1.568   0.910
  158SOL    HW1  763   0.570   1.642   0.919
  158SOL    HW2  764   0.548   1.489   0.868
  159SOL     OW  765   1.002   0.796   1.238
  159SOL    HW1  766   1.043   0.764   1.324
  159SOL    HW2  767   0.906   0.769   1.235
  160SOL     OW  768   0.040   0.544   1.114
  160SOL    HW1  769   0.125   0.511   1.073
  160SOL    HW2  770   0.053   0.559   1.212
  161SOL     OW  771   0.189   0.520   1.722
  161SOL    HW1  772   0.248   0.480   1.652
  161SOL    HW2  773   0.131   0.591   1.681
  162SOL     OW  774   1.369   0.950   1.660
  162SOL    HW1  775   1.408   1.039   1.680
  162SOL    HW2  776   1.379   0.930   1.563
  163SOL     OW  777   0.815   0.572   0.325
  163SOL    HW1  778   0.822   0.483   0.279
  163SOL    HW2  779   0.721   0.606   0.317
  164SOL     OW  780   1.657   0.604   1.206
  164SOL    HW1  781   1.619   0.535   1.268
  164SOL    HW2  782   1.739   0.568   1.162
  165SOL     OW  783   0.252   1.564   1.744
  165SOL    HW1  784   0.222   1.621   1.820
  165SOL    HW2  785   0.245   1.467   1.770
  166SOL     OW  786   0.671   0.464   1.269
  166SOL    HW1  787   0.637   0.375   1.239
  166SOL    HW2  788   0.697   0.518   1.189
  167SOL     OW  789   0.930   1.678   1.465
  167SOL    HW1  790   0.906   1.660   1.370
  167SOL    HW2  791   0.960   1.772   1.475
  168SOL     OW  792   0.473   0.500   0.191
  168SOL    HW1  793   0.534   0.580   0.195
  168SOL    HW2  794   0.378   0.531   0.198
  169SOL     OW  795   0.159   1.137   1.466
  169SOL    HW1  796   0.181   1.076   1.542
  169SOL    HW2  797   0.169   1.088   1.380
  170SOL     OW  798   1.347   1.059   1.234
  170SOL    HW1  799   1.371   0.996   1.160
  170SOL    HW2  800   1.257   1.099   1.216
  171SOL     OW  801   1.302   0.855   0.309
  171SOL    HW1  802   1.216   0.824   0.351
  171SOL    HW2  803   1.298   0.841   0.210
  172SOL     OW  804   1.759   1.747   1.154
  172SOL    HW1  805   1.820   1.777   1.081
  172SOL    HW2  806   1.721   1.658   1.132
  173SOL     OW  807   1.252   1.731   1.128
  173SOL    HW1  808   1.336   1.736   1.074
  173SOL    HW2  809   1.229   1.635   1.146
  174SOL     OW  810   0.083   1.258   1.022
  174SOL    HW1  811   0.078   1.257   1.122
  174SOL    HW2  812   0.000   1.217   0.984
  175SOL     OW  813   0.688   1.662   1.716
  175SOL    HW1  814   0.632   1.743   1.725
  175SOL    HW2  815   0.740   1.666   1.630
  176SOL     OW  816   0.903   0.086   0.133
  176SOL    HW1  817   0.954   0.087   0.047
  176SOL    HW2  818   0.959   0.044   0.204
  177SOL     OW  819   1.726   0.135   0.523
  177SOL    HW1  820   1.799   0.118   0.456
  177SOL    HW2  821   1.695   0.048   0.561
  178SOL     OW  822   1.388   1.573   0.477
  178SOL    HW1  823   1.455   1.585   0.403
  178SOL    HW2  824   1.348   1.662   0.500
  179SOL     OW  825   0.130   1.794   1.851
  179SOL    HW1  826   0.089   1.720   1.904
  179SOL    HW2  827   0.194   1.845   1.909
  180SOL     OW  828   1.280   0.927   0.672
  180SOL    HW1  829   1.340   0.846   0.674
  180SOL    HW2  830   1.320   0.996   0.612
  181SOL     OW  831   0.830   1.273   1.422
  181SOL    HW1  832   0.825   1.306   1.517
  181SOL    HW2  833   0.744   1.292   1.376
  182SOL     OW  834   0.672   1.616   0.154
  182SOL    HW1  835   0.681   1.626   0.055
  182SOL    HW2  836   0.632   1.527   0.175
  183SOL     OW  837   1.650   1.720   1.394
  183SOL    HW1  838   1.703   1.730   1.310
  183SOL    HW2  839   1.623   1.810   1.428
  184SOL     OW  840   1.841   0.175   0.963
  184SOL    HW1  841   1.880   0.090   0.927
  184SOL    HW2  842   1.743   0.177   0.944
  185SOL     OW  843   0.263   0.326   0.720
  185SOL    HW1  844   0.184   0.377   0.686
  185SOL    HW2  845   0.254   0.311   0.818
  186SOL     OW  846   1.194   1.612   0.031
  186SOL    HW1  847   1.200   1.519   0.068
  186SOL    HW2  848   1.135   1.612  -0.049
  187SOL     OW  849   0.822   1.002   1.372
  187SOL    HW1  850   0.862   1.001   1.280
  187SOL    HW2  851   0.832   1.094   1.412
  188SOL     OW  852   0.916   0.910   0.291
  188SOL    HW1  853   0.979   0.948   0.223
  188SOL    HW2  854   0.956   0.827   0.330
  189SOL     OW  855   1.504   1.607   0.044
  189SOL    HW1  856   1.412   1.644   0.051
  189SOL    HW2  857   1.542   1.627  -0.046
  190SOL     OW  858   0.372   1.288   1.490
  190SOL    HW1  859   0.359   1.381   1.456
  190SOL    HW2  860   0.288   1.236   1.477
  191SOL     OW  861   1.614   1.292   1.289
  191SOL    HW1  862   1.674   1.295   1.369
  191SOL    HW2  863   1.539   1.356   1.302
  192SOL     OW  864   1.039   1.098   0.696
  192SOL    HW1  865   0.969   1.051   0.750
  192SOL    HW2  866   1.098   1.030   0.653
  193SOL     OW  867   1.014   0.236   0.971
  193SOL    HW1  868   1.006   0.200   0.878
  193SOL    HW2  869   1.012   0.160   1.036
  194SOL     OW  870   0.590   1.487   0.491
  194SOL    HW1  871   0.632   1.429   0.421
  194SOL    HW2  872   0.546   1.566   0.447
  195SOL     OW  873   1.709   0.385   1.381
  195SOL    HW1  874   1.782   0.454   1.385
  195SOL    HW2  875   1.737   0.310   1.322
  196SOL     OW  876   0.255   1.348   0.290
  196SOL    HW1  877   0.159   1.349   0.263
  196SOL    HW2  878   0.267   1.401   0.374
  197SOL     OW  879   0.105   1.013   1.726
  197SOL    HW1  880   0.028   0.980   1.780
  197SOL    HW2  881   0.190   0.983   1.768
  198SOL     OW  882   0.672   0.203   1.489
  198SOL    HW1  883   0.762   0.187   1.449
  198SOL    HW2  884   0.680   0.208   1.588
  199SOL     OW  885   0.075   0.345   0.033
  199SOL    HW1  886  -0.017   0.317   0.004
  199SOL    HW2  887   0.106   0.422  -0.023
  200SOL     OW  888   1.440   0.856   1.398
  200SOL    HW1  889   1.383   0.908   1.335
  200SOL    HW2  890   1.536   0.868   1.374
  201SOL     OW  891   0.072   0.166   0.318
  201SOL    HW1  892   0.055   0.249   0.264
  201SOL    HW2  893   0.162   0.129   0.296
  202SOL     OW  894   1.183   1.335   0.119
  202SOL    HW1  895   1.084   1.324   0.121
  202SOL    HW2  896   1.217   1.350   0.212
  203SOL     OW  897   0.613   0.842   1.431
  203SOL    HW1  898   0.669   0.923   1.414
  203SOL    HW2  899   0.672   0.762   1.434
  204SOL     OW  900   1.493   1.767   0.959
  204SOL    HW1  901   1.526   1.831   0.890
  204SOL    HW2  902   1.559   1.761   1.034
  205SOL     OW  903   0.716   0.565   1.708
  205SOL    HW1  904   0.735   0.630   1.782
  205SOL    HW2  905   0.776   0.485   1.717
  206SOL     OW  906   1.450   1.220   1.633
  206SOL    HW1  907   1.441   1.210   1.732
  206SOL    HW2  908   1.546   1.213   1.607
  207SOL     OW  909   0.390   1.741   1.560
  207SOL    HW1  910   0.299   1.782   1.558
  207SOL    HW2  911   0.383   1.647   1.592
  208SOL     OW  912   1.674   0.883   1.254
  208SOL    HW1  913   1.647   0.794   1.217
  208SOL    HW2  914   1.675   0.951   1.181
  209SOL     OW  915   1.225   0.325   0.449
  209SOL    HW1  916   1.290   0.251   0.438
  209SOL    HW2  917   1.245   0.375   0.533
  210SOL     OW  918   0.594   0.745   0.652
  210SOL    HW1  919   0.644   0.830   0.633
  210SOL    HW2  920   0.506   0.747   0.604
  211SOL     OW  921   1.777   0.342   1.642
  211SOL    HW1  922   1.760   0.373   1.548
  211SOL    HW2  923   1.693   0.305   1.680
  212SOL     OW  924   1.730   0.934   1.517
  212SOL    HW1  925   1.768   1.025   1.532
  212SOL    HW2  926   1.722   0.917   1.418
  213SOL     OW  927   0.859   1.374   0.016
  213SOL    HW1  928   0.813   1.389   0.104
  213SOL    HW2  929   0.903   1.459  -0.014
  214SOL     OW  930   0.661   1.790   0.953
  214SOL    HW1  931   0.615   1.878   0.940
  214SOL    HW2  932   0.760   1.802   0.946
  215SOL     OW  933   0.859   0.956   0.861
  215SOL    HW1  934   0.913   0.887   0.909
  215SOL    HW2  935   0.827   1.025   0.927
  216SOL     OW  936   1.083   0.984   0.087
  216SOL    HW1  937   1.060   1.037   0.005
  216SOL    HW2  938   1.164   0.928   0.068
  217SOL     OW  939   1.861   1.569   0.851
  217SOL    HW1  940   1.790   1.557   0.781
  217SOL    HW2  941   1.862   1.490   0.911
  218SOL     OW  942   0.221   1.314   1.844
  218SOL    HW1  943   0.156   1.241   1.823
  218SOL    HW2  944   0.225   1.328   1.942
  219SOL     OW  945   0.079   1.240   0.653
  219SOL    HW1  946   0.078   1.193   0.741
  219SOL    HW2  947   0.161   1.212   0.602
  220SOL     OW  948   0.672   1.391   1.624
  220SOL    HW1  949   0.594   1.341   1.662
  220SOL    HW2  950   0.669   1.486   1.655
  221SOL     OW  951   1.824   0.192   1.227
  221SOL    HW1  952   1.820   0.102   1.271
  221SOL    HW2  953   1.827   0.181   1.128
  222SOL     OW  954   0.428   0.424   0.520
  222SOL    HW1  955   0.458   0.352   0.458
  222SOL    HW2  956   0.389   0.384   0.603
  223SOL     OW  957   1.705   1.487   1.104
  223SOL    HW1  958   1.612   1.462   1.077
  223SOL    HW2  959   1.731   1.437   1.186
  224SOL     OW  960   0.317   0.547   1.280
  224SOL    HW1  961   0.355   0.488   1.352
  224SOL    HW2  962   0.357   0.521   1.192
  225SOL     OW  963   0.812   1.586   0.687
  225SOL    HW1  964   0.844   1.596   0.593
  225SOL    HW2  965   0.733   1.524   0.689
  226SOL     OW  966   1.424   0.214   1.112
  226SOL    HW1  967   1.476   0.149   1.167
  226SOL    HW2  968   1.375   0.277   1.173
  227SOL     OW  969   1.001   0.034   1.154
  227SOL    HW1  970   0.938  -0.038   1.123
  227SOL    HW2  971   1.094  -0.002   1.154
  228SOL     OW  972   0.770   1.330   0.301
  228SOL    HW1  973   0.724   1.243   0.318
  228SOL    HW2  974   0.861   1.327   0.342
  229SOL     OW  975   0.618   1.567   1.284
  229SOL    HW1  976   0.613   1.649   1.341
  229SOL    HW2  977   0.707   1.564   1.239
  230SOL     OW  978   1.352   0.052   0.168
  230SOL    HW1  979   1.387   0.011   0.084
  230SOL    HW2  980   1.262   0.014   0.188
  231SOL     OW  981   1.300   0.453   0.691
  231SOL    HW1  982   1.241   0.533   0.695
  231SOL    HW2  983   1.315   0.418   0.784
  232SOL     OW  984   1.593   0.221   0.882
  232SOL    HW1  985   1.509   0.220   0.936
  232SOL    HW2  986   1.595   0.304   0.826
  233SOL     OW  987   0.039   1.077   0.300
  233SOL    HW1  988   0.138   1.066   0.291
  233SOL    HW2  989  -0.001   0.991   0.332
  234SOL     OW  990   0.875   1.646   0.337
  234SOL    HW1  991   0.798   1.611   0.283
  234SOL    HW2  992   0.843   1.717   0.399
  235SOL     OW  993   0.230   0.628   1.975
  235SOL    HW1  994   0.137   0.626   2.012
  235SOL    HW2  995   0.231   0.589   1.883
  236SOL     OW  996   0.225   0.275   2.858
  236SOL    HW1  997   0.260   0.258   2.950
  236SOL    HW2  998   0.137   0.230   2.846
  237SOL     OW  999   0.019   0.368   2.509
  237SOL    HW1 1000  -0.063   0.411   2.548
  237SOL    HW2 1001  -0.009   0.295   2.446
  238SOL     OW 1002   0.569   1.275   3.027
  238SOL    HW1 1003   0.476   1.268   2.990
  238SOL    HW2 1004   0.580   1.364   3.071
  239SOL     OW 1005   1.555   1.511   2.565
  239SOL    HW1 1006   1.498   1.495   2.646
  239SOL    HW2 1007   1.496   1.521   2.485
  240SOL     OW 1008   1.135   0.703   2.579
  240SOL    HW1 1009   1.192   0.781   2.554
  240SOL    HW2 1010   1.075   0.729   2.655
  241SOL     OW 1011   1.755   0.607   2.093
  241SOL    HW1 1012   1.743   0.594   1.994
  241SOL    HW2 1013   1.725   0.526   2.142
  242SOL     OW 1014   0.768   1.144   2.885
  242SOL    HW1 1015   0.690   1.161   2.945
  242SOL    HW2 1016   0.802   1.231   2.849
  243SOL     OW 1017   0.850   0.798   3.685
  243SOL    HW1 1018   0.846   0.874   3.750
  243SOL    HW2 1019   0.872   0.834   3.594
  244SOL     OW 1020   0.685   1.012   2.527
  244SOL    HW1 1021   0.754   0.996   2.597
  244SOL    HW2 1022   0.612   1.069   2.565
  245SOL     OW 1023   0.686   1.161   3.665
  245SOL    HW1 1024   0.746   1.240   3.679
  245SOL    HW2 1025   0.600   1.192   3.624
  246SOL     OW 1026   0.335   1.435   2.923
  246SOL    HW1 1027   0.257   1.404   2.870
  246SOL    HW2 1028   0.393   1.493   2.866
  247SOL     OW 1029   1.460   1.505   3.201
  247SOL    HW1 1030   1.484   1.599   3.227
  247SOL    HW2 1031   1.444   1.451   3.283
  248SOL     OW 1032   0.438   0.392   3.361
  248SOL    HW1 1033   0.520   0.336   3.370
  248SOL    HW2 1034   0.357   0.334   3.365
  249SOL     OW 1035   1.603   0.447   2.599
  249SOL    HW1 1036   1.529   0.493   2.549
  249SOL    HW2 1037   1.654   0.515   2.652
  250SOL     OW 1038   0.231   1.713   2.345
  250SOL    HW1 1039   0.265   1.790   2.399
  250SOL    HW2 1040   0.275   1.713   2.255
  251SOL     OW 1041   1.127   1.341   3.552
  251SOL    HW1 1042   1.174   1.341   3.640
  251SOL    HW2 1043   1.079   1.254   3.541
  252SOL     OW 1044   0.230   1.434   2.400
  252SOL    HW1 1045   0.204   1.530   2.400
  252SOL    HW2 1046   0.159   1.380   2.445
  253SOL     OW 1047   0.240   1.091   2.748
  253SOL    HW1 1048   0.254   1.007   2.800
  253SOL    HW2 1049   0.185   1.155   2.803
  254SOL     OW 1050   0.620   1.786   3.301
  254SOL    HW1 1051   0.528   1.769   3.336
  254SOL    HW2 1052   0.648   1.878   3.327
  255SOL     OW 1053   0.606   0.964   1.985
  255SOL    HW1 1054   0.613   1.048   1.931
  255SOL    HW2 1055   0.652   0.977   2.073
  256SOL     OW 1056   1.594   0.114   3.342
  256SOL    HW1 1057   1.576   0.181   3.270
  256SOL    HW2 1058   1.591   0.160   3.431
  257SOL     OW 1059   0.122   0.643   2.425
  257SOL    HW1 1060   0.077   0.555   2.442
  257SOL    HW2 1061   0.121   0.697   2.509
  258SOL     OW 1062   1.842   1.767   2.221
  258SOL    HW1 1063   1.896   1.738   2.301
  258SOL    HW2 1064   1.872   1.857   2.192
  259SOL     OW 1065   0.027   1.596   1.979
  259SOL    HW1 1066   0.008   1.500   2.000
  259SOL    HW2 1067  -0.006   1.654   2.054
  260SOL     OW 1068   1.689   0.922   2.474
  260SOL    HW1 1069   1.784   0.893   2.482
  260SOL    HW2 1070   1.681   0.987   2.399
  261SOL     OW 1071   1.641   1.108   2.294
  261SOL    HW1 1072   1.727   1.110   2.242
  261SOL    HW2 1073   1.655   1.155   2.382
  262SOL     OW 1074   0.113   0.737   3.459
  262SOL    HW1 1075   0.201   0.724   3.504
  262SOL    HW2 1076   0.100   0.834   3.437
  263SOL     OW 1077   0.613   1.365   2.588
  263SOL    HW1 1078   0.564   1.278   2.597
  263SOL    HW2 1079   0.590   1.408   2.501
  264SOL     OW 1080   1.293   1.228   3.285
  264SOL    HW1 1081   1.330   1.155   3.227
  264SOL    HW2 1082   1.345   1.233   3.370
  265SOL     OW 1083   0.809   0.004   2.364
  265SOL    HW1 1084   0.849   0.095   2.355
  265SOL    HW2 1085   0.709   0.012   2.370
  266SOL     OW 1086   0.197   0.976   3.126
  266SOL    HW1 1087   0.286   0.931   3.112
  266SOL    HW2 1088   0.124   0.911   3.107
  267SOL     OW 1089   1.525   0.999   2.052
  267SOL    HW1 1090   1.462   0.923   2.065
  267SOL    HW2 1091   1.573   1.017   2.138
  268SOL     OW 1092   1.187   1.792   3.478
  268SOL    HW1 1093   1.211   1.852   3.402
  268SOL    HW2 1094   1.194   1.697   3.448
  269SOL     OW 1095   0.317   0.251   3.663
  269SOL    HW1 1096   0.388   0.322   3.669
  269SOL    HW2 1097   0.229   0.290   3.691
  270SOL     OW 1098   1.466   1.417   2.815
  270SOL    HW1 1099   1.407   1.423   2.895
  270SOL    HW2 1100   1.451   1.329   2.769
  271SOL     OW 1101   1.667   1.714   2.434
  271SOL    HW1 1102   1.626   1.691   2.346
  271SOL    HW2 1103   1.649   1.640   2.499
  272SOL     OW 1104   0.598   0.729   2.132
  272SOL    HW1 1105   0.622   0.798   2.064
  272SOL    HW2 1106   0.520   0.762   2.186
  273SOL     OW 1107   1.281   0.345   2.806
  273SOL    HW1 1108   1.195   0.295   2.793
  273SOL    HW2 1109   1.343   0.291   2.862
  274SOL     OW 1110   1.576   1.662   2.169
  274SOL    HW1 1111   1.665   1.708   2.172
  274SOL    HW2 1112   1.555   1.638   2.074
  275SOL     OW 1113   0.807   0.605   3.327
  275SOL    HW1 1114   0.760   0.602   3.416
  275SOL    HW2 1115   0.756   0.550   3.261
  276SOL     OW 1116   1.394   0.469   3.536
  276SOL    HW1 1117   1.374   0.512   3.624
  276SOL    HW2 1118   1.472   0.407   3.545
  277SOL     OW 1119   0.973   0.890   3.434
  277SOL    HW1 1120   1.019   0.806   3.405
  277SOL    HW2 1121   0.917   0.924   3.359
  278SOL     OW 1122   0.991   0.410   3.104
  278SOL    HW1 1123   0.914   0.444   3.158
  278SOL    HW2 1124   0.957   0.359   3.025
  279SOL     OW 1125   1.041   0.701   2.291
  279SOL    HW1 1126   1.067   0.697   2.387
  279SOL    HW2 1127   0.956   0.650   2.277
  280SOL     OW 1128   0.076   0.811   2.651
  280SOL    HW1 1129   0.175   0.799   2.660
  280SOL    HW2 1130   0.052   0.906   2.672
  281SOL     OW 1131   0.130   1.821   3.433
  281SOL    HW1 1132   0.120   1.806   3.532
  281SOL    HW2 1133   0.044   1.857   3.397
  282SOL     OW 1134   0.865   0.348   2.057
  282SOL    HW1 1135   0.924   0.411   2.008
  282SOL    HW2 1136   0.884   0.254   2.028
  283SOL     OW 1137   1.719   0.585   3.693
  283SOL    HW1 1138   1.693   0.674   3.657
  283SOL    HW2 1139   1.717   0.517   3.620
  284SOL     OW 1140   1.362   1.144   2.407
  284SOL    HW1 1141   1.445   1.115   2.359
  284SOL    HW2 1142   1.313   1.211   2.351
  285SOL     OW 1143   0.550   0.196   2.747
  285SOL    HW1 1144   0.545   0.191   2.847
  285SOL    HW2 1145   0.552   0.292   2.718
  286SOL     OW 1146   1.008   1.456   2.339
  286SOL    HW1 1147   0.962   1.528   2.287
  286SOL    HW2 1148   1.004   1.476   2.437
  287SOL     OW 1149   0.351   1.801   2.715
  287SOL    HW1 1150   0.401   1.715   2.721
  287SOL    HW2 1151   0.416   1.878   2.712
  288SOL     OW 1152   1.795   1.066   2.735
  288SOL    HW1 1153   1.733   1.051   2.659
  288SOL    HW2 1154   1.743   1.077   2.820
  289SOL     OW 1155   1.227   1.550   3.368
  289SOL    HW1 1156   1.233   1.473   3.432
  289SOL    HW2 1157   1.175   1.524   3.288
  290SOL     OW 1158   0.321   0.943   2.104
  290SOL    HW1 1159   0.403   0.982   2.062
  290SOL    HW2 1160   0.294   0.861   2.055
  291SOL     OW 1161   1.458   0.735   2.590
  291SOL    HW1 1162   1.453   0.670   2.665
  291SOL    HW2 1163   1.538   0.794   2.603
  292SOL     OW 1164   0.461   1.266   3.589
  292SOL    HW1 1165   0.411   1.267   3.503
  292SOL    HW2 1166   0.398   1.248   3.665
  293SOL     OW 1167   1.111   1.776   2.099
  293SOL    HW1 1168   1.051   1.714   2.149
  293SOL    HW2 1169   1.142   1.732   2.014
  294SOL     OW 1170   0.202   0.285   3.360
  294SOL    HW1 1171   0.122   0.345   3.347
  294SOL    HW2 1172   0.192   0.236   3.446
  295SOL     OW 1173   1.632   1.377   1.943
  295SOL    HW1 1174   1.600   1.471   1.933
  295SOL    HW2 1175   1.556   1.314   1.931
  296SOL     OW 1176   0.464   1.743   2.185
  296SOL    HW1 1177   0.497   1.782   2.271
  296SOL    HW2 1178   0.540   1.736   2.120
  297SOL     OW 1179   1.400   0.107   2.288
  297SOL    HW1 1180   1.376   0.070   2.198
  297SOL    HW2 1181   1.499   0.123   2.292
  298SOL     OW 1182   0.249   1.785   3.103
  298SOL    HW1 1183   0.306   1.720   3.153
  298SOL    HW2 1184   0.233   1.752   3.010
  299SOL     OW 1185   0.940   1.698   2.766
  299SOL    HW1 1186   1.020   1.641   2.787
  299SOL    HW2 1187   0.891   1.658   2.689
  300SOL     OW 1188   0.382   0.700   2.342
  300SOL    HW1 1189   0.427   0.610   2.339
  300SOL    HW2 1190   0.288   0.689   2.375
  301SOL     OW 1191   1.547   0.222   3.591
  301SOL    HW1 1192   1.542   0.259   3.683
  301SOL    HW2 1193   1.475   0.153   3.579
  302SOL     OW 1194   0.614   0.122   1.979
  302SOL    HW1 1195   0.712   0.100   1.986
  302SOL    HW2 1196   0.583   0.105   1.886
  303SOL     OW 1197   0.781   0.264   3.611
  303SOL    HW1 1198   0.848   0.203   3.654
  303SOL    HW2 1199   0.708   0.283   3.676
  304SOL     OW 1200   0.888   1.514   3.057
  304SOL    HW1 1201   0.865   1.489   2.963
  304SOL    HW2 1202   0.949   1.445   3.096
  305SOL     OW 1203   1.351   0.590   3.295
  305SOL    HW1 1204   1.379   0.547   3.380
  305SOL    HW2 1205   1.376   0.686   3.296
  306SOL     OW 1206   0.803   1.402   2.786
  306SOL    HW1 1207   0.893   1.416   2.744
  306SOL    HW2 1208   0.732   1.404   2.715
  307SOL     OW 1209   0.922   0.503   2.761
  307SOL    HW1 1210   0.897   0.494   2.665
  307SOL    HW2 1211   0.970   0.421   2.792
  308SOL     OW 1212   0.539   0.064   2.374
  308SOL    HW1 1213   0.458   0.065   2.432
  308SOL    HW2 1214   0.542   0.147   2.319
  309SOL     OW 1215   1.434   1.188   1.903
  309SOL    HW1 1216   1.466   1.112   1.960
  309SOL    HW2 1217   1.342   1.215   1.933
  310SOL     OW 1218   0.297   0.035   2.033
  310SOL    HW1 1219   0.346   0.119   2.012
  310SOL    HW2 1220   0.359  -0.030   2.078
  311SOL     OW 1221   0.935   0.236   2.342
  311SOL    HW1 1222   0.887   0.277   2.264
  311SOL    HW2 1223   1.034   0.234   2.323
  312SOL     OW 1224   1.076   0.683   3.326
  312SOL    HW1 1225   0.996   0.622   3.329
  312SOL    HW2 1226   1.157   0.630   3.302
  313SOL     OW 1227   1.227   1.570   2.655
  313SOL    HW1 1228   1.248   1.644   2.590
  313SOL    HW2 1229   1.295   1.570   2.728
  314SOL     OW 1230   0.459   1.152   2.603
  314SOL    HW1 1231   0.388   1.125   2.668
  314SOL    HW2 1232   0.433   1.124   2.510
  315SOL     OW 1233   1.271   1.797   2.453
  315SOL    HW1 1234   1.315   1.861   2.389
  315SOL    HW2 1235   1.221   1.849   2.523
  316SOL     OW 1236   1.032   0.549   1.878
  316SOL    HW1 1237   0.991   0.631   1.839
  316SOL    HW2 1238   1.096   0.575   1.951
  317SOL     OW 1239   0.078   0.556   3.248
  317SOL    HW1 1240   0.170   0.555   3.207
  317SOL    HW2 1241   0.072   0.630   3.315
  318SOL     OW 1242   0.561   0.222   3.009
  318SOL    HW1 1243   0.599   0.138   3.046
  318SOL    HW2 1244   0.473   0.241   3.053
  319SOL     OW 1245   0.866   0.454   2.504
  319SOL    HW1 1246   0.834   0.526   2.442
  319SOL    HW2 1247   0.890   0.373   2.451
  320SOL     OW 1248   1.017   0.039   2.615
  320SOL    HW1 1249   0.945   0.044   2.546
  320SOL    HW2 1250   0.993  -0.030   2.684
  321SOL     OW 1251   1.429   1.173   2.729
  321SOL    HW1 1252   1.374   1.089   2.722
  321SOL    HW2 1253   1.455   1.202   2.637
  322SOL     OW 1254   1.466   0.590   2.854
  322SOL    HW1 1255   1.436   0.495   2.861
  322SOL    HW2 1256   1.539   0.606   2.920
  323SOL     OW 1257   1.857   0.833   2.239
  323SOL    HW1 1258   1.899   0.769   2.303
  323SOL    HW2 1259   1.819   0.782   2.161
  324SOL     OW 1260   0.488   1.385   2.036
  324SOL    HW1 1261   0.401   1.370   2.083
  324SOL    HW2 1262   0.471   1.411   1.941
  325SOL     OW 1263   1.664   1.280   2.519
  325SOL    HW1 1264   1.763   1.288   2.533
  325SOL    HW2 1265   1.619   1.364   2.550
  326SOL     OW 1266   1.390   0.575   1.940
  326SOL    HW1 1267   1.336   0.554   2.021
  326SOL    HW2 1268   1.481   0.534   1.949
  327SOL     OW 1269   0.527   0.256   2.190
  327SOL    HW1 1270   0.554   0.197   2.115
  327SOL    HW2 1271   0.527   0.351   2.159
  328SOL     OW 1272   1.754   1.223   3.450
  328SOL    HW1 1273   1.845   1.184   3.437
  328SOL    HW2 1274   1.762   1.319   3.474
  329SOL     OW 1275   1.064   1.347   3.202
  329SOL    HW1 1276   0.984   1.324   3.257
  329SOL    HW2 1277   1.147   1.321   3.251
  330SOL     OW 1278   1.592   1.629   3.487
  330SOL    HW1 1279   1.619   1.663   3.397
  330SOL    HW2 1280   1.671   1.591   3.533
  331SOL     OW 1281   1.111   1.195   2.962
  331SOL    HW1 1282   1.071   1.239   3.043
  331SOL    HW2 1283   1.070   1.232   2.879
  332SOL     OW 1284   1.638   1.099   2.941
  332SOL    HW1 1285   1.643   1.180   3.000
  332SOL    HW2 1286   1.552   1.101   2.890
  333SOL     OW 1287   0.915   0.089   3.264
  333SOL    HW1 1288   0.940   0.069   3.169
  333SOL    HW2 1289   0.987   0.145   3.306
  334SOL     OW 1290   0.980   1.116   3.581
  334SOL    HW1 1291   0.881   1.122   3.591
  334SOL    HW2 1292   1.003   1.036   3.525
  335SOL     OW 1293   0.705   1.050   2.230
  335SOL    HW1 1294   0.691   1.057   2.329
  335SOL    HW2 1295   0.789   0.999   2.212
  336SOL     OW 1296   0.410   0.813   3.113
  336SOL    HW1 1297   0.496   0.825   3.163
  336SOL    HW2 1298   0.368   0.726   3.140
  337SOL     OW 1299   1.274   0.386   3.124
  337SOL    HW1 1300   1.295   0.460   3.188
  337SOL    HW2 1301   1.185   0.403   3.081
  338SOL     OW 1302   0.064   1.564   3.193
  338SOL    HW1 1303   0.018   1.646   3.159
  338SOL    HW2 1304   0.162   1.583   3.202
  339SOL     OW 1305   0.367   1.100   2.363
  339SOL    HW1 1306   0.360   1.183   2.307
  339SOL    HW2 1307   0.371   1.020   2.303
  340SOL     OW 1308   0.566   0.537   2.727
  340SOL    HW1 1309   0.578   0.603   2.653
  340SOL    HW2 1310   0.612   0.571   2.810
  341SOL     OW 1311   1.252   1.348   2.250
  341SOL    HW1 1312   1.302   1.425   2.290
  341SOL    HW2 1313   1.157   1.350   2.282
  342SOL     OW 1314   1.272   1.445   3.004
  342SOL    HW1 1315   1.319   1.458   3.091
  342SOL    HW2 1316   1.206   1.371   3.013
  343SOL     OW 1317   1.582   0.639   2.334
  343SOL    HW1 1318   1.551   0.700   2.407
  343SOL    HW2 1319   1.632   0.691   2.265
  344SOL     OW 1320   0.354   1.510   3.191
  344SOL    HW1 1321   0.333   1.466   3.104
  344SOL    HW2 1322   0.451   1.536   3.194
  345SOL     OW 1323   0.402   0.751   3.460
  345SOL    HW1 1324   0.470   0.806   3.413
  345SOL    HW2 1325   0.442   0.663   3.487
  346SOL     OW 1326   1.587   0.779   3.532
  346SOL    HW1 1327   1.495   0.817   3.527
  346SOL    HW2 1328   1.647   0.826   3.467
  347SOL     OW 1329   1.013   0.105   3.632
  347SOL    HW1 1330   1.019   0.190   3.580
  347SOL    HW2 1331   1.045   0.029   3.575
  348SOL     OW 1332   0.504   0.050   3.602
  348SOL    HW1 1333   0.462  -0.007   3.532
  348SOL    HW2 1334   0.438   0.119   3.634
  349SOL     OW 1335   0.573   0.870   2.891
  349SOL    HW1 1336   0.617   0.959   2.882
  349SOL    HW2 1337   0.510   0.870   2.968
  350SOL     OW 1338   1.360   0.862   2.907
  350SOL    HW1 1339   1.285   0.862   2.841
  350SOL    HW2 1340   1.397   0.770   2.916
  351SOL     OW 1341   1.209   0.525   2.137
  351SOL    HW1 1342   1.222   0.441   2.191
  351SOL    HW2 1343   1.180   0.599   2.197
  352SOL     OW 1344   0.307   0.213   3.093
  352SOL    HW1 1345   0.284   0.250   3.183
  352SOL    HW2 1346   0.277   0.118   3.087
  353SOL     OW 1347   0.037   1.310   3.144
  353SOL    HW1 1348   0.090   1.261   3.212
  353SOL    HW2 1349   0.059   1.408   3.149
  354SOL     OW 1350   0.732   0.634   2.926
  354SOL    HW1 1351   0.791   0.608   2.850
  354SOL    HW2 1352   0.704   0.730   2.915
  355SOL     OW 1353   1.728   0.935   3.716
  355SOL    HW1 1354   1.682   0.928   3.627
  355SOL    HW2 1355   1.666   0.979   3.782
  356SOL     OW 1356   0.307   0.063   2.480
  356SOL    HW1 1357   0.296   0.157   2.513
  356SOL    HW2 1358   0.302   0.000   2.557
  357SOL     OW 1359   1.622   0.367   2.236
  357SOL    HW1 1360   1.624   0.291   2.300
  357SOL    HW2 1361   1.574   0.444   2.276
  358SOL     OW 1362   1.023   0.766   2.828
  358SOL    HW1 1363   1.038   0.787   2.924
  358SOL    HW2 1364   0.993   0.671   2.819
  359SOL     OW 1365   0.980   1.573   3.562
  359SOL    HW1 1366   0.960   1.617   3.474
  359SOL    HW2 1367   1.019   1.482   3.546
  360SOL     OW 1368   1.859   1.518   3.467
  360SOL    HW1 1369   1.873   1.545   3.372
  360SOL    HW2 1370   1.942   1.540   3.520
  361SOL     OW 1371   0.350   0.898   3.666
  361SOL    HW1 1372   0.426   0.942   3.714
  361SOL    HW2 1373   0.385   0.851   3.584
  362SOL     OW 1374   1.540   0.274   1.987
  362SOL    HW1 1375   1.479   0.199   2.010
  362SOL    HW2 1376   1.562   0.326   2.070
  363SOL     OW 1377   1.303   0.838   1.904
  363SOL    HW1 1378   1.337   0.745   1.919
  363SOL    HW2 1379   1.321   0.865   1.809
  364SOL     OW 1380   1.068   1.333   2.711
  364SOL    HW1 1381   1.075   1.249   2.656
  364SOL    HW2 1382   1.130   1.402   2.675
  365SOL     OW 1383   0.319   0.810   2.811
  365SOL    HW1 1384   0.412   0.846   2.816
  365SOL    HW2 1385   0.313   0.725   2.863
  366SOL     OW 1386   0.339   0.509   2.868
  366SOL    HW1 1387   0.287   0.426   2.851
  366SOL    HW2 1388   0.416   0.514   2.804
  367SOL     OW 1389   1.138   0.380   3.540
  367SOL    HW1 1390   1.093   0.443   3.604
  367SOL    HW2 1391   1.231   0.411   3.523
  368SOL     OW 1392   1.160   0.207   3.339
  368SOL    HW1 1393   1.160   0.271   3.416
  368SOL    HW2 1394   1.188   0.255   3.256
  369SOL     OW 1395   0.008   1.326   2.062
  369SOL    HW1 1396  -0.085   1.347   2.031
  369SOL    HW2 1397   0.018   1.227   2.075
  370SOL     OW 1398   0.088   1.801   2.789
  370SOL    HW1 1399   0.046   1.715   2.762
  370SOL    HW2 1400   0.182   1.804   2.755
  371SOL     OW 1401   0.504   1.568   2.772
  371SOL    HW1 1402   0.570   1.642   2.781
  371SOL    HW2 1403   0.548   1.489   2.730
  372SOL     OW 1404   1.002   0.796   3.100
  372SOL    HW1 1405   1.043   0.764   3.186
  372SOL    HW2 1406   0.906   0.769   3.097
  373SOL     OW 1407   0.040   0.544   2.976
  373SOL    HW1 1408   0.125   0.511   2.935
  373SOL    HW2 1409   0.053   0.559   3.074
  374SOL     OW 1410   0.189   0.520   3.584
  374SOL    HW1 1411   0.248   0.480   3.514
  374SOL    HW2 1412   0.131   0.591   3.543
  375SOL     OW 1413   1.369   0.950   3.522
  375SOL    HW1 1414   1.408   1.039   3.542
  375SOL    HW2 1415   1.379   0.930   3.425
  376SOL     OW 1416   0.815   0.572   2.187
  376SOL    HW1 1417   0.822   0.483   2.141
  376SOL    HW2 1418   0.721   0.606   2.179
  377SOL     OW 1419   1.657   0.604   3.068
  377SOL    HW1 1420   1.619   0.535   3.130
  377SOL    HW2 1421   1.739   0.568   3.024
  378SOL     OW 1422   0.252   1.564   3.606
  378SOL    HW1 1423   0.222   1.621   3.682
  378SOL    HW2 1424   0.245   1.467   3.632
  379SOL     OW 1425   0.671   0.464   3.131
  379SOL    HW1 1426   0.637   0.375   3.101
  379SOL    HW2 1427   0.697   0.518   3.051
  380SOL     OW 1428   0.930   1.678   3.327
  380SOL    HW1 1429   0.906   1.660   3.232
  380SOL    HW2 1430   0.960   1.772   3.337
  381SOL     OW 1431   0.473   0.500   2.053
  381SOL    HW1 1432   0.534   0.580   2.057
  381SOL    HW2 1433   0.378   0.531   2.060
  382SOL     OW 1434   0.159   1.137   3.328
  382SOL    HW1 1435   0.181   1.076   3.404
  382SOL    HW2 1436   0.169   1.088   3.242
  383SOL     OW 1437   1.347   1.059   3.096
  383SOL    HW1 1438   1.371   0.996   3.022
  383SOL    HW2 1439   1.257   1.099   3.078
  384SOL     OW 1440   1.302   0.855   2.171
  384SOL    HW1 1441   1.216   0.824   2.213
  384SOL    HW2 1442   1.298   0.841   2.072
  385SOL     OW 1443   1.759   1.747   3.016
  385SOL    HW1 1444   1.820   1.777   2.943
  385SOL    HW2 1445   1.721   1.658   2.994
  386SOL     OW 1446   1.252   1.731   2.990
  386SOL    HW1 1447   1.336   1.736   2.936
  386SOL    HW2 1448   1.229   1.635   3.008
  387SOL     OW 1449   0.083   1.258   2.884
  387SOL    HW1 1450   0.078   1.257   2.984
  387SOL    HW2 1451   0.000   1.217   2.846
  388SOL     OW 1452   0.688   1.662   3.578
  388SOL    HW1 1453   0.632   1.743   3.587
  388SOL    HW2 1454   0.740   1.666   3.492
  389SOL     OW 1455   1.726   0.135   2.385
  389SOL    HW1 1456   1.799   0.118   2.318
  389SOL    HW2 1457   1.695   0.048   2.423
  390SOL     OW 1458   1.388   1.573   2.339
  390SOL    HW1 1459   1.455   1.585   2.265
  390SOL    HW2 1460   1.348   1.662   2.362
  391SOL     OW 1461   0.130   1.794   3.713
  391SOL    HW1 1462   0.089   1.720   3.766
  391SOL    HW2 1463   0.194   1.845   3.771
  392SOL     OW 1464   1.280   0.927   2.534
  392SOL    HW1 1465   1.340   0.846   2.536
  392SOL    HW2 1466   1.320   0.996   2.474
  393SOL     OW 1467   0.830   1.273   3.284
  393SOL    HW1 1468   0.825   1.306   3.379
  393SOL    HW2 1469   0.744   1.292   3.238
  394SOL     OW 1470   0.672   1.616   2.016
  394SOL    HW1 1471   0.681   1.626   1.917
  394SOL    HW2 1472   0.632   1.527   2.037
  395SOL     OW 1473   1.650   1.720   3.256
  395SOL    HW1 1474   1.703   1.730   3.172
  395SOL    HW2 1475   1.623   1.810   3.290
  396SOL     OW 1476   1.841   0.175   2.825
  396SOL    HW1 1477   1.880   0.090   2.789
  396SOL    HW2 1478   1.743   0.177   2.806
  397SOL     OW 1479   0.263   0.326   2.582
  397SOL    HW1 1480   0.184   0.377   2.548
  397SOL    HW2 1481   0.254   0.311   2.680
  398SOL     OW 1482   1.194   1.612   1.893
  398SOL    HW1 1483   1.200   1.519   1.930
  398SOL    HW2 1484   1.135   1.612   1.813
  399SOL     OW 1485   0.822   1.002   3.234
  399SOL    HW1 1486   0.862   1.001   3.142
  399SOL    HW2 1487   0.832   1.094   3.274
  400SOL     OW 1488   0.916   0.910   2.153
  400SOL    HW1 1489   0.979   0.948   2.085
  400SOL    HW2 1490   0.956   0.827   2.192
  401SOL     OW 1491   1.504   1.607   1.906
  401SOL    HW1 1492   1.412   1.644   1.913
  401SOL    HW2 1493   1.542   1.627   1.816
  402SOL     OW 1494   0.372   1.288   3.352
  402SOL    HW1 1495   0.359   1.381   3.318
  402SOL    HW2 1496   0.288   1.236   3.339
  403SOL     OW 1497   1.614   1.292   3.151
  403SOL    HW1 1498   1.674   1.295   3.231
  403SOL    HW2 1499   1.539   1.356   3.164
  404SOL     OW 1500   1.039   1.098   2.558
  404SOL    HW1 1501   0.969   1.051   2.612
  404SOL    HW2 1502   1.098   1.030   2.515
  405SOL     OW 1503   1.014   0.236   2.833
  405SOL    HW1 1504   1.006   0.200   2.740
  405SOL    HW2 1505   1.012   0.160   2.898
  406SOL     OW 1506   0.590   1.487   2.353
  406SOL    HW1 1507   0.632   1.429   2.283
  406SOL    HW2 1508   0.546   1.566   2.309
  407SOL     OW 1509   1.709   0.385   3.243
  407SOL    HW1 1510   1.782   0.454   3.247
  407SOL    HW2 1511   1.737   0.310   3.184
  408SOL     OW 1512   0.255   1.348   2.152
  408SOL    HW1 1513   0.159   1.349   2.125
  408SOL    HW2 1514   0.267   1.401   2.236
  409SOL     OW 1515   0.105   1.013   3.588
  409SOL    HW1 1516   0.028   0.980   3.642
  409SOL    HW2 1517   0.190   0.983   3.630
  410SOL     OW 1518   0.672   0.203   3.351
  410SOL    HW1 1519   0.762   0.187   3.311
  410SOL    HW2 1520   0.680   0.208   3.450
  411SOL     OW 1521   0.075   0.345   1.895
  411SOL    HW1 1522  -0.017   0.317   1.866
  411SOL    HW2 1523   0.106   0.422   1.839
  412SOL     OW 1524   1.440   0.856   3.260
  412SOL    HW1 1525   1.383   0.908   3.197
  412SOL    HW2 1526   1.536   0.868   3.236
  413SOL     OW 1527   0.072   0.166   2.180
  413SOL    HW1 1528   0.055   0.249   2.126
  413SOL    HW2 1529   0.162   0.129   2.158
  414SOL     OW 1530   1.183   1.335   1.981
  414SOL    HW1 1531   1.084   1.324   1.983
  414SOL    HW2 1532   1.217   1.350   2.074
  415SOL     OW 1533   0.613   0.842   3.293
  415SOL    HW1 1534   0.669   0.923   3.276
  415SOL    HW2 1535   0.672   0.762   3.296
  416SOL     OW 1536   1.493   1.767   2.821
  416SOL    HW1 1537   1.526   1.831   2.752
  416SOL    HW2 1538   1.559   1.761   2.896
  417SOL     OW 1539   0.716   0.565   3.570
  417SOL    HW1 1540   0.735   0.630   3.644
  417SOL    HW2 1541   0.776   0.485   3.579
  418SOL     OW 1542   1.450   1.220   3.495
  418SOL    HW1 1543   1.441   1.210   3.594
  418SOL    HW2 1544   1.546   1.213   3.469
  419SOL     OW 1545   0.390   1.741   3.422
  419SOL    HW1 1546   0.299   1.782   3.420
  419SOL    HW2 1547   0.383   1.647   3.454
  420SOL     OW 1548   1.674   0.883   3.116
  420SOL    HW1 1549   1.647   0.794   3.079
  420SOL    HW2 1550   1.675   0.951   3.043
  421SOL     OW 1551   1.225   0.325   2.311
  421SOL    HW1 1552   1.290   0.251   2.300
  421SOL    HW2 1553   1.245   0.375   2.395
  422SOL     OW 1554   0.594   0.745   2.514
  422SOL    HW1 1555   0.644   0.830   2.495
  422SOL    HW2 1556   0.506   0.747   2.466
  423SOL     OW 1557   1.777   0.342   3.504
  423SOL    HW1 1558   1.760   0.373   3.410
  423SOL    HW2 1559   1.693   0.305   3.542
  424SOL     OW 1560   1.730   0.934   3.379
  424SOL    HW1 1561   1.768   1.025   3.394
  424SOL    HW2 1562   1.722   0.917   3.280
  425SOL     OW 1563   0.859   1.374   1.878
  425SOL    HW1 1564   0.813   1.389   1.966
  425SOL    HW2 1565   0.903   1.459   1.848
  426SOL     OW 1566   0.661   1.790   2.815
  426SOL    HW1 1567   0.615   1.878   2.802
  426SOL    HW2 1568   0.760   1.802   2.808
  427SOL     OW 1569   0.859   0.956   2.723
  427SOL    HW1 1570   0.913   0.887   2.771
  427SOL    HW2 1571   0.827   1.025   2.789
  428SOL     OW 1572   1.083   0.984   1.949
  428SOL    HW1 1573   1.060   1.037   1.867
  428SOL    HW2 1574   1.164   0.928   1.930
  429SOL     OW 1575   1.861   1.569   2.713
  429SOL    HW1 1576   1.790   1.557   2.643
  429SOL    HW2 1577   1.862   1.490   2.773
  430SOL     OW 1578   0.221   1.314   3.706
  430SOL    HW1 1579   0.156   1.241   3.685
  430SOL    HW2 1580   0.225   1.328   3.804
  431SOL     OW 1581   0.079   1.240   2.515
  431SOL    HW1 1582   0.078   1.193   2.603
  431SOL    HW2 1583   0.161   1.212   2.464
  432SOL     OW 1584   0.672   1.391   3.486
  432SOL    HW1 1585   0.594   1.341   3.524
  432SOL    HW2 1586   0.669   1.486   3.517
  433SOL     OW 1587   1.824   0.192   3.089
  433SOL    HW1 1588   1.820   0.102   3.133
  433SOL    HW2 1589   1.827   0.181   2.990
  434SOL     OW 1590   0.428   0.424   2.382
  434SOL    HW1 1591   0.458   0.352   2.320
  434SOL    HW2 1592   0.389   0.384   2.465
  435SOL     OW 1593   1.705   1.487   2.966
  435SOL    HW1 1594   1.612   1.462   2.939
  435SOL    HW2 1595   1.731   1.437   3.048
  436SOL     OW 1596   0.317   0.547   3.142
  436SOL    HW1 1597   0.355   0.488   3.214
  436SOL    HW2 1598   0.357   0.521   3.054
  437SOL     OW 1599   0.812   1.586   2.549
  437SOL    HW1 1600   0.844   1.596   2.455
  437SOL    HW2 1601   0.733   1.524   2.551
  438SOL     OW 1602   1.424   0.214   2.974
  438SOL    HW1 1603   1.476   0.149   3.029
  438SOL    HW2 1604   1.375   0.277   3.035
  439SOL     OW 1605   1.001   0.034   3.016
  439SOL    HW1 1606   0.938  -0.038   2.985
  439SOL    HW2 1607   1.094  -0.002   3.016
  440SOL     OW 1608   0.770   1.330   2.163
  440SOL    HW1 1609   0.724   1.243   2.180
  440SOL    HW2 1610   0.861   1.327   2.204
  441SOL     OW 1611   0.618   1.567   3.146
  441SOL    HW1 1612   0.613   1.649   3.203
  441SOL    HW2 1613   0.707   1.564   3.101
  442SOL     OW 1614   1.352   0.052   2.030
  442SOL    HW1 1615   1.387   0.011   1.946
  442SOL    HW2 1616   1.262   0.014   2.050
  443SOL     OW 1617   1.300   0.453   2.553
  443SOL    HW1 1618   1.241   0.533   2.557
  443SOL    HW2 1619   1.315   0.418   2.646
  444SOL     OW 1620   1.593   0.221   2.744
  444SOL    HW1 1621   1.509   0.220   2.798
  444SOL    HW2 1622   1.595   0.304   2.688
  445SOL     OW 1623   0.039   1.077   2.162
  445SOL    HW1 1624   0.138   1.066   2.153
  445SOL    HW2 1625  -0.001   0.991   2.194
  446SOL     OW 1626   0.875   1.646   2.199
  446SOL    HW1 1627   0.798   1.611   2.145
  446SOL    HW2 1628   0.843   1.717   2.261
  447SOL     OW 1629   0.230   0.628   3.837
  447SOL    HW1 1630   0.137   0.626   3.874
  447SOL    HW2 1631   0.231   0.589   3.745
  448SOL     OW 1632   0.225   0.275   4.720
  448SOL    HW1 1633   0.260   0.258   4.812
  448SOL    HW2 1634   0.137   0.230   4.708
  449SOL     OW 1635   0.019   0.368   4.371
  449SOL    HW1 1636  -0.063   0.411   4.410
  449SOL    HW2 1637  -0.009   0.295   4.308
  450SOL     OW 1638   0.569   1.275   4.889
  450SOL    HW1 1639   0.476   1.268   4.852
  450SOL    HW2 1640   0.580   1.364   4.933
  451SOL     OW 1641   1.555   1.511   4.427
  451SOL    HW1 1642   1.498   1.495   4.508
  451SOL    HW2 1643   1.496   1.521   4.347
  452SOL     OW 1644   1.135   0.703   4.441
  452SOL    HW1 1645   1.192   0.781   4.416
  452SOL    HW2 1646   1.075   0.729   4.517
  453SOL     OW 1647   1.755   0.607   3.955
  453SOL    HW1 1648   1.743   0.594   3.856
  453SOL    HW2 1649   1.725   0.526   4.004
  454SOL     OW 1650   0.768   1.144   4.747
  454SOL    HW1 1651   0.690   1.161   4.807
  454SOL    HW2 1652   0.802   1.231   4.711
  455SOL     OW 1653   0.850   0.798   5.547
  455SOL    HW1 1654   0.846   0.874   5.612
  455SOL    HW2 1655   0.872   0.834   5.456
  456SOL     OW 1656   0.685   1.012   4.389
  456SOL    HW1 1657   0.754   0.996   4.459
  456SOL    HW2 1658   0.612   1.069   4.427
  457SOL     OW 1659   0.686   1.161   5.527
  457SOL    HW1 1660   0.746   1.240   5.541
  457SOL    HW2 1661   0.600   1.192   5.486
  458SOL     OW 1662   0.335   1.435   4.785
  458SOL    HW1 1663   0.257   1.404   4.732
  458SOL    HW2 1664   0.393   1.493   4.728
  459SOL     OW 1665   1.460   1.505   5.063
  459SOL    HW1 1666   1.484   1.599   5.089
  459SOL    HW2 1667   1.444   1.451   5.145
  460SOL     OW 1668   0.438   0.392   5.223
  460SOL    HW1 1669   0.520   0.336   5.232
  460SOL    HW2 1670   0.357   0.334   5.227
  461SOL     OW 1671   1.603   0.447   4.461
  461SOL    HW1 1672   1.529   0.493   4.411
  461SOL    HW2 1673   1.654   0.515   4.514
  462SOL     OW 1674   0.231   1.713   4.207
  462SOL    HW1 1675   0.265   1.790   4.261
  462SOL    HW2 1676   0.275   1.713   4.117
  463SOL     OW 1677   1.127   1.341   5.414
  463SOL    HW1 1678   1.174   1.341   5.502
  463SOL    HW2 1679   1.079   1.254   5.403
  464SOL     OW 1680   0.230   1.434   4.262
  464SOL    HW1 1681   0.204   1.530   4.262
  464SOL    HW2 1682   0.159   1.380   4.307
  465SOL     OW 1683   0.240   1.091   4.610
  465SOL    HW1 1684   0.254   1.007   4.662
  465SOL    HW2 1685   0.185   1.155   4.665
  466SOL     OW 1686   0.620   1.786   5.163
  466SOL    HW1 1687   0.528   1.769   5.198
  466SOL    HW2 1688   0.648   1.878   5.189
  467SOL     OW 1689   0.606   0.964   3.847
  467SOL    HW1 1690   0.613   1.048   3.793
  467SOL    HW2 1691   0.652   0.977   3.935
  468SOL     OW 1692   1.594   0.114   5.204
  468SOL    HW1 1693   1.576   0.181   5.132
  468SOL    HW2 1694   1.591   0.160   5.293
  469SOL     OW 1695   0.122   0.643   4.287
  469SOL    HW1 1696   0.077   0.555   4.304
  469SOL    HW2 1697   0.121   0.697   4.371
  470SOL     OW 1698   1.842   1.767   4.083
  470SOL    HW1 1699   1.896   1.738   4.163
  470SOL    HW2 1700   1.872   1.857   4.054
  471SOL     OW 1701   0.027   1.596   3.841
  471SOL    HW1 1702   0.008   1.500   3.862
  471SOL    HW2 1703  -0.006   1.654   3.916
  472SOL     OW 1704   1.689   0.922   4.336
  472SOL    HW1 1705   1.784   0.893   4.344
  472SOL    HW2 1706   1.681   0.987   4.261
  473SOL     OW 1707   1.641   1.108   4.156
  473SOL    HW1 1708   1.727   1.110   4.104
  473SOL    HW2 1709   1.655   1.155   4.244
  474SOL     OW 1710   0.113   0.737   5.321
  474SOL    HW1 1711   0.201   0.724   5.366
  474SOL    HW2 1712   0.100   0.834   5.299
  475SOL     OW 1713   0.613   1.365   4.450
  475SOL    HW1 1714   0.564   1.278   4.459
  475SOL    HW2 1715   0.590   1.408   4.363
  476SOL     OW 1716   1.293   1.228   5.147
  476SOL    HW1 1717   1.330   1.155   5.089
  476SOL    HW2 1718   1.345   1.233   5.232
  477SOL     OW 1719   0.809   0.004   4.226
  477SOL    HW1 1720   0.849   0.095   4.217
  477SOL    HW2 1721   0.709   0.012   4.232
  478SOL     OW 1722   0.197   0.976   4.988
  478SOL    HW1 1723   0.286   0.931   4.974
  478SOL    HW2 1724   0.124   0.911   4.969
  479SOL     OW 1725   1.525   0.999   3.914
  479SOL    HW1 1726   1.462   0.923   3.927
  479SOL    HW2 1727   1.573   1.017   4.000
  480SOL     OW 1728   1.187   1.792   5.340
  480SOL    HW1 1729   1.211   1.852   5.264
  480SOL    HW2 1730   1.194   1.697   5.310
  481SOL     OW 1731   0.317   0.251   5.525
  481SOL    HW1 1732   0.388   0.322   5.531
  481SOL    HW2 1733   0.229   0.290   5.553
  482SOL     OW 1734   1.466   1.417   4.677
  482SOL    HW1 1735   1.407   1.423   4.757
  482SOL    HW2 1736   1.451   1.329   4.631
  483SOL     OW 1737   1.667   1.714   4.296
  483SOL    HW1 1738   1.626   1.691   4.208
  483SOL    HW2 1739   1.649   1.640   4.361
  484SOL     OW 1740   0.598   0.729   3.994
  484SOL    HW1 1741   0.622   0.798   3.926
  484SOL    HW2 1742   0.520   0.762   4.048
  485SOL     OW 1743   1.281   0.345   4.668
  485SOL    HW1 1744   1.195   0.295   4.655
  485SOL    HW2 1745   1.343   0.291   4.724
  486SOL     OW 1746   1.576   1.662   4.031
  486SOL    HW1 1747   1.665   1.708   4.034
  486SOL    HW2 1748   1.555   1.638   3.936
  487SOL     OW 1749   0.807   0.605   5.189
  487SOL    HW1 1750   0.760   0.602   5.278
  487SOL    HW2 1751   0.756   0.550   5.123
  488SOL     OW 1752   1.394   0.469   5.398
  488SOL    HW1 1753   1.374   0.512   5.486
  488SOL    HW2 1754   1.472   0.407   5.407
  489SOL     OW 1755   0.973   0.890   5.296
  489SOL    HW1 1756   1.019   0.806   5.267
  489SOL    HW2 1757   0.917   0.924   5.221
  490SOL     OW 1758   0.991   0.410   4.966
  490SOL    HW1 1759   0.914   0.444   5.020
  490SOL    HW2 1760   0.957   0.359   4.887
  491SOL     OW 1761   1.041   0.701   4.153
  491SOL    HW1 1762   1.067   0.697   4.249
  491SOL    HW2 1763   0.956   0.650   4.139
  492SOL     OW 1764   0.076   0.811   4.513
  492SOL    HW1 1765   0.175   0.799   4.522
  492SOL    HW2 1766   0.052   0.906   4.534
  493SOL     OW 1767   0.130   1.821   5.295
  493SOL    HW1 1768   0.120   1.806   5.394
  493SOL    HW2 1769   0.044   1.857   5.259
  494SOL     OW 1770   0.865   0.348   3.919
  494SOL    HW1 1771   0.924   0.411   3.870
  494SOL    HW2 1772   0.884   0.254   3.890
  495SOL     OW 1773   1.719   0.585   5.555
  495SOL    HW1 1774   1.693   0.674   5.519
  495SOL    HW2 1775   1.717   0.517   5.482
  496SOL     OW 1776   1.362   1.144   4.269
  496SOL    HW1 1777   1.445   1.115   4.221
  496SOL    HW2 1778   1.313   1.211   4.213
  497SOL     OW 1779   0.550   0.196   4.609
  497SOL    HW1 1780   0.545   0.191   4.709
  497SOL    HW2 1781   0.552   0.292   4.580
  498SOL     OW 1782   1.008   1.456   4.201
  498SOL    HW1 1783   0.962   1.528   4.149
  498SOL    HW2 1784   1.004   1.476   4.299
  499SOL     OW 1785   0.351   1.801   4.577
  499SOL    HW1 1786   0.401   1.715   4.583
  499SOL    HW2 1787   0.416   1.878   4.574
  500SOL     OW 1788   1.795   1.066   4.597
  500SOL    HW1 1789   1.733   1.051   4.521
  500SOL    HW2 1790   1.743   1.077   4.682
  501SOL     OW 1791   1.227   1.550   5.230
  501SOL    HW1 1792   1.233   1.473   5.294
  501SOL    HW2 1793   1.175   1.524   5.150
  502SOL     OW 1794   0.321   0.943   3.966
  502SOL    HW1 1795   0.403   0.982   3.924
  502SOL    HW2 1796   0.294   0.861   3.917
  503SOL     OW 1797   1.458   0.735   4.452
  503SOL    HW1 1798   1.453   0.670   4.527
  503SOL    HW2 1799   1.538   0.794   4.465
  504SOL     OW 1800   0.461   1.266   5.451
  504SOL    HW1 1801   0.411   1.267   5.365
  504SOL    HW2 1802   0.398   1.248   5.527
  505SOL     OW 1803   1.111   1.776   3.961
  505SOL    HW1 1804   1.051   1.714   4.011
  505SOL    HW2 1805   1.142   1.732   3.876
  506SOL     OW 1806   0.202   0.285   5.222
  506SOL    HW1 1807   0.122   0.345   5.209
  506SOL    HW2 1808   0.192   0.236   5.308
  507SOL     OW 1809   1.632   1.377   3.805
  507SOL    HW1 1810   1.600   1.471   3.795
  507SOL    HW2 1811   1.556   1.314   3.793
  508SOL     OW 1812   0.464   1.743   4.047
  508SOL    HW1 1813   0.497   1.782   4.133
  508SOL    HW2 1814   0.540   1.736   3.982
  509SOL     OW 1815   1.400   0.107   4.150
  509SOL    HW1 1816   1.376   0.070   4.060
  509SOL    HW2 1817   1.499   0.123   4.154
  510SOL     OW 1818   0.249   1.785   4.965
  510SOL    HW1 1819   0.306   1.720   5.015
  510SOL    HW2 1820   0.233   1.752   4.872
  511SOL     OW 1821   0.940   1.698   4.628
  511SOL    HW1 1822   1.020   1.641   4.649
  511SOL    HW2 1823   0.891   1.658   4.551
  512SOL     OW 1824   0.382   0.700   4.204
  512SOL    HW1 1825   0.427   0.610   4.201
  512SOL    HW2 1826   0.288   0.689   4.237
  513SOL     OW 1827   1.547   0.222   5.453
  513SOL    HW1 1828   1.542   0.259   5.545
  513SOL    HW2 1829   1.475   0.153   5.441
  514SOL     OW 1830   0.614   0.122   3.841
  514SOL    HW1 1831   0.712   0.100   3.848
  514SOL    HW2 1832   0.583   0.105   3.748
  515SOL     OW 1833   0.781   0.264   5.473
  515SOL    HW1 1834   0.848   0.203   5.516
  515SOL    HW2 1835   0.708   0.283   5.538
  516SOL     OW 1836   0.888   1.514   4.919
  516SOL    HW1 1837   0.865   1.489   4.825
  516SOL    HW2 1838   0.949   1.445   4.958
  517SOL     OW 1839   1.351   0.590   5.157
  517SOL    HW1 1840   1.379   0.547   5.242
  517SOL    HW2 1841   1.376   0.686   5.158
  518SOL     OW 1842   0.803   1.402   4.648
  518SOL    HW1 1843   0.893   1.416   4.606
  518SOL    HW2 1844   0.732   1.404   4.577
  519SOL     OW 1845   0.922   0.503   4.623
  519SOL    HW1 1846   0.897   0.494   4.527
  519SOL    HW2 1847   0.970   0.421   4.654
  520SOL     OW 1848   0.539   0.064   4.236
  520SOL    HW1 1849   0.458   0.065   4.294
  520SOL    HW2 1850   0.542   0.147   4.181
  521SOL     OW 1851   1.434   1.188   3.765
  521SOL    HW1 1852   1.466   1.112   3.822
  521SOL    HW2 1853   1.342   1.215   3.795
  522SOL     OW 1854   0.297   0.035   3.895
  522SOL    HW1 1855   0.346   0.119   3.874
  522SOL    HW2 1856   0.359  -0.030   3.940
  523SOL     OW 1857   0.935   0.236   4.204
  523SOL    HW1 1858   0.887   0.277   4.126
  523SOL    HW2 1859   1.034   0.234   4.185
  524SOL     OW 1860   1.076   0.683   5.188
  524SOL    HW1 1861   0.996   0.622   5.191
  524SOL    HW2 1862   1.157   0.630   5.164
  525SOL     OW 1863   1.227   1.570   4.517
  525SOL    HW1 1864   1.248   1.644   4.452
  525SOL    HW2 1865   1.295   1.570   4.590
  526SOL     OW 1866   0.459   1.152   4.465
  526SOL    HW1 1867   0.388   1.125   4.530
  526SOL    HW2 1868   0.433   1.124   4.372
  527SOL     OW 1869   1.271   1.797   4.315
  527SOL    HW1 1870   1.315   1.861   4.251
  527SOL    HW2 1871   1.221   1.849   4.385
  528SOL     OW 1872   1.032   0.549   3.740
  528SOL    HW1 1873   0.991   0.631   3.701
  528SOL    HW2 1874   1.096   0.575   3.813
  529SOL     OW 1875   0.078   0.556   5.110
  529SOL    HW1 1876   0.170   0.555   5.069
  529SOL    HW2 1877   0.072   0.630   5.177
  530SOL     OW 1878   0.561   0.222   4.871
  530SOL    HW1 1879   0.599   0.138   4.908
  530SOL    HW2 1880   0.473   0.241   4.915
  531SOL     OW 1881   0.866   0.454   4.366
  531SOL    HW1 1882   0.834   0.526   4.304
  531SOL    HW2 1883   0.890   0.373   4.313
  532SOL     OW 1884   1.017   0.039   4.477
  532SOL    HW1 1885   0.945   0.044   4.408
  532SOL    HW2 1886   0.993  -0.030   4.546
  533SOL     OW 1887   1.429   1.173   4.591
  533SOL    HW1 1888   1.374   1.089   4.584
  533SOL    HW2 1889   1.455   1.202   4.499
  534SOL     OW 1890   1.466   0.590   4.716
  534SOL    HW1 1891   1.436   0.495   4.723
  534SOL    HW2 1892   1.539   0.606   4.782
  535SOL     OW 1893   1.857   0.833   4.101
  535SOL    HW1 1894   1.899   0.769   4.165
  535SOL    HW2 1895   1.819   0.782   4.023
  536SOL     OW 1896   0.488   1.385   3.898
  536SOL    HW1 1897   0.401   1.370   3.945
  536SOL    HW2 1898   0.471   1.411   3.803
  537SOL     OW 1899   1.664   1.280   4.381
  537SOL    HW1 1900   1.763   1.288   4.395
  537SOL    HW2 1901   1.619   1.364   4.412
  538SOL     OW 1902   1.390   0.575   3.802
  538SOL    HW1 1903   1.336   0.554   3.883
  538SOL    HW2 1904   1.481   0.534   3.811
  539SOL     OW 1905   0.527   0.256   4.052
  539SOL    HW1 1906   0.554   0.197   3.977
  539SOL    HW2 1907   0.527   0.351   4.021
  540SOL     OW 1908   1.754   1.223   5.312
  540SOL    HW1 1909   1.845   1.184   5.299
  540SOL    HW2 1910   1.762   1.319   5.336
  541SOL     OW 1911   1.064   1.347   5.064
  541SOL    HW1 1912   0.984   1.324   5.119
  541SOL    HW2 1913   1.147   1.321   5.113
  542SOL     OW 1914   1.592   1.629   5.349
  542SOL    HW1 1915   1.619   1.663   5.259
  542SOL    HW2 1916   1.671   1.591   5.395
  543SOL     OW 1917   1.111   1.195   4.824
  543SOL    HW1 1918   1.071   1.239   4.905
  543SOL    HW2 1919   1.070   1.232   4.741
  544SOL     OW 1920   1.638   1.099   4.803
  544SOL    HW1 1921   1.643   1.180   4.862
  544SOL    HW2 1922   1.552   1.101   4.752
  545SOL     OW 1923   0.915   0.089   5.126
  545SOL    HW1 1924   0.940   0.069   5.031
  545SOL    HW2 1925   0.987   0.145   5.168
  546SOL     OW 1926   0.980   1.116   5.443
  546SOL    HW1 1927   0.881   1.122   5.453
  546SOL    HW2 1928   1.003   1.036   5.387
  547SOL     OW 1929   0.705   1.050   4.092
  547SOL    HW1 1930   0.691   1.057   4.191
  547SOL    HW2 1931   0.789   0.999   4.074
  548SOL     OW 1932   0.410   0.813   4.975
  548SOL    HW1 1933   0.496   0.825   5.025
  548SOL    HW2 1934   0.368   0.726   5.002
  549SOL     OW 1935   1.274   0.386   4.986
  549SOL    HW1 1936   1.295   0.460   5.050
  549SOL    HW2 1937   1.185   0.403   4.943
  550SOL     OW 1938   0.064   1.564   5.055
  550SOL    HW1 1939   0.018   1.646   5.021
  550SOL    HW2 1940   0.162   1.583   5.064
  551SOL     OW 1941   0.367   1.100   4.225
  551SOL    HW1 1942   0.360   1.183   4.169
  551SOL    HW2 1943   0.371   1.020   4.165
  552SOL     OW 1944   0.566   0.537   4.589
  552SOL    HW1 1945   0.578   0.603   4.515
  552SOL    HW2 1946   0.612   0.571   4.672
  553SOL     OW 1947   1.252   1.348   4.112
  553SOL    HW1 1948   1.302   1.425   4.152
  553SOL    HW2 1949   1.157   1.350   4.144
  554SOL     OW 1950   1.272   1.445   4.866
  554SOL    HW1 1951   1.319   1.458   4.953
  554SOL    HW2 1952   1.206   1.371   4.875
  555SOL     OW 1953   1.582   0.639   4.196
  555SOL    HW1 1954   1.551   0.700   4.269
  555SOL    HW2 1955   1.632   0.691   4.127
  556SOL     OW 1956   0.354   1.510   5.053
  556SOL    HW1 1957   0.333   1.466   4.966
  556SOL    HW2 1958   0.451   1.536   5.056
  557SOL     OW 1959   0.402   0.751   5.322
  557SOL    HW1 1960   0.470   0.806   5.275
  557SOL    HW2 1961   0.442   0.663   5.349
  558SOL     OW 1962   1.587   0.779   5.394
  558SOL    HW1 1963   1.495   0.817   5.389
  558SOL    HW2 1964   1.647   0.826   5.329
  559SOL     OW 1965   1.013   0.105   5.494
  559SOL    HW1 1966   1.019   0.190   5.442
  559SOL    HW2 1967   1.045   0.029   5.437
  560SOL     OW 1968   0.504   0.050   5.464
  560SOL    HW1 1969   0.462  -0.007   5.394
  560SOL    HW2 1970   0.438   0.119   5.496
  561SOL     OW 1971   0.573   0.870   4.753
  561SOL    HW1 1972   0.617   0.959   4.744
  561SOL    HW2 1973   0.510   0.870   4.830
  562SOL     OW 1974   1.360   0.862   4.769
  562SOL    HW1 1975   1.285   0.862   4.703
  562SOL    HW2 1976   1.397   0.770   4.778
  563SOL     OW 1977   1.209   0.525   3.999
  563SOL    HW1 1978   1.222   0.441   4.053
  563SOL    HW2 1979   1.180   0.599   4.059
  564SOL     OW 1980   0.307   0.213   4.955
  564SOL    HW1 1981   0.284   0.250   5.045
  564SOL    HW2 1982   0.277   0.118   4.949
  565SOL     OW 1983   0.037   1.310   5.006
  565SOL    HW1 1984   0.090   1.261   5.074
  565SOL    HW2 1985   0.059   1.408   5.011
  566SOL     OW 1986   0.732   0.634   4.788
  566SOL    HW1 1987   0.791   0.608   4.712
  566SOL    HW2 1988   0.704   0.730   4.777
  567SOL     OW 1989   1.728   0.935   5.578
  567SOL    HW1 1990   1.682   0.928   5.489
  567SOL    HW2 1991   1.666   0.979   5.644
  568SOL     OW 1992   0.307   0.063   4.342
  568SOL    HW1 1993   0.296   0.157   4.375
  568SOL    HW2 1994   0.302   0.000   4.419
  569SOL     OW 1995   1.622   0.367   4.098
  569SOL    HW1 1996   1.624   0.291   4.162
  569SOL    HW2 1997   1.574   0.444   4.138
  570SOL     OW 1998   1.023   0.766   4.690
  570SOL    HW1 1999   1.038   0.787   4.786
  570SOL    HW2 2000   0.993   0.671   4.681
  571SOL     OW 2001   0.980   1.573   5.424
  571SOL    HW1 2002   0.960   1.617   5.336
  571SOL    HW2 2003   1.019   1.482   5.408
  572SOL     OW 2004   1.859   1.518   5.329
  572SOL    HW1 2005   1.873   1.545   5.234
  572SOL    HW2 2006   1.942   1.540   5.382
  573SOL     OW 2007   0.350   0.898   5.528
  573SOL    HW1 2008   0.426   0.942   5.576
  573SOL    HW2 2009   0.385   0.851   5.446
  574SOL     OW 2010   1.540   0.274   3.849
  574SOL    HW1 2011   1.479   0.199   3.872
  574SOL    HW2 2012   1.562   0.326   3.932
  575SOL     OW 2013   1.303   0.838   3.766
  575SOL    HW1 2014   1.337   0.745   3.781
  575SOL    HW2 2015   1.321   0.865   3.671
  576SOL     OW 2016   1.068   1.333   4.573
  576SOL    HW1 2017   1.075   1.249   4.518
  576SOL    HW2 2018   1.130   1.402   4.537
  577SOL     OW 2019   0.319   0.810   4.673
  577SOL    HW1 2020   0.412   0.846   4.678
  577SOL    HW2 2021   0.313   0.725   4.725
  578SOL     OW 2022   0.339   0.509   4.730
  578SOL    HW1 2023   0.287   0.426   4.713
  578SOL    HW2 2024   0.416   0.514   4.666
  579SOL     OW 2025   1.138   0.380   5.402
  579SOL    HW1 2026   1.093   0.443   5.466
  579SOL    HW2 2027   1.231   0.411   5.385
  580SOL     OW 2028   1.160   0.207   5.201
  580SOL    HW1 2029   1.160   0.271   5.278
  580SOL    HW2 2030   1.188   0.255   5.118
  581SOL     OW 2031   0.008   1.326   3.924
  581SOL    HW1 2032  -0.085   1.347   3.893
  581SOL    HW2 2033   0.018   1.227   3.937
  582SOL     OW 2034   0.088   1.801   4.651
  582SOL    HW1 2035   0.046   1.715   4.624
  582SOL    HW2 2036   0.182   1.804   4.617
  583SOL     OW 2037   0.504   1.568   4.634
  583SOL    HW1 2038   0.570   1.642   4.643
  583SOL    HW2 2039   0.548   1.489   4.592
  584SOL     OW 2040   1.002   0.796   4.962
  584SOL    HW1 2041   1.043   0.764   5.048
  584SOL    HW2 2042   0.906   0.769   4.959
  585SOL     OW 2043   0.040   0.544   4.838
  585SOL    HW1 2044   0.125   0.511   4.797
  585SOL    HW2 2045   0.053   0.559   4.936
  586SOL     OW 2046   0.189   0.520   5.446
  586SOL    HW1 2047   0.248   0.480   5.376
  586SOL    HW2 2048   0.131   0.591   5.405
  587SOL     OW 2049   1.369   0.950   5.384
  587SOL    HW1 2050   1.408   1.039   5.404
  587SOL    HW2 2051   1.379   0.930   5.287
  588SOL     OW 2052   0.815   0.572   4.049
  588SOL    HW1 2053   0.822   0.483   4.003
  588SOL    HW2 2054   0.721   0.606   4.041
  589SOL     OW 2055   1.657   0.604   4.930
  589SOL    HW1 2056   1.619   0.535   4.992
  589SOL    HW2 2057   1.739   0.568   4.886
  590SOL     OW 2058   0.252   1.564   5.468
  590SOL    HW1 2059   0.222   1.621   5.544
  590SOL    HW2 2060   0.245   1.467   5.494
  591SOL     OW 2061   0.671   0.464   4.993
  591SOL    HW1 2062   0.637   0.375   4.963
  591SOL    HW2 2063   0.697   0.518   4.913
  592SOL     OW 2064   0.930   1.678   5.189
  592SOL    HW1 2065   0.906   1.660   5.094
  592SOL    HW2 2066   0.960   1.772   5.199
  593SOL     OW 2067   0.473   0.500   3.915
  593SOL    HW1 2068   0.534   0.580   3.919
  593SOL    HW2 2069   0.378   0.531   3.922
  594SOL     OW 2070   0.159   1.137   5.190
  594SOL    HW1 2071   0.181   1.076   5.266
  594SOL    HW2 2072   0.169   1.088   5.104
  595SOL     OW 2073   1.347   1.059   4.958
  595SOL    HW1 2074   1.371   0.996   4.884
  595SOL    HW2 2075   1.257   1.099   4.940
  596SOL     OW 2076   1.302   0.855   4.033
  596SOL    HW1 2077   1.216   0.824   4.075
  596SOL    HW2 2078   1.298   0.841   3.934
  597SOL     OW 2079   1.759   1.747   4.878
  597SOL    HW1 2080   1.820   1.777   4.805
  597SOL    HW2 2081   1.721   1.658   4.856
  598SOL     OW 2082   1.252   1.731   4.852
  598SOL    HW1 2083   1.336   1.736   4.798
  598SOL    HW2 2084   1.229   1.635   4.870
  599SOL     OW 2085   0.083   1.258   4.746
  599SOL    HW1 2086   0.078   1.257   4.846
  599SOL    HW2 2087   0.000   1.217   4.708
  600SOL     OW 2088   0.688   1.662   5.440
  600SOL    HW1 2089   0.632   1.743   5.449
  600SOL    HW2 2090   0.740   1.666   5.354
  601SOL     OW 2091   1.726   0.135   4.247
  601SOL    HW1 2092   1.799   0.118   4.180
  601SOL    HW2 2093   1.695   0.048   4.285
  602SOL     OW 2094   1.388   1.573   4.201
  602SOL    HW1 2095   1.455   1.585   4.127
  602SOL    HW2 2096   1.348   1.662   4.224
  603SOL     OW 2097   0.130   1.794   5.575
  603SOL    HW1 2098   0.089   1.720   5.628
  603SOL    HW2 2099   0.194   1.845   5.633
  604SOL     OW 2100   1.280   0.927   4.396
  604SOL    HW1 2101   1.340   0.846   4.398
  604SOL    HW2 2102   1.320   0.996   4.336
  605SOL     OW 2103   0.830   1.273   5.146
  605SOL    HW1 2104   0.825   1.306   5.241
  605SOL    HW2 2105   0.744   1.292   5.100
  606SOL     OW 2106   0.672   1.616   3.878
  606SOL    HW1 2107   0.681   1.626   3.779
  606SOL    HW2 2108   0.632   1.527   3.899
  607SOL     OW 2109   1.650   1.720   5.118
  607SOL    HW1 2110   1.703   1.730   5.034
  607SOL    HW2 2111   1.623   1.810   5.152
  608SOL     OW 2112   1.841   0.175   4.687
  608SOL    HW1 2113   1.880   0.090   4.651
  608SOL    HW2 2114   1.743   0.177   4.668
  609SOL     OW 2115   0.263   0.326   4.444
  609SOL    HW1 2116   0.184   0.377   4.410
  609SOL    HW2 2117   0.254   0.311   4.542
  610SOL     OW 2118   1.194   1.612   3.755
  610SOL    HW1 2119   1.200   1.519   3.792
  610SOL    HW2 2120   1.135   1.612   3.675
  611SOL     OW 2121   0.822   1.002   5.096
  611SOL    HW1 2122   0.862   1.001   5.004
  611SOL    HW2 2123   0.832   1.094   5.136
  612SOL     OW 2124   0.916   0.910   4.015
  612SOL    HW1 2125   0.979   0.948   3.947
  612SOL    HW2 2126   0.956   0.827   4.054
  613SOL     OW 2127   1.504   1.607   3.768
  613SOL    HW1 2128   1.412   1.644   3.775
  613SOL    HW2 2129   1.542   1.627   3.678
  614SOL     OW 2130   0.372   1.288   5.214
  614SOL    HW1 2131   0.359   1.381   5.180
  614SOL    HW2 2132   0.288   1.236   5.201
  615SOL     OW 2133   1.614   1.292   5.013
  615SOL    HW1 2134   1.674   1.295   5.093
  615SOL    HW2 2135   1.539   1.356   5.026
  616SOL     OW 2136   1.039   1.098   4.420
  616SOL    HW1 2137   0.969   1.051   4.474
  616SOL    HW2 2138   1.098   1.030   4.377
  617SOL     OW 2139   1.014   0.236   4.695
  617SOL    HW1 2140   1.006   0.200   4.602
  617SOL    HW2 2141   1.012   0.160   4.760
  618SOL     OW 2142   0.590   1.487   4.215
  618SOL    HW1 2143   0.632   1.429   4.145
  618SOL    HW2 2144   0.546   1.566   4.171
  619SOL     OW 2145   1.709   0.385   5.105
  619SOL    HW1 2146   1.782   0.454   5.109
  619SOL    HW2 2147   1.737   0.310   5.046
  620SOL     OW 2148   0.255   1.348   4.014
  620SOL    HW1 2149   0.159   1.349   3.987
  620SOL    HW2 2150   0.267   1.401   4.098
  621SOL     OW 2151   0.105   1.013   5.450
  621SOL    HW1 2152   0.028   0.980   5.504
  621SOL    HW2 2153   0.190   0.983   5.492
  622SOL     OW 2154   0.672   0.203   5.213
  622SOL    HW1 2155   0.762   0.187   5.173
  622SOL    HW2 2156   0.680   0.208   5.312
  623SOL     OW 2157   0.075   0.345   3.757
  623SOL    HW1 2158  -0.017   0.317   3.728
  623SOL    HW2 2159   0.106   0.422   3.701
  624SOL     OW 2160   1.440   0.856   5.122
  624SOL    HW1 2161   1.383   0.908   5.059
  624SOL    HW2 2162   1.536   0.868   5.098
  625SOL     OW 2163   0.072   0.166   4.042
  625SOL    HW1 2164   0.055   0.249   3.988
  625SOL    HW2 2165   0.162   0.129   4.020
  626SOL     OW 2166   1.183   1.335   3.843
  626SOL    HW1 2167   1.084   1.324   3.845
  626SOL    HW2 2168   1.217   1.350   3.936
  627SOL     OW 2169   0.613   0.842   5.155
  627SOL    HW1 2170   0.669   0.923   5.138
  627SOL    HW2 2171   0.672   0.762   5.158
  628SOL     OW 2172   1.493   1.767   4.683
  628SOL    HW1 2173   1.526   1.831   4.614
  628SOL    HW2 2174   1.559   1.761   4.758
  629SOL     OW 2175   0.716   0.565   5.432
  629SOL    HW1 2176   0.735   0.630   5.506
  629SOL    HW2 2177   0.776   0.485   5.441
  630SOL     OW 2178   1.450   1.220   5.357
  630SOL    HW1 2179   1.441   1.210   5.456
  630SOL    HW2 2180   1.546   1.213   5.331
  631SOL     OW 2181   0.390   1.741   5.284
  631SOL    HW1 2182   0.299   1.782   5.282
  631SOL    HW2 2183   0.383   1.647   5.316
  632SOL     OW 2184   1.674   0.883   4.978
  632SOL    HW1 2185   1.647   0.794   4.941
  632SOL    HW2 2186   1.675   0.951   4.905
  633SOL     OW 2187   1.225   0.325   4.173
  633SOL    HW1 2188   1.290   0.251   4.162
  633SOL    HW2 2189   1.245   0.375   4.257
  634SOL     OW 2190   0.594   0.745   4.376
  634SOL    HW1 2191   0.644   0.830   4.357
  634SOL    HW2 2192   0.506   0.747   4.328
  635SOL     OW 2193   1.777   0.342   5.366
  635SOL    HW1 2194   1.760   0.373   5.272
  635SOL    HW2 2195   1.693   0.305   5.404
  636SOL     OW 2196   1.730   0.934   5.241
  636SOL    HW1 2197   1.768   1.025   5.256
  636SOL    HW2 2198   1.722   0.917   5.142
  637SOL     OW 2199   0.859   1.374   3.740
  637SOL    HW1 2200   0.813   1.389   3.828
  637SOL    HW2 2201   0.903   1.459   3.710
  638SOL     OW 2202   0.661   1.790   4.677
  638SOL    HW1 2203   0.615   1.878   4.664
  638SOL    HW2 2204   0.760   1.802   4.670
  639SOL     OW 2205   0.859   0.956   4.585
  639SOL    HW1 2206   0.913   0.887   4.633
  639SOL    HW2 2207   0.827   1.025   4.651
  640SOL     OW 2208   1.083   0.984   3.811
  640SOL    HW1 2209   1.060   1.037   3.729
  640SOL    HW2 2210   1.164   0.928   3.792
  641SOL     OW 2211   1.861   1.569   4.575
  641SOL    HW1 2212   1.790   1.557   4.505
  641SOL    HW2 2213   1.862   1.490   4.635
  642SOL     OW 2214   0.221   1.314   5.568
  642SOL    HW1 2215   0.156   1.241   5.547
  642SOL    HW2 2216   0.225   1.328   5.666
  643SOL     OW 2217   0.079   1.240   4.377
  643SOL    HW1 2218   0.078   1.193   4.465
  643SOL    HW2 2219   0.161   1.212   4.326
  644SOL     OW 2220   0.672   1.391   5.348
  644SOL    HW1 2221   0.594   1.341   5.386
  644SOL    HW2 2222   0.669   1.486   5.379
  645SOL     OW 2223   1.824   0.192   4.951
  645SOL    HW1 2224   1.820   0.102   4.995
  645SOL    HW2 2225   1.827   0.181   4.852
  646SOL     OW 2226   0.428   0.424   4.244
  646SOL    HW1 2227   0.458   0.352   4.182
  646SOL    HW2 2228   0.389   0.384   4.327
  647SOL     OW 2229   1.705   1.487   4.828
  647SOL    HW1 2230   1.612   1.462   4.801
  647SOL    HW2 2231   1.731   1.437   4.910
  648SOL     OW 2232   0.317   0.547   5.004
  648SOL    HW1 2233   0.355   0.488   5.076
  648SOL    HW2 2234   0.357   0.521   4.916
  649SOL     OW 2235   0.812   1.586   4.411
  649SOL    HW1 2236   0.844   1.596   4.317
  649SOL    HW2 2237   0.733   1.524   4.413
  650SOL     OW 2238   1.424   0.214   4.836
  650SOL    HW1 2239   1.476   0.149   4.891
  650SOL    HW2 2240   1.375   0.277   4.897
  651SOL     OW 2241   1.001   0.034   4.878
  651SOL    HW1 2242   0.938  -0.038   4.847
  651SOL    HW2 2243   1.094  -0.002   4.878
  652SOL     OW 2244   0.770   1.330   4.025
  652SOL    HW1 2245   0.724   1.243   4.042
  652SOL    HW2 2246   0.861   1.327   4.066
  653SOL     OW 2247   0.618   1.567   5.008
  653SOL    HW1 2248   0.613   1.649   5.065
  653SOL    HW2 2249   0.707   1.564   4.963
  654SOL     OW 2250   1.352   0.052   3.892
  654SOL    HW1 2251   1.387   0.011   3.808
  654SOL    HW2 2252   1.262   0.014   3.912
  655SOL     OW 2253   1.300   0.453   4.415
  655SOL    HW1 2254   1.241   0.533   4.419
  655SOL    HW2 2255   1.315   0.418   4.508
  656SOL     OW 2256   1.593   0.221   4.606
  656SOL    HW1 2257   1.509   0.220   4.660
  656SOL    HW2 2258   1.595   0.304   4.550
  657SOL     OW 2259   0.039   1.077   4.024
  657SOL    HW1 2260   0.138   1.066   4.015
  657SOL    HW2 2261  -0.001   0.991   4.056
  658SOL     OW 2262   0.875   1.646   4.061
  658SOL    HW1 2263   0.798   1.611   4.007
  658SOL    HW2 2264   0.843   1.717   4.123
  659SOL     OW 2265   0.230   0.628   5.699
  659SOL    HW1 2266   0.137   0.626   5.736
  659SOL    HW2 2267   0.231   0.589   5.607
  660SOL     OW 2268   1.755   0.607   5.817
  660SOL    HW1 2269   1.743   0.594   5.718
  660SOL    HW2 2270   1.725   0.526   5.866
  661SOL     OW 2271   0.231   1.713   6.069
  661SOL    HW1 2272   0.265   1.790   6.123
  661SOL    HW2 2273   0.275   1.713   5.979
  662SOL     OW 2274   0.606   0.964   5.709
  662SOL    HW1 2275   0.613   1.048   5.655
  662SOL    HW2 2276   0.652   0.977   5.797
  663SOL     OW 2277   1.842   1.767   5.945
  663SOL    HW1 2278   1.896   1.738   6.025
  663SOL    HW2 2279   1.872   1.857   5.916
  664SOL     OW 2280   0.027   1.596   5.703
  664SOL    HW1 2281   0.008   1.500   5.724
  664SOL    HW2 2282  -0.006   1.654   5.778
  665SOL     OW 2283   1.689   0.922   6.198
  665SOL    HW1 2284   1.784   0.893   6.206
  665SOL    HW2 2285   1.681   0.987   6.123
  666SOL     OW 2286   1.641   1.108   6.018
  666SOL    HW1 2287   1.727   1.110   5.966
  666SOL    HW2 2288   1.655   1.155   6.106
  667SOL     OW 2289   1.525   0.999   5.776
  667SOL    HW1 2290   1.462   0.923   5.789
  667SOL    HW2 2291   1.573   1.017   5.862
  668SOL     OW 2292   0.598   0.729   5.856
  668SOL    HW1 2293   0.622   0.798   5.788
  668SOL    HW2 2294   0.520   0.762   5.910
  669SOL     OW 2295   0.865   0.348   5.781
  669SOL    HW1 2296   0.924   0.411   5.732
  669SOL    HW2 2297   0.884   0.254   5.752
  670SOL     OW 2298   0.321   0.943   5.828
  670SOL    HW1 2299   0.403   0.982   5.786
  670SOL    HW2 2300   0.294   0.861   5.779
  671SOL     OW 2301   1.111   1.776   5.823
  671SOL    HW1 2302   1.051   1.714   5.873
  671SOL    HW2 2303   1.142   1.732   5.738
  672SOL     OW 2304   1.632   1.377   5.667
  672SOL    HW1 2305   1.600   1.471   5.657
  672SOL    HW2 2306   1.556   1.314   5.655
  673SOL     OW 2307   0.464   1.743   5.909
  673SOL    HW1 2308   0.497   1.782   5.995
  673SOL    HW2 2309   0.540   1.736   5.844
  674SOL     OW 2310   0.614   0.122   5.703
  674SOL    HW1 2311   0.712   0.100   5.710
  674SOL    HW2 2312   0.583   0.105   5.610
  675SOL     OW 2313   1.434   1.188   5.627
  675SOL    HW1 2314   1.466   1.112   5.684
  675SOL    HW2 2315   1.342   1.215   5.657
  676SOL     OW 2316   0.297   0.035   5.757
  676SOL    HW1 2317   0.346   0.119   5.736
  676SOL    HW2 2318   0.359  -0.030   5.802
  677SOL     OW 2319   1.032   0.549   5.602
  677SOL    HW1 2320   0.991   0.631   5.563
  677SOL    HW2 2321   1.096   0.575   5.675
  678SOL     OW 2322   1.857   0.833   5.963
  678SOL    HW1 2323   1.899   0.769   6.027
  678SOL    HW2 2324   1.819   0.782   5.885
  679SOL     OW 2325   0.488   1.385   5.760
  679SOL    HW1 2326   0.401   1.370   5.807
  679SOL    HW2 2327   0.471   1.411   5.665
  680SOL     OW 2328   1.664   1.280   6.243
  680SOL    HW1 2329   1.763   1.288   6.257
  680SOL    HW2 2330   1.619   1.364   6.274
  681SOL     OW 2331   1.390   0.575   5.664
  681SOL    HW1 2332   1.336   0.554   5.745
  681SOL    HW2 2333   1.481   0.534   5.673
  682SOL     OW 2334   0.527   0.256   5.914
  682SOL    HW1 2335   0.554   0.197   5.839
  682SOL    HW2 2336   0.527   0.351   5.883
  683SOL     OW 2337   0.367   1.100   6.087
  683SOL    HW1 2338   0.360   1.183   6.031
  683SOL    HW2 2339   0.371   1.020   6.027
  684SOL     OW 2340   1.209   0.525   5.861
  684SOL    HW1 2341   1.222   0.441   5.915
  684SOL    HW2 2342   1.180   0.599   5.921
  685SOL     OW 2343   1.540   0.274   5.711
  685SOL    HW1 2344   1.479   0.199   5.734
  685SOL    HW2 2345   1.562   0.326   5.794
  686SOL     OW 2346   1.303   0.838   5.628
  686SOL    HW1 2347   1.337   0.745   5.643
  686SOL    HW2 2348   1.321   0.865   5.533
  687SOL     OW 2349   0.008   1.326   5.786
  687SOL    HW1 2350  -0.085   1.347   5.755
  687SOL    HW2 2351   0.018   1.227   5.799
  688SOL     OW 2352   0.815   0.572   5.911
  688SOL    HW1 2353   0.822   0.483   5.865
  688SOL    HW2 2354   0.721   0.606   5.903
  689SOL     OW 2355   0.473   0.500   5.777
  689SOL    HW1 2356   0.534   0.580   5.781
  689SOL    HW2 2357   0.378   0.531   5.784
  690SOL     OW 2358   1.726   0.135   6.109
  690SOL    HW1 2359   1.799   0.118   6.042
  690SOL    HW2 2360   1.695   0.048   6.147
  691SOL     OW 2361   0.672   1.616   5.740
  691SOL    HW1 2362   0.681   1.626   5.641
  691SOL    HW2 2363   0.632   1.527   5.761
  692SOL     OW 2364   1.194   1.612   5.617
  692SOL    HW1 2365   1.200   1.519   5.654
  692SOL    HW2 2366   1.135   1.612   5.537
  693SOL     OW 2367   0.916   0.910   5.877
  693SOL    HW1 2368   0.979   0.948   5.809
  693SOL    HW2 2369   0.956   0.827   5.916
  694SOL     OW 2370   1.504   1.607   5.630
  694SOL    HW1 2371   1.412   1.644   5.637
  694SOL    HW2 2372   1.542   1.627   5.540
  695SOL     OW 2373   1.039   1.098   6.282
  695SOL    HW1 2374   0.969   1.051   6.336
  695SOL    HW2 2375   1.098   1.030   6.239
  696SOL     OW 2376   0.255   1.348   5.876
  696SOL    HW1 2377   0.159   1.349   5.849
  696SOL    HW2 2378   0.267   1.401   5.960
  697SOL     OW 2379   0.075   0.345   5.619
  697SOL    HW1 2380  -0.017   0.317   5.590
  697SOL    HW2 2381   0.106   0.422   5.563
  698SOL     OW 2382   0.072   0.166   5.904
  698SOL    HW1 2383   0.055   0.249   5.850
  698SOL    HW2 2384   0.162   0.129   5.882
  699SOL     OW 2385   1.183   1.335   5.705
  699SOL    HW1 2386   1.084   1.324   5.707
  699SOL    HW2 2387   1.217   1.350   5.798
  700SOL     OW 2388   1.225   0.325   6.035
  700SOL    HW1 2389   1.290   0.251   6.024
  700SOL    HW2 2390   1.245   0.375   6.119
  701SOL     OW 2391   0.859   1.374   5.602
  701SOL    HW1 2392   0.813   1.389   5.690
  701SOL    HW2 2393   0.903   1.459   5.572
  702SOL     OW 2394   1.083   0.984   5.673
  702SOL    HW1 2395   1.060   1.037   5.591
  702SOL    HW2 2396   1.164   0.928   5.654
  703SOL     OW 2397   1.352   0.052   5.754
  703SOL    HW1 2398   1.387   0.011   5.670
  703SOL    HW2 2399   1.262   0.014   5.774
  704SOL     OW 2400   0.039   1.077   5.886
  704SOL    HW1 2401   0.138   1.066   5.877
  704SOL    HW2 2402  -0.001   0.991   5.918
  705SOL     OW 2403   0.875   1.646   5.923
  705SOL    HW1 2404   0.798   1.611   5.869
  705SOL    HW2 2405   0.843   1.717   5.985
  706SOL     OW 2406   0.230   2.490   0.113
  706SOL    HW1 2407   0.137   2.488   0.150
  706SOL    HW2 2408   0.231   2.451   0.021
  707SOL     OW 2409   0.225   2.137   0.996
  707SOL    HW1 2410   0.260   2.120   1.088
  707SOL    HW2 2411   0.137   2.092   0.984
  708SOL     OW 2412   0.019   2.230   0.647
  708SOL    HW1 2413  -0.063   2.273   0.686
  708SOL    HW2 2414  -0.009   2.157   0.584
  709SOL     OW 2415   0.569   3.137   1.165
  709SOL    HW1 2416   0.476   3.130   1.128
  709SOL    HW2 2417   0.580   3.226   1.209
  710SOL     OW 2418   1.555   3.373   0.703
  710SOL    HW1 2419   1.498   3.357   0.784
  710SOL    HW2 2420   1.496   3.383   0.623
  711SOL     OW 2421   1.135   2.565   0.717
  711SOL    HW1 2422   1.192   2.643   0.692
  711SOL    HW2 2423   1.075   2.591   0.793
  712SOL     OW 2424   1.755   2.469   0.231
  712SOL    HW1 2425   1.743   2.456   0.132
  712SOL    HW2 2426   1.725   2.388   0.280
  713SOL     OW 2427   0.768   3.006   1.023
  713SOL    HW1 2428   0.690   3.023   1.083
  713SOL    HW2 2429   0.802   3.093   0.987
  714SOL     OW 2430   0.850   2.660   1.823
  714SOL    HW1 2431   0.846   2.736   1.888
  714SOL    HW2 2432   0.872   2.696   1.732
  715SOL     OW 2433   0.685   2.874   0.665
  715SOL    HW1 2434   0.754   2.858   0.735
  715SOL    HW2 2435   0.612   2.931   0.703
  716SOL     OW 2436   0.686   3.023   1.803
  716SOL    HW1 2437   0.746   3.102   1.817
  716SOL    HW2 2438   0.600   3.054   1.762
  717SOL     OW 2439   0.335   3.297   1.061
  717SOL    HW1 2440   0.257   3.266   1.008
  717SOL    HW2 2441   0.393   3.355   1.004
  718SOL     OW 2442   1.460   3.367   1.339
  718SOL    HW1 2443   1.484   3.461   1.365
  718SOL    HW2 2444   1.444   3.313   1.421
  719SOL     OW 2445   0.438   2.254   1.499
  719SOL    HW1 2446   0.520   2.198   1.508
  719SOL    HW2 2447   0.357   2.196   1.503
  720SOL     OW 2448   1.603   2.309   0.737
  720SOL    HW1 2449   1.529   2.355   0.687
  720SOL    HW2 2450   1.654   2.377   0.790
  721SOL     OW 2451   0.231   3.575   0.483
  721SOL    HW1 2452   0.265   3.652   0.537
  721SOL    HW2 2453   0.275   3.575   0.393
  722SOL     OW 2454   1.127   3.203   1.690
  722SOL    HW1 2455   1.174   3.203   1.778
  722SOL    HW2 2456   1.079   3.116   1.679
  723SOL     OW 2457   0.230   3.296   0.538
  723SOL    HW1 2458   0.204   3.392   0.538
  723SOL    HW2 2459   0.159   3.242   0.583
  724SOL     OW 2460   0.240   2.953   0.886
  724SOL    HW1 2461   0.254   2.869   0.938
  724SOL    HW2 2462   0.185   3.017   0.941
  725SOL     OW 2463   0.620   3.648   1.439
  725SOL    HW1 2464   0.528   3.631   1.474
  725SOL    HW2 2465   0.648   3.740   1.465
  726SOL     OW 2466   0.606   2.826   0.123
  726SOL    HW1 2467   0.613   2.910   0.069
  726SOL    HW2 2468   0.652   2.839   0.211
  727SOL     OW 2469   1.594   1.976   1.480
  727SOL    HW1 2470   1.576   2.043   1.408
  727SOL    HW2 2471   1.591   2.022   1.569
  728SOL     OW 2472   0.122   2.505   0.563
  728SOL    HW1 2473   0.077   2.417   0.580
  728SOL    HW2 2474   0.121   2.559   0.647
  729SOL     OW 2475   1.842   3.629   0.359
  729SOL    HW1 2476   1.896   3.600   0.439
  729SOL    HW2 2477   1.872   3.719   0.330
  730SOL     OW 2478   0.027   3.458   0.117
  730SOL    HW1 2479   0.008   3.362   0.138
  730SOL    HW2 2480  -0.006   3.516   0.192
  731SOL     OW 2481   1.689   2.784   0.612
  731SOL    HW1 2482   1.784   2.755   0.620
  731SOL    HW2 2483   1.681   2.849   0.537
  732SOL     OW 2484   1.641   2.970   0.432
  732SOL    HW1 2485   1.727   2.972   0.380
  732SOL    HW2 2486   1.655   3.017   0.520
  733SOL     OW 2487   0.113   2.599   1.597
  733SOL    HW1 2488   0.201   2.586   1.642
  733SOL    HW2 2489   0.100   2.696   1.575
  734SOL     OW 2490   0.613   3.227   0.726
  734SOL    HW1 2491   0.564   3.140   0.735
  734SOL    HW2 2492   0.590   3.270   0.639
  735SOL     OW 2493   1.293   3.090   1.423
  735SOL    HW1 2494   1.330   3.017   1.365
  735SOL    HW2 2495   1.345   3.095   1.508
  736SOL     OW 2496   0.809   1.866   0.502
  736SOL    HW1 2497   0.849   1.957   0.493
  736SOL    HW2 2498   0.709   1.874   0.508
  737SOL     OW 2499   0.197   2.838   1.264
  737SOL    HW1 2500   0.286   2.793   1.250
  737SOL    HW2 2501   0.124   2.773   1.245
  738SOL     OW 2502   1.525   2.861   0.190
  738SOL    HW1 2503   1.462   2.785   0.203
  738SOL    HW2 2504   1.573   2.879   0.276
  739SOL     OW 2505   1.187   3.654   1.616
  739SOL    HW1 2506   1.211   3.714   1.540
  739SOL    HW2 2507   1.194   3.559   1.586
  740SOL     OW 2508   0.317   2.113   1.801
  740SOL    HW1 2509   0.388   2.184   1.807
  740SOL    HW2 2510   0.229   2.152   1.829
  741SOL     OW 2511   1.466   3.279   0.953
  741SOL    HW1 2512   1.407   3.285   1.033
  741SOL    HW2 2513   1.451   3.191   0.907
  742SOL     OW 2514   1.667   3.576   0.572
  742SOL    HW1 2515   1.626   3.553   0.484
  742SOL    HW2 2516   1.649   3.502   0.637
  743SOL     OW 2517   0.598   2.591   0.270
  743SOL    HW1 2518   0.622   2.660   0.202
  743SOL    HW2 2519   0.520   2.624   0.324
  744SOL     OW 2520   1.281   2.207   0.944
  744SOL    HW1 2521   1.195   2.157   0.931
  744SOL    HW2 2522   1.343   2.153   1.000
  745SOL     OW 2523   1.576   3.524   0.307
  745SOL    HW1 2524   1.665   3.570   0.310
  745SOL    HW2 2525   1.555   3.500   0.212
  746SOL     OW 2526   0.807   2.467   1.465
  746SOL    HW1 2527   0.760   2.464   1.554
  746SOL    HW2 2528   0.756   2.412   1.399
  747SOL     OW 2529   1.394   2.331   1.674
  747SOL    HW1 2530   1.374   2.374   1.762
  747SOL    HW2 2531   1.472   2.269   1.683
  748SOL     OW 2532   0.973   2.752   1.572
  748SOL    HW1 2533   1.019   2.668   1.543
  748SOL    HW2 2534   0.917   2.786   1.497
  749SOL     OW 2535   0.991   2.272   1.242
  749SOL    HW1 2536   0.914   2.306   1.296
  749SOL    HW2 2537   0.957   2.221   1.163
  750SOL     OW 2538   1.041   2.563   0.429
  750SOL    HW1 2539   1.067   2.559   0.525
  750SOL    HW2 2540   0.956   2.512   0.415
  751SOL     OW 2541   0.076   2.673   0.789
  751SOL    HW1 2542   0.175   2.661   0.798
  751SOL    HW2 2543   0.052   2.768   0.810
  752SOL     OW 2544   0.130   3.683   1.571
  752SOL    HW1 2545   0.120   3.668   1.670
  752SOL    HW2 2546   0.044   3.719   1.535
  753SOL     OW 2547   0.865   2.210   0.195
  753SOL    HW1 2548   0.924   2.273   0.146
  753SOL    HW2 2549   0.884   2.116   0.166
  754SOL     OW 2550   1.719   2.447   1.831
  754SOL    HW1 2551   1.693   2.536   1.795
  754SOL    HW2 2552   1.717   2.379   1.758
  755SOL     OW 2553   1.362   3.006   0.545
  755SOL    HW1 2554   1.445   2.977   0.497
  755SOL    HW2 2555   1.313   3.073   0.489
  756SOL     OW 2556   0.550   2.058   0.885
  756SOL    HW1 2557   0.545   2.053   0.985
  756SOL    HW2 2558   0.552   2.154   0.856
  757SOL     OW 2559   1.008   3.318   0.477
  757SOL    HW1 2560   0.962   3.390   0.425
  757SOL    HW2 2561   1.004   3.338   0.575
  758SOL     OW 2562   0.351   3.663   0.853
  758SOL    HW1 2563   0.401   3.577   0.859
  758SOL    HW2 2564   0.416   3.740   0.850
  759SOL     OW 2565   1.795   2.928   0.873
  759SOL    HW1 2566   1.733   2.913   0.797
  759SOL    HW2 2567   1.743   2.939   0.958
  760SOL     OW 2568   1.227   3.412   1.506
  760SOL    HW1 2569   1.233   3.335   1.570
  760SOL    HW2 2570   1.175   3.386   1.426
  761SOL     OW 2571   0.321   2.805   0.242
  761SOL    HW1 2572   0.403   2.844   0.200
  761SOL    HW2 2573   0.294   2.723   0.193
  762SOL     OW 2574   1.458   2.597   0.728
  762SOL    HW1 2575   1.453   2.532   0.803
  762SOL    HW2 2576   1.538   2.656   0.741
  763SOL     OW 2577   0.461   3.128   1.727
  763SOL    HW1 2578   0.411   3.129   1.641
  763SOL    HW2 2579   0.398   3.110   1.803
  764SOL     OW 2580   1.111   3.638   0.237
  764SOL    HW1 2581   1.051   3.576   0.287
  764SOL    HW2 2582   1.142   3.594   0.152
  765SOL     OW 2583   0.202   2.147   1.498
  765SOL    HW1 2584   0.122   2.207   1.485
  765SOL    HW2 2585   0.192   2.098   1.584
  766SOL     OW 2586   1.632   3.239   0.081
  766SOL    HW1 2587   1.600   3.333   0.071
  766SOL    HW2 2588   1.556   3.176   0.069
  767SOL     OW 2589   0.464   3.605   0.323
  767SOL    HW1 2590   0.497   3.644   0.409
  767SOL    HW2 2591   0.540   3.598   0.258
  768SOL     OW 2592   1.400   1.969   0.426
  768SOL    HW1 2593   1.376   1.932   0.336
  768SOL    HW2 2594   1.499   1.985   0.430
  769SOL     OW 2595   0.249   3.647   1.241
  769SOL    HW1 2596   0.306   3.582   1.291
  769SOL    HW2 2597   0.233   3.614   1.148
  770SOL     OW 2598   0.940   3.560   0.904
  770SOL    HW1 2599   1.020   3.503   0.925
  770SOL    HW2 2600   0.891   3.520   0.827
  771SOL     OW 2601   0.382   2.562   0.480
  771SOL    HW1 2602   0.427   2.472   0.477
  771SOL    HW2 2603   0.288   2.551   0.513
  772SOL     OW 2604   1.547   2.084   1.729
  772SOL    HW1 2605   1.542   2.121   1.821
  772SOL    HW2 2606   1.475   2.015   1.717
  773SOL     OW 2607   0.614   1.984   0.117
  773SOL    HW1 2608   0.712   1.962   0.124
  773SOL    HW2 2609   0.583   1.967   0.024
  774SOL     OW 2610   0.781   2.126   1.749
  774SOL    HW1 2611   0.848   2.065   1.792
  774SOL    HW2 2612   0.708   2.145   1.814
  775SOL     OW 2613   0.888   3.376   1.195
  775SOL    HW1 2614   0.865   3.351   1.101
  775SOL    HW2 2615   0.949   3.307   1.234
  776SOL     OW 2616   1.351   2.452   1.433
  776SOL    HW1 2617   1.379   2.409   1.518
  776SOL    HW2 2618   1.376   2.548   1.434
  777SOL     OW 2619   0.803   3.264   0.924
  777SOL    HW1 2620   0.893   3.278   0.882
  777SOL    HW2 2621   0.732   3.266   0.853
  778SOL     OW 2622   0.922   2.365   0.899
  778SOL    HW1 2623   0.897   2.356   0.803
  778SOL    HW2 2624   0.970   2.283   0.930
  779SOL     OW 2625   0.539   1.926   0.512
  779SOL    HW1 2626   0.458   1.927   0.570
  779SOL    HW2 2627   0.542   2.009   0.457
  780SOL     OW 2628   1.434   3.050   0.041
  780SOL    HW1 2629   1.466   2.974   0.098
  780SOL    HW2 2630   1.342   3.077   0.071
  781SOL     OW 2631   0.935   2.098   0.480
  781SOL    HW1 2632   0.887   2.139   0.402
  781SOL    HW2 2633   1.034   2.096   0.461
  782SOL     OW 2634   1.076   2.545   1.464
  782SOL    HW1 2635   0.996   2.484   1.467
  782SOL    HW2 2636   1.157   2.492   1.440
  783SOL     OW 2637   1.227   3.432   0.793
  783SOL    HW1 2638   1.248   3.506   0.728
  783SOL    HW2 2639   1.295   3.432   0.866
  784SOL     OW 2640   0.459   3.014   0.741
  784SOL    HW1 2641   0.388   2.987   0.806
  784SOL    HW2 2642   0.433   2.986   0.648
  785SOL     OW 2643   1.271   3.659   0.591
  785SOL    HW1 2644   1.315   3.723   0.527
  785SOL    HW2 2645   1.221   3.711   0.661
  786SOL     OW 2646   1.032   2.411   0.016
  786SOL    HW1 2647   0.991   2.493  -0.023
  786SOL    HW2 2648   1.096   2.437   0.089
  787SOL     OW 2649   0.078   2.418   1.386
  787SOL    HW1 2650   0.170   2.417   1.345
  787SOL    HW2 2651   0.072   2.492   1.453
  788SOL     OW 2652   0.561   2.084   1.147
  788SOL    HW1 2653   0.599   2.000   1.184
  788SOL    HW2 2654   0.473   2.103   1.191
  789SOL     OW 2655   0.866   2.316   0.642
  789SOL    HW1 2656   0.834   2.388   0.580
  789SOL    HW2 2657   0.890   2.235   0.589
  790SOL     OW 2658   1.017   1.901   0.753
  790SOL    HW1 2659   0.945   1.906   0.684
  790SOL    HW2 2660   0.993   1.832   0.822
  791SOL     OW 2661   1.429   3.035   0.867
  791SOL    HW1 2662   1.374   2.951   0.860
  791SOL    HW2 2663   1.455   3.064   0.775
  792SOL     OW 2664   1.466   2.452   0.992
  792SOL    HW1 2665   1.436   2.357   0.999
  792SOL    HW2 2666   1.539   2.468   1.058
  793SOL     OW 2667   1.857   2.695   0.377
  793SOL    HW1 2668   1.899   2.631   0.441
  793SOL    HW2 2669   1.819   2.644   0.299
  794SOL     OW 2670   0.488   3.247   0.174
  794SOL    HW1 2671   0.401   3.232   0.221
  794SOL    HW2 2672   0.471   3.273   0.079
  795SOL     OW 2673   1.664   3.142   0.657
  795SOL    HW1 2674   1.763   3.150   0.671
  795SOL    HW2 2675   1.619   3.226   0.688
  796SOL     OW 2676   1.390   2.437   0.078
  796SOL    HW1 2677   1.336   2.416   0.159
  796SOL    HW2 2678   1.481   2.396   0.087
  797SOL     OW 2679   0.527   2.118   0.328
  797SOL    HW1 2680   0.554   2.059   0.253
  797SOL    HW2 2681   0.527   2.213   0.297
  798SOL     OW 2682   1.754   3.085   1.588
  798SOL    HW1 2683   1.845   3.046   1.575
  798SOL    HW2 2684   1.762   3.181   1.612
  799SOL     OW 2685   1.064   3.209   1.340
  799SOL    HW1 2686   0.984   3.186   1.395
  799SOL    HW2 2687   1.147   3.183   1.389
  800SOL     OW 2688   1.592   3.491   1.625
  800SOL    HW1 2689   1.619   3.525   1.535
  800SOL    HW2 2690   1.671   3.453   1.671
  801SOL     OW 2691   1.111   3.057   1.100
  801SOL    HW1 2692   1.071   3.101   1.181
  801SOL    HW2 2693   1.070   3.094   1.017
  802SOL     OW 2694   1.638   2.961   1.079
  802SOL    HW1 2695   1.643   3.042   1.138
  802SOL    HW2 2696   1.552   2.963   1.028
  803SOL     OW 2697   0.915   1.951   1.402
  803SOL    HW1 2698   0.940   1.931   1.307
  803SOL    HW2 2699   0.987   2.007   1.444
  804SOL     OW 2700   0.980   2.978   1.719
  804SOL    HW1 2701   0.881   2.984   1.729
  804SOL    HW2 2702   1.003   2.898   1.663
  805SOL     OW 2703   0.705   2.912   0.368
  805SOL    HW1 2704   0.691   2.919   0.467
  805SOL    HW2 2705   0.789   2.861   0.350
  806SOL     OW 2706   0.410   2.675   1.251
  806SOL    HW1 2707   0.496   2.687   1.301
  806SOL    HW2 2708   0.368   2.588   1.278
  807SOL     OW 2709   1.274   2.248   1.262
  807SOL    HW1 2710   1.295   2.322   1.326
  807SOL    HW2 2711   1.185   2.265   1.219
  808SOL     OW 2712   0.064   3.426   1.331
  808SOL    HW1 2713   0.018   3.508   1.297
  808SOL    HW2 2714   0.162   3.445   1.340
  809SOL     OW 2715   0.367   2.962   0.501
  809SOL    HW1 2716   0.360   3.045   0.445
  809SOL    HW2 2717   0.371   2.882   0.441
  810SOL     OW 2718   0.566   2.399   0.865
  810SOL    HW1 2719   0.578   2.465   0.791
  810SOL    HW2 2720   0.612   2.433   0.948
  811SOL     OW 2721   1.252   3.210   0.388
  811SOL    HW1 2722   1.302   3.287   0.428
  811SOL    HW2 2723   1.157   3.212   0.420
  812SOL     OW 2724   1.272   3.307   1.142
  812SOL    HW1 2725   1.319   3.320   1.229
  812SOL    HW2 2726   1.206   3.233   1.151
  813SOL     OW 2727   1.582   2.501   0.472
  813SOL    HW1 2728   1.551   2.562   0.545
  813SOL    HW2 2729   1.632   2.553   0.403
  814SOL     OW 2730   0.354   3.372   1.329
  814SOL    HW1 2731   0.333   3.328   1.242
  814SOL    HW2 2732   0.451   3.398   1.332
  815SOL     OW 2733   0.402   2.613   1.598
  815SOL    HW1 2734   0.470   2.668   1.551
  815SOL    HW2 2735   0.442   2.525   1.625
  816SOL     OW 2736   1.587   2.641   1.670
  816SOL    HW1 2737   1.495   2.679   1.665
  816SOL    HW2 2738   1.647   2.688   1.605
  817SOL     OW 2739   1.013   1.967   1.770
  817SOL    HW1 2740   1.019   2.052   1.718
  817SOL    HW2 2741   1.045   1.891   1.713
  818SOL     OW 2742   0.504   1.912   1.740
  818SOL    HW1 2743   0.462   1.855   1.670
  818SOL    HW2 2744   0.438   1.981   1.772
  819SOL     OW 2745   0.573   2.732   1.029
  819SOL    HW1 2746   0.617   2.821   1.020
  819SOL    HW2 2747   0.510   2.732   1.106
  820SOL     OW 2748   1.360   2.724   1.045
  820SOL    HW1 2749   1.285   2.724   0.979
  820SOL    HW2 2750   1.397   2.632   1.054
  821SOL     OW 2751   1.209   2.387   0.275
  821SOL    HW1 2752   1.222   2.303   0.329
  821SOL    HW2 2753   1.180   2.461   0.335
  822SOL     OW 2754   0.307   2.075   1.231
  822SOL    HW1 2755   0.284   2.112   1.321
  822SOL    HW2 2756   0.277   1.980   1.225
  823SOL     OW 2757   0.037   3.172   1.282
  823SOL    HW1 2758   0.090   3.123   1.350
  823SOL    HW2 2759   0.059   3.270   1.287
  824SOL     OW 2760   0.732   2.496   1.064
  824SOL    HW1 2761   0.791   2.470   0.988
  824SOL    HW2 2762   0.704   2.592   1.053
  825SOL     OW 2763   1.728   2.797   1.854
  825SOL    HW1 2764   1.682   2.790   1.765
  825SOL    HW2 2765   1.666   2.841   1.920
  826SOL     OW 2766   0.307   1.925   0.618
  826SOL    HW1 2767   0.296   2.019   0.651
  826SOL    HW2 2768   0.302   1.862   0.695
  827SOL     OW 2769   1.622   2.229   0.374
  827SOL    HW1 2770   1.624   2.153   0.438
  827SOL    HW2 2771   1.574   2.306   0.414
  828SOL     OW 2772   1.023   2.628   0.966
  828SOL    HW1 2773   1.038   2.649   1.062
  828SOL    HW2 2774   0.993   2.533   0.957
  829SOL     OW 2775   0.980   3.435   1.700
  829SOL    HW1 2776   0.960   3.479   1.612
  829SOL    HW2 2777   1.019   3.344   1.684
  830SOL     OW 2778   1.859   3.380   1.605
  830SOL    HW1 2779   1.873   3.407   1.510
  830SOL    HW2 2780   1.942   3.402   1.658
  831SOL     OW 2781   0.350   2.760   1.804
  831SOL    HW1 2782   0.426   2.804   1.852
  831SOL    HW2 2783   0.385   2.713   1.722
  832SOL     OW 2784   1.540   2.136   0.125
  832SOL    HW1 2785   1.479   2.061   0.148
  832SOL    HW2 2786   1.562   2.188   0.208
  833SOL     OW 2787   1.303   2.700   0.042
  833SOL    HW1 2788   1.337   2.607   0.057
  833SOL    HW2 2789   1.321   2.727  -0.053
  834SOL     OW 2790   1.068   3.195   0.849
  834SOL    HW1 2791   1.075   3.111   0.794
  834SOL    HW2 2792   1.130   3.264   0.813
  835SOL     OW 2793   0.319   2.672   0.949
  835SOL    HW1 2794   0.412   2.708   0.954
  835SOL    HW2 2795   0.313   2.587   1.001
  836SOL     OW 2796   0.339   2.371   1.006
  836SOL    HW1 2797   0.287   2.288   0.989
  836SOL    HW2 2798   0.416   2.376   0.942
  837SOL     OW 2799   1.138   2.242   1.678
  837SOL    HW1 2800   1.093   2.305   1.742
  837SOL    HW2 2801   1.231   2.273   1.661
  838SOL     OW 2802   1.160   2.069   1.477
  838SOL    HW1 2803   1.160   2.133   1.554
  838SOL    HW2 2804   1.188   2.117   1.394
  839SOL     OW 2805   0.008   3.188   0.200
  839SOL    HW1 2806  -0.085   3.209   0.169
  839SOL    HW2 2807   0.018   3.089   0.213
  840SOL     OW 2808   0.088   3.663   0.927
  840SOL    HW1 2809   0.046   3.577   0.900
  840SOL    HW2 2810   0.182   3.666   0.893
  841SOL     OW 2811   1.002   2.658   1.238
  841SOL    HW1 2812   1.043   2.626   1.324
  841SOL    HW2 2813   0.906   2.631   1.235
  842SOL     OW 2814   0.040   2.406   1.114
  842SOL    HW1 2815   0.125   2.373   1.073
  842SOL    HW2 2816   0.053   2.421   1.212
  843SOL     OW 2817   0.189   2.382   1.722
  843SOL    HW1 2818   0.248   2.342   1.652
  843SOL    HW2 2819   0.131   2.453   1.681
  844SOL     OW 2820   1.369   2.812   1.660
  844SOL    HW1 2821   1.408   2.901   1.680
  844SOL    HW2 2822   1.379   2.792   1.563
  845SOL     OW 2823   0.815   2.434   0.325
  845SOL    HW1 2824   0.822   2.345   0.279
  845SOL    HW2 2825   0.721   2.468   0.317
  846SOL     OW 2826   1.657   2.466   1.206
  846SOL    HW1 2827   1.619   2.397   1.268
  846SOL    HW2 2828   1.739   2.430   1.162
  847SOL     OW 2829   0.252   3.426   1.744
  847SOL    HW1 2830   0.222   3.483   1.820
  847SOL    HW2 2831   0.245   3.329   1.770
  848SOL     OW 2832   0.671   2.326   1.269
  848SOL    HW1 2833   0.637   2.237   1.239
  848SOL    HW2 2834   0.697   2.380   1.189
  849SOL     OW 2835   0.930   3.540   1.465
  849SOL    HW1 2836   0.906   3.522   1.370
  849SOL    HW2 2837   0.960   3.634   1.475
  850SOL     OW 2838   0.473   2.362   0.191
  850SOL    HW1 2839   0.534   2.442   0.195
  850SOL    HW2 2840   0.378   2.393   0.198
  851SOL     OW 2841   0.159   2.999   1.466
  851SOL    HW1 2842   0.181   2.938   1.542
  851SOL    HW2 2843   0.169   2.950   1.380
  852SOL     OW 2844   1.347   2.921   1.234
  852SOL    HW1 2845   1.371   2.858   1.160
  852SOL    HW2 2846   1.257   2.961   1.216
  853SOL     OW 2847   1.302   2.717   0.309
  853SOL    HW1 2848   1.216   2.686   0.351
  853SOL    HW2 2849   1.298   2.703   0.210
  854SOL     OW 2850   1.759   3.609   1.154
  854SOL    HW1 2851   1.820   3.639   1.081
  854SOL    HW2 2852   1.721   3.520   1.132
  855SOL     OW 2853   1.252   3.593   1.128
  855SOL    HW1 2854   1.336   3.598   1.074
  855SOL    HW2 2855   1.229   3.497   1.146
  856SOL     OW 2856   0.083   3.120   1.022
  856SOL    HW1 2857   0.078   3.119   1.122
  856SOL    HW2 2858   0.000   3.079   0.984
  857SOL     OW 2859   0.688   3.524   1.716
  857SOL    HW1 2860   0.632   3.605   1.725
  857SOL    HW2 2861   0.740   3.528   1.630
  858SOL     OW 2862   0.903   1.948   0.133
  858SOL    HW1 2863   0.954   1.949   0.047
  858SOL    HW2 2864   0.959   1.906   0.204
  859SOL     OW 2865   1.726   1.997   0.523
  859SOL    HW1 2866   1.799   1.980   0.456
  859SOL    HW2 2867   1.695   1.910   0.561
  860SOL     OW 2868   1.388   3.435   0.477
  860SOL    HW1 2869   1.455   3.447   0.403
  860SOL    HW2 2870   1.348   3.524   0.500
  861SOL     OW 2871   0.130   3.656   1.851
  861SOL    HW1 2872   0.089   3.582   1.904
  861SOL    HW2 2873   0.194   3.707   1.909
  862SOL     OW 2874   1.280   2.789   0.672
  862SOL    HW1 2875   1.340   2.708   0.674
  862SOL    HW2 2876   1.320   2.858   0.612
  863SOL     OW 2877   0.830   3.135   1.422
  863SOL    HW1 2878   0.825   3.168   1.517
  863SOL    HW2 2879   0.744   3.154   1.376
  864SOL     OW 2880   0.672   3.478   0.154
  864SOL    HW1 2881   0.681   3.488   0.055
  864SOL    HW2 2882   0.632   3.389   0.175
  865SOL     OW 2883   1.650   3.582   1.394
  865SOL    HW1 2884   1.703   3.592   1.310
  865SOL    HW2 2885   1.623   3.672   1.428
  866SOL     OW 2886   1.841   2.037   0.963
  866SOL    HW1 2887   1.880   1.952   0.927
  866SOL    HW2 2888   1.743   2.039   0.944
  867SOL     OW 2889   0.263   2.188   0.720
  867SOL    HW1 2890   0.184   2.239   0.686
  867SOL    HW2 2891   0.254   2.173   0.818
  868SOL     OW 2892   1.194   3.474   0.031
  868SOL    HW1 2893   1.200   3.381   0.068
  868SOL    HW2 2894   1.135   3.474  -0.049
  869SOL     OW 2895   0.822   2.864   1.372
  869SOL    HW1 2896   0.862   2.863   1.280
  869SOL    HW2 2897   0.832   2.956   1.412
  870SOL     OW 2898   0.916   2.772   0.291
  870SOL    HW1 2899   0.979   2.810   0.223
  870SOL    HW2 2900   0.956   2.689   0.330
  871SOL     OW 2901   1.504   3.469   0.044
  871SOL    HW1 2902   1.412   3.506   0.051
  871SOL    HW2 2903   1.542   3.489  -0.046
  872SOL     OW 2904   0.372   3.150   1.490
  872SOL    HW1 2905   0.359   3.243   1.456
  872SOL    HW2 2906   0.288   3.098   1.477
  873SOL     OW 2907   1.614   3.154   1.289
  873SOL    HW1 2908   1.674   3.157   1.369
  873SOL    HW2 2909   1.539   3.218   1.302
  874SOL     OW 2910   1.039   2.960   0.696
  874SOL    HW1 2911   0.969   2.913   0.750
  874SOL    HW2 2912   1.098   2.892   0.653
  875SOL     OW 2913   1.014   2.098   0.971
  875SOL    HW1 2914   1.006   2.062   0.878
  875SOL    HW2 2915   1.012   2.022   1.036
  876SOL     OW 2916   0.590   3.349   0.491
  876SOL    HW1 2917   0.632   3.291   0.421
  876SOL    HW2 2918   0.546   3.428   0.447
  877SOL     OW 2919   1.709   2.247   1.381
  877SOL    HW1 2920   1.782   2.316   1.385
  877SOL    HW2 2921   1.737   2.172   1.322
  878SOL     OW 2922   0.255   3.210   0.290
  878SOL    HW1 2923   0.159   3.211   0.263
  878SOL    HW2 2924   0.267   3.263   0.374
  879SOL     OW 2925   0.105   2.875   1.726
  879SOL    HW1 2926   0.028   2.842   1.780
  879SOL    HW2 2927   0.190   2.845   1.768
  880SOL     OW 2928   0.672   2.065   1.489
  880SOL    HW1 2929   0.762   2.049   1.449
  880SOL    HW2 2930   0.680   2.070   1.588
  881SOL     OW 2931   0.075   2.207   0.033
  881SOL    HW1 2932  -0.017   2.179   0.004
  881SOL    HW2 2933   0.106   2.284  -0.023
  882SOL     OW 2934   1.440   2.718   1.398
  882SOL    HW1 2935   1.383   2.770   1.335
  882SOL    HW2 2936   1.536   2.730   1.374
  883SOL     OW 2937   0.072   2.028   0.318
  883SOL    HW1 2938   0.055   2.111   0.264
  883SOL    HW2 2939   0.162   1.991   0.296
  884SOL     OW 2940   1.183   3.197   0.119
  884SOL    HW1 2941   1.084   3.186   0.121
  884SOL    HW2 2942   1.217   3.212   0.212
  885SOL     OW 2943   0.613   2.704   1.431
  885SOL    HW1 2944   0.669   2.785   1.414
  885SOL    HW2 2945   0.672   2.624   1.434
  886SOL     OW 2946   1.493   3.629   0.959
  886SOL    HW1 2947   1.526   3.693   0.890
  886SOL    HW2 2948   1.559   3.623   1.034
  887SOL     OW 2949   0.716   2.427   1.708
  887SOL    HW1 2950   0.735   2.492   1.782
  887SOL    HW2 2951   0.776   2.347   1.717
  888SOL     OW 2952   1.450   3.082   1.633
  888SOL    HW1 2953   1.441   3.072   1.732
  888SOL    HW2 2954   1.546   3.075   1.607
  889SOL     OW 2955   0.390   3.603   1.560
  889SOL    HW1 2956   0.299   3.644   1.558
  889SOL    HW2 2957   0.383   3.509   1.592
  890SOL     OW 2958   1.674   2.745   1.254
  890SOL    HW1 2959   1.647   2.656   1.217
  890SOL    HW2 2960   1.675   2.813   1.181
  891SOL     OW 2961   1.225   2.187   0.449
  891SOL    HW1 2962   1.290   2.113   0.438
  891SOL    HW2 2963   1.245   2.237   0.533
  892SOL     OW 2964   0.594   2.607   0.652
  892SOL    HW1 2965   0.644   2.692   0.633
  892SOL    HW2 2966   0.506   2.609   0.604
  893SOL     OW 2967   1.777   2.204   1.642
  893SOL    HW1 2968   1.760   2.235   1.548
  893SOL    HW2 2969   1.693   2.167   1.680
  894SOL     OW 2970   1.730   2.796   1.517
  894SOL    HW1 2971   1.768   2.887   1.532
  894SOL    HW2 2972   1.722   2.779   1.418
  895SOL     OW 2973   0.859   3.236   0.016
  895SOL    HW1 2974   0.813   3.251   0.104
  895SOL    HW2 2975   0.903   3.321  -0.014
  896SOL     OW 2976   0.661   3.652   0.953
  896SOL    HW1 2977   0.615   3.740   0.940
  896SOL    HW2 2978   0.760   3.664   0.946
  897SOL     OW 2979   0.859   2.818   0.861
  897SOL    HW1 2980   0.913   2.749   0.909
  897SOL    HW2 2981   0.827   2.887   0.927
  898SOL     OW 2982   1.083   2.846   0.087
  898SOL    HW1 2983   1.060   2.899   0.005
  898SOL    HW2 2984   1.164   2.790   0.068
  899SOL     OW 2985   1.861   3.431   0.851
  899SOL    HW1 2986   1.790   3.419   0.781
  899SOL    HW2 2987   1.862   3.352   0.911
  900SOL     OW 2988   0.221   3.176   1.844
  900SOL    HW1 2989   0.156   3.103   1.823
  900SOL    HW2 2990   0.225   3.190   1.942
  901SOL     OW 2991   0.079   3.102   0.653
  901SOL    HW1 2992   0.078   3.055   0.741
  901SOL    HW2 2993   0.161   3.074   0.602
  902SOL     OW 2994   0.672   3.253   1.624
  902SOL    HW1 2995   0.594   3.203   1.662
  902SOL    HW2 2996   0.669   3.348   1.655
  903SOL     OW 2997   1.824   2.054   1.227
  903SOL    HW1 2998   1.820   1.964   1.271
  903SOL    HW2 2999   1.827   2.043   1.128
  904SOL     OW 3000   0.428   2.286   0.520
  904SOL    HW1 3001   0.458   2.214   0.458
  904SOL    HW2 3002   0.389   2.246   0.603
  905SOL     OW 3003   1.705   3.349   1.104
  905SOL    HW1 3004   1.612   3.324   1.077
  905SOL    HW2 3005   1.731   3.299   1.186
  906SOL     OW 3006   0.317   2.409   1.280
  906SOL    HW1 3007   0.355   2.350   1.352
  906SOL    HW2 3008   0.357   2.383   1.192
  907SOL     OW 3009   0.812   3.448   0.687
  907SOL    HW1 3010   0.844   3.458   0.593
  907SOL    HW2 3011   0.733   3.386   0.689
  908SOL     OW 3012   1.424   2.076   1.112
  908SOL    HW1 3013   1.476   2.011   1.167
  908SOL    HW2 3014   1.375   2.139   1.173
  909SOL     OW 3015   1.001   1.896   1.154
  909SOL    HW1 3016   0.938   1.824   1.123
  909SOL    HW2 3017   1.094   1.860   1.154
  910SOL     OW 3018   0.770   3.192   0.301
  910SOL    HW1 3019   0.724   3.105   0.318
  910SOL    HW2 3020   0.861   3.189   0.342
  911SOL     OW 3021   0.618   3.429   1.284
  911SOL    HW1 3022   0.613   3.511   1.341
  911SOL    HW2 3023   0.707   3.426   1.239
  912SOL     OW 3024   1.352   1.914   0.168
  912SOL    HW1 3025   1.387   1.873   0.084
  912SOL    HW2 3026   1.262   1.876   0.188
  913SOL     OW 3027   1.300   2.315   0.691
  913SOL    HW1 3028   1.241   2.395   0.695
  913SOL    HW2 3029   1.315   2.280   0.784
  914SOL     OW 3030   1.593   2.083   0.882
  914SOL    HW1 3031   1.509   2.082   0.936
  914SOL    HW2 3032   1.595   2.166   0.826
  915SOL     OW 3033   0.039   2.939   0.300
  915SOL    HW1 3034   0.138   2.928   0.291
  915SOL    HW2 3035  -0.001   2.853   0.332
  916SOL     OW 3036   0.875   3.508   0.337
  916SOL    HW1 3037   0.798   3.473   0.283
  916SOL    HW2 3038   0.843   3.579   0.399
  917SOL     OW 3039   0.230   2.490   1.975
  917SOL    HW1 3040   0.137   2.488   2.012
  917SOL    HW2 3041   0.231   2.451   1.883
  918SOL     OW 3042   0.225   2.137   2.858
  918SOL    HW1 3043   0.260   2.120   2.950
  918SOL    HW2 3044   0.137   2.092   2.846
  919SOL     OW 3045   0.019   2.230   2.509
  919SOL    HW1 3046  -0.063   2.273   2.548
  919SOL    HW2 3047  -0.009   2.157   2.446
  920SOL     OW 3048   0.569   3.137   3.027
  920SOL    HW1 3049   0.476   3.130   2.990
  920SOL    HW2 3050   0.580   3.226   3.071
  921SOL     OW 3051   1.555   3.373   2.565
  921SOL    HW1 3052   1.498   3.357   2.646
  921SOL    HW2 3053   1.496   3.383   2.485
  922SOL     OW 3054   1.135   2.565   2.579
  922SOL    HW1 3055   1.192   2.643   2.554
  922SOL    HW2 3056   1.075   2.591   2.655
  923SOL     OW 3057   1.755   2.469   2.093
  923SOL    HW1 3058   1.743   2.456   1.994
  923SOL    HW2 3059   1.725   2.388   2.142
  924SOL     OW 3060   0.768   3.006   2.885
  924SOL    HW1 3061   0.690   3.023   2.945
  924SOL    HW2 3062   0.802   3.093   2.849
  925SOL     OW 3063   0.850   2.660   3.685
  925SOL    HW1 3064   0.846   2.736   3.750
  925SOL    HW2 3065   0.872   2.696   3.594
  926SOL     OW 3066   0.685   2.874   2.527
  926SOL    HW1 3067   0.754   2.858   2.597
  926SOL    HW2 3068   0.612   2.931   2.565
  927SOL     OW 3069   0.686   3.023   3.665
  927SOL    HW1 3070   0.746   3.102   3.679
  927SOL    HW2 3071   0.600   3.054   3.624
  928SOL     OW 3072   0.335   3.297   2.923
  928SOL    HW1 3073   0.257   3.266   2.870
  928SOL    HW2 3074   0.393   3.355   2.866
  929SOL     OW 3075   1.460   3.367   3.201
  929SOL    HW1 3076   1.484   3.461   3.227
  929SOL    HW2 3077   1.444   3.313   3.283
  930SOL     OW 3078   0.438   2.254   3.361
  930SOL    HW1 3079   0.520   2.198   3.370
  930SOL    HW2 3080   0.357   2.196   3.365
  931SOL     OW 3081   1.603   2.309   2.599
  931SOL    HW1 3082   1.529   2.355   2.549
  931SOL    HW2 3083   1.654   2.377   2.652
  932SOL     OW 3084   0.231   3.575   2.345
  932SOL    HW1 3085   0.265   3.652   2.399
  932SOL    HW2 3086   0.275   3.575   2.255
  933SOL     OW 3087   1.127   3.203   3.552
  933SOL    HW1 3088   1.174   3.203   3.640
  933SOL    HW2 3089   1.079   3.116   3.541
  934SOL     OW 3090   0.230   3.296   2.400
  934SOL    HW1 3091   0.204   3.392   2.400
  934SOL    HW2 3092   0.159   3.242   2.445
  935SOL     OW 3093   0.240   2.953   2.748
  935SOL    HW1 3094   0.254   2.869   2.800
  935SOL    HW2 3095   0.185   3.017   2.803
  936SOL     OW 3096   0.620   3.648   3.301
  936SOL    HW1 3097   0.528   3.631   3.336
  936SOL    HW2 3098   0.648   3.740   3.327
  937SOL     OW 3099   0.606   2.826   1.985
  937SOL    HW1 3100   0.613   2.910   1.931
  937SOL    HW2 3101   0.652   2.839   2.073
  938SOL     OW 3102   1.594   1.976   3.342
  938SOL    HW1 3103   1.576   2.043   3.270
  938SOL    HW2 3104   1.591   2.022   3.431
  939SOL     OW 3105   0.122   2.505   2.425
  939SOL    HW1 3106   0.077   2.417   2.442
  939SOL    HW2 3107   0.121   2.559   2.509
  940SOL     OW 3108   1.842   3.629   2.221
  940SOL    HW1 3109   1.896   3.600   2.301
  940SOL    HW2 3110   1.872   3.719   2.192
  941SOL     OW 3111   0.027   3.458   1.979
  941SOL    HW1 3112   0.008   3.362   2.000
  941SOL    HW2 3113  -0.006   3.516   2.054
  942SOL     OW 3114   1.689   2.784   2.474
  942SOL    HW1 3115   1.784   2.755   2.482
  942SOL    HW2 3116   1.681   2.849   2.399
  943SOL     OW 3117   1.641   2.970   2.294
  943SOL    HW1 3118   1.727   2.972   2.242
  943SOL    HW2 3119   1.655   3.017   2.382
  944SOL     OW 3120   0.113   2.599   3.459
  944SOL    HW1 3121   0.201   2.586   3.504
  944SOL    HW2 3122   0.100   2.696   3.437
  945SOL     OW 3123   0.613   3.227   2.588
  945SOL    HW1 3124   0.564   3.140   2.597
  945SOL    HW2 3125   0.590   3.270   2.501
  946SOL     OW 3126   1.293   3.090   3.285
  946SOL    HW1 3127   1.330   3.017   3.227
  946SOL    HW2 3128   1.345   3.095   3.370
  947SOL     OW 3129   0.809   1.866   2.364
  947SOL    HW1 3130   0.849   1.957   2.355
  947SOL    HW2 3131   0.709   1.874   2.370
  948SOL     OW 3132   0.197   2.838   3.126
  948SOL    HW1 3133   0.286   2.793   3.112
  948SOL    HW2 3134   0.124   2.773   3.107
  949SOL     OW 3135   1.525   2.861   2.052
  949SOL    HW1 3136   1.462   2.785   2.065
  949SOL    HW2 3137   1.573   2.879   2.138
  950SOL     OW 3138   1.187   3.654   3.478
  950SOL    HW1 3139   1.211   3.714   3.402
  950SOL    HW2 3140   1.194   3.559   3.448
  951SOL     OW 3141   0.317   2.113   3.663
  951SOL    HW1 3142   0.388   2.184   3.669
  951SOL    HW2 3143   0.229   2.152   3.691
  952SOL     OW 3144   1.466   3.279   2.815
  952SOL    HW1 3145   1.407   3.285   2.895
  952SOL    HW2 3146   1.451   3.191   2.769
  953SOL     OW 3147   1.667   3.576   2.434
  953SOL    HW1 3148   1.626   3.553   2.346
  953SOL    HW2 3149   1.649   3.502   2.499
  954SOL     OW 3150   0.598   2.591   2.132
  954SOL    HW1 3151   0.622   2.660   2.064
  954SOL    HW2 3152   0.520   2.624   2.186
  955SOL     OW 3153   1.281   2.207   2.806
  955SOL    HW1 3154   1.195   2.157   2.793
  955SOL    HW2 3155   1.343   2.153   2.862
  956SOL     OW 3156   1.576   3.524   2.169
  956SOL    HW1 3157   1.665   3.570   2.172
  956SOL    HW2 3158   1.555   3.500   2.074
  957SOL     OW 3159   0.807   2.467   3.327
  957SOL    HW1 3160   0.760   2.464   3.416
  957SOL    HW2 3161   0.756   2.412   3.261
  958SOL     OW 3162   1.394   2.331   3.536
  958SOL    HW1 3163   1.374   2.374   3.624
  958SOL    HW2 3164   1.472   2.269   3.545
  959SOL     OW 3165   0.973   2.752   3.434
  959SOL    HW1 3166   1.019   2.668   3.405
  959SOL    HW2 3167   0.917   2.786   3.359
  960SOL     OW 3168   0.991   2.272   3.104
  960SOL    HW1 3169   0.914   2.306   3.158
  960SOL    HW2 3170   0.957   2.221   3.025
  961SOL     OW 3171   1.041   2.563   2.291
  961SOL    HW1 3172   1.067   2.559   2.387
  961SOL    HW2 3173   0.956   2.512   2.277
  962SOL     OW 3174   0.076   2.673   2.651
  962SOL    HW1 3175   0.175   2.661   2.660
  962SOL    HW2 3176   0.052   2.768   2.672
  963SOL     OW 3177   0.130   3.683   3.433
  963SOL    HW1 3178   0.120   3.668   3.532
  963SOL    HW2 3179   0.044   3.719   3.397
  964SOL     OW 3180   0.865   2.210   2.057
  964SOL    HW1 3181   0.924   2.273   2.008
  964SOL    HW2 3182   0.884   2.116   2.028
  965SOL     OW 3183   1.362   3.006   2.407
  965SOL    HW1 3184   1.445   2.977   2.359
  965SOL    HW2 3185   1.313   3.073   2.351
  966SOL     OW 3186   0.550   2.058   2.747
  966SOL    HW1 3187   0.545   2.053   2.847
  966SOL    HW2 3188   0.552   2.154   2.718
  967SOL     OW 3189   1.008   3.318   2.339
  967SOL    HW1 3190   0.962   3.390   2.287
  967SOL    HW2 3191   1.004   3.338   2.437
  968SOL     OW 3192   0.351   3.663   2.715
  968SOL    HW1 3193   0.401   3.577   2.721
  968SOL    HW2 3194   0.416   3.740   2.712
  969SOL     OW 3195   1.795   2.928   2.735
  969SOL    HW1 3196   1.733   2.913   2.659
  969SOL    HW2 3197   1.743   2.939   2.820
  970SOL     OW 3198   1.227   3.412   3.368
  970SOL    HW1 3199   1.233   3.335   3.432
  970SOL    HW2 3200   1.175   3.386   3.288
  971SOL     OW 3201   0.321   2.805   2.104
  971SOL    HW1 3202   0.403   2.844   2.062
  971SOL    HW2 3203   0.294   2.723   2.055
  972SOL     OW 3204   1.458   2.597   2.590
  972SOL    HW1 3205   1.453   2.532   2.665
  972SOL    HW2 3206   1.538   2.656   2.603
  973SOL     OW 3207   0.461   3.128   3.589
  973SOL    HW1 3208   0.411   3.129   3.503
  973SOL    HW2 3209   0.398   3.110   3.665
  974SOL     OW 3210   1.111   3.638   2.099
  974SOL    HW1 3211   1.051   3.576   2.149
  974SOL    HW2 3212   1.142   3.594   2.014
  975SOL     OW 3213   0.202   2.147   3.360
  975SOL    HW1 3214   0.122   2.207   3.347
  975SOL    HW2 3215   0.192   2.098   3.446
  976SOL     OW 3216   1.632   3.239   1.943
  976SOL    HW1 3217   1.600   3.333   1.933
  976SOL    HW2 3218   1.556   3.176   1.931
  977SOL     OW 3219   0.464   3.605   2.185
  977SOL    HW1 3220   0.497   3.644   2.271
  977SOL    HW2 3221   0.540   3.598   2.120
  978SOL     OW 3222   1.400   1.969   2.288
  978SOL    HW1 3223   1.376   1.932   2.198
  978SOL    HW2 3224   1.499   1.985   2.292
  979SOL     OW 3225   0.249   3.647   3.103
  979SOL    HW1 3226   0.306   3.582   3.153
  979SOL    HW2 3227   0.233   3.614   3.010
  980SOL     OW 3228   0.940   3.560   2.766
  980SOL    HW1 3229   1.020   3.503   2.787
  980SOL    HW2 3230   0.891   3.520   2.689
  981SOL     OW 3231   0.382   2.562   2.342
  981SOL    HW1 3232   0.427   2.472   2.339
  981SOL    HW2 3233   0.288   2.551   2.375
  982SOL     OW 3234   1.547   2.084   3.591
  982SOL    HW1 3235   1.542   2.121   3.683
  982SOL    HW2 3236   1.475   2.015   3.579
  983SOL     OW 3237   0.614   1.984   1.979
  983SOL    HW1 3238   0.712   1.962   1.986
  983SOL    HW2 3239   0.583   1.967   1.886
  984SOL     OW 3240   0.781   2.126   3.611
  984SOL    HW1 3241   0.848   2.065   3.654
  984SOL    HW2 3242   0.708   2.145   3.676
  985SOL     OW 3243   0.888   3.376   3.057
  985SOL    HW1 3244   0.865   3.351   2.963
  985SOL    HW2 3245   0.949   3.307   3.096
  986SOL     OW 3246   1.351   2.452   3.295
  986SOL    HW1 3247   1.379   2.409   3.380
  986SOL    HW2 3248   1.376   2.548   3.296
  987SOL     OW 3249   0.803   3.264   2.786
  987SOL    HW1 3250   0.893   3.278   2.744
  987SOL    HW2 3251   0.732   3.266   2.715
  988SOL     OW 3252   0.922   2.365   2.761
  988SOL    HW1 3253   0.897   2.356   2.665
  988SOL    HW2 3254   0.970   2.283   2.792
  989SOL     OW 3255   0.539   1.926   2.374
  989SOL    HW1 3256   0.458   1.927   2.432
  989SOL    HW2 3257   0.542   2.009   2.319
  990SOL     OW 3258   1.434   3.050   1.903
  990SOL    HW1 3259   1.466   2.974   1.960
  990SOL    HW2 3260   1.342   3.077   1.933
  991SOL     OW 3261   0.297   1.897   2.033
  991SOL    HW1 3262   0.346   1.981   2.012
  991SOL    HW2 3263   0.359   1.832   2.078
  992SOL     OW 3264   0.935   2.098   2.342
  992SOL    HW1 3265   0.887   2.139   2.264
  992SOL    HW2 3266   1.034   2.096   2.323
  993SOL     OW 3267   1.076   2.545   3.326
  993SOL    HW1 3268   0.996   2.484   3.329
  993SOL    HW2 3269   1.157   2.492   3.302
  994SOL     OW 3270   1.227   3.432   2.655
  994SOL    HW1 3271   1.248   3.506   2.590
  994SOL    HW2 3272   1.295   3.432   2.728
  995SOL     OW 3273   0.459   3.014   2.603
  995SOL    HW1 3274   0.388   2.987   2.668
  995SOL    HW2 3275   0.433   2.986   2.510
  996SOL     OW 3276   1.271   3.659   2.453
  996SOL    HW1 3277   1.315   3.723   2.389
  996SOL    HW2 3278   1.221   3.711   2.523
  997SOL     OW 3279   1.032   2.411   1.878
  997SOL    HW1 3280   0.991   2.493   1.839
  997SOL    HW2 3281   1.096   2.437   1.951
  998SOL     OW 3282   0.078   2.418   3.248
  998SOL    HW1 3283   0.170   2.417   3.207
  998SOL    HW2 3284   0.072   2.492   3.315
  999SOL     OW 3285   0.561   2.084   3.009
  999SOL    HW1 3286   0.599   2.000   3.046
  999SOL    HW2 3287   0.473   2.103   3.053
 1000SOL     OW 3288   0.866   2.316   2.504
 1000SOL    HW1 3289   0.834   2.388   2.442
 1000SOL    HW2 3290   0.890   2.235   2.451
 1001SOL     OW 3291   1.017   1.901   2.615
 1001SOL    HW1 3292   0.945   1.906   2.546
 1001SOL    HW2 3293   0.993   1.832   2.684
 1002SOL     OW 3294   1.429   3.035   2.729
 1002SOL    HW1 3295   1.374   2.951   2.722
 1002SOL    HW2 3296   1.455   3.064   2.637
 1003SOL     OW 3297   1.466   2.452   2.854
 1003SOL    HW1 3298   1.436   2.357   2.861
 1003SOL    HW2 3299   1.539   2.468   2.920
 1004SOL     OW 3300   1.857   2.695   2.239
 1004SOL    HW1 3301   1.899   2.631   2.303
 1004SOL    HW2 3302   1.819   2.644   2.161
 1005SOL     OW 3303   0.488   3.247   2.036
 1005SOL    HW1 3304   0.401   3.232   2.083
 1005SOL    HW2 3305   0.471   3.273   1.941
 1006SOL     OW 3306   1.664   3.142   2.519
 1006SOL    HW1 3307   1.763   3.150   2.533
 1006SOL    HW2 3308   1.619   3.226   2.550
 1007SOL     OW 3309   1.390   2.437   1.940
 1007SOL    HW1 3310   1.336   2.416   2.021
 1007SOL    HW2 3311   1.481   2.396   1.949
 1008SOL     OW 3312   0.527   2.118   2.190
 1008SOL    HW1 3313   0.554   2.059   2.115
 1008SOL    HW2 3314   0.527   2.213   2.159
 1009SOL     OW 3315   1.754   3.085   3.450
 1009SOL    HW1 3316   1.845   3.046   3.437
 1009SOL    HW2 3317   1.762   3.181   3.474
 1010SOL     OW 3318   1.064   3.209   3.202
 1010SOL    HW1 3319   0.984   3.186   3.257
 1010SOL    HW2 3320   1.147   3.183   3.251
 1011SOL     OW 3321   1.592   3.491   3.487
 1011SOL    HW1 3322   1.619   3.525   3.397
 1011SOL    HW2 3323   1.671   3.453   3.533
 1012SOL     OW 3324   1.111   3.057   2.962
 1012SOL    HW1 3325   1.071   3.101   3.043
 1012SOL    HW2 3326   1.070   3.094   2.879
 1013SOL     OW 3327   1.638   2.961   2.941
 1013SOL    HW1 3328   1.643   3.042   3.000
 1013SOL    HW2 3329   1.552   2.963   2.890
 1014SOL     OW 3330   0.915   1.951   3.264
 1014SOL    HW1 3331   0.940   1.931   3.169
 1014SOL    HW2 3332   0.987   2.007   3.306
 1015SOL     OW 3333   0.980   2.978   3.581
 1015SOL    HW1 3334   0.881   2.984   3.591
 1015SOL    HW2 3335   1.003   2.898   3.525
 1016SOL     OW 3336   0.705   2.912   2.230
 1016SOL    HW1 3337   0.691   2.919   2.329
 1016SOL    HW2 3338   0.789   2.861   2.212
 1017SOL     OW 3339   0.410   2.675   3.113
 1017SOL    HW1 3340   0.496   2.687   3.163
 1017SOL    HW2 3341   0.368   2.588   3.140
 1018SOL     OW 3342   1.274   2.248   3.124
 1018SOL    HW1 3343   1.295   2.322   3.188
 1018SOL    HW2 3344   1.185   2.265   3.081
 1019SOL     OW 3345   0.064   3.426   3.193
 1019SOL    HW1 3346   0.018   3.508   3.159
 1019SOL    HW2 3347   0.162   3.445   3.202
 1020SOL     OW 3348   0.367   2.962   2.363
 1020SOL    HW1 3349   0.360   3.045   2.307
 1020SOL    HW2 3350   0.371   2.882   2.303
 1021SOL     OW 3351   0.566   2.399   2.727
 1021SOL    HW1 3352   0.578   2.465   2.653
 1021SOL    HW2 3353   0.612   2.433   2.810
 1022SOL     OW 3354   1.252   3.210   2.250
 1022SOL    HW1 3355   1.302   3.287   2.290
 1022SOL    HW2 3356   1.157   3.212   2.282
 1023SOL     OW 3357   1.272   3.307   3.004
 1023SOL    HW1 3358   1.319   3.320   3.091
 1023SOL    HW2 3359   1.206   3.233   3.013
 1024SOL     OW 3360   1.582   2.501   2.334
 1024SOL    HW1 3361   1.551   2.562   2.407
 1024SOL    HW2 3362   1.632   2.553   2.265
 1025SOL     OW 3363   0.354   3.372   3.191
 1025SOL    HW1 3364   0.333   3.328   3.104
 1025SOL    HW2 3365   0.451   3.398   3.194
 1026SOL     OW 3366   0.402   2.613   3.460
 1026SOL    HW1 3367   0.470   2.668   3.413
 1026SOL    HW2 3368   0.442   2.525   3.487
 1027SOL     OW 3369   1.587   2.641   3.532
 1027SOL    HW1 3370   1.495   2.679   3.527
 1027SOL    HW2 3371   1.647   2.688   3.467
 1028SOL     OW 3372   1.013   1.967   3.632
 1028SOL    HW1 3373   1.019   2.052   3.580
 1028SOL    HW2 3374   1.045   1.891   3.575
 1029SOL     OW 3375   0.504   1.912   3.602
 1029SOL    HW1 3376   0.462   1.855   3.532
 1029SOL    HW2 3377   0.438   1.981   3.634
 1030SOL     OW 3378   0.573   2.732   2.891
 1030SOL    HW1 3379   0.617   2.821   2.882
 1030SOL    HW2 3380   0.510   2.732   2.968
 1031SOL     OW 3381   1.360   2.724   2.907
 1031SOL    HW1 3382   1.285   2.724   2.841
 1031SOL    HW2 3383   1.397   2.632   2.916
 1032SOL     OW 3384   1.209   2.387   2.137
 1032SOL    HW1 3385   1.222   2.303   2.191
 1032SOL    HW2 3386   1.180   2.461   2.197
 1033SOL     OW 3387   0.307   2.075   3.093
 1033SOL    HW1 3388   0.284   2.112   3.183
 1033SOL    HW2 3389   0.277   1.980   3.087
 1034SOL     OW 3390   0.037   3.172   3.144
 1034SOL    HW1 3391   0.090   3.123   3.212
 1034SOL    HW2 3392   0.059   3.270   3.149
 1035SOL     OW 3393   0.732   2.496   2.926
 1035SOL    HW1 3394   0.791   2.470   2.850
 1035SOL    HW2 3395   0.704   2.592   2.915
 1036SOL     OW 3396   0.307   1.925   2.480
 1036SOL    HW1 3397   0.296   2.019   2.513
 1036SOL    HW2 3398   0.302   1.862   2.557
 1037SOL     OW 3399   1.622   2.229   2.236
 1037SOL    HW1 3400   1.624   2.153   2.300
 1037SOL    HW2 3401   1.574   2.306   2.276
 1038SOL     OW 3402   1.023   2.628   2.828
 1038SOL    HW1 3403   1.038   2.649   2.924
 1038SOL    HW2 3404   0.993   2.533   2.819
 1039SOL     OW 3405   0.980   3.435   3.562
 1039SOL    HW1 3406   0.960   3.479   3.474
 1039SOL    HW2 3407   1.019   3.344   3.546
 1040SOL     OW 3408   1.859   3.380   3.467
 1040SOL    HW1 3409   1.873   3.407   3.372
 1040SOL    HW2 3410   1.942   3.402   3.520
 1041SOL     OW 3411   0.350   2.760   3.666
 1041SOL    HW1 3412   0.426   2.804   3.714
 1041SOL    HW2 3413   0.385   2.713   3.584
 1042SOL     OW 3414   1.540   2.136   1.987
 1042SOL    HW1 3415   1.479   2.061   2.010
 1042SOL    HW2 3416   1.562   2.188   2.070
 1043SOL     OW 3417   1.303   2.700   1.904
 1043SOL    HW1 3418   1.337   2.607   1.919
 1043SOL    HW2 3419   1.321   2.727   1.809
 1044SOL     OW 3420   1.068   3.195   2.711
 1044SOL    HW1 3421   1.075   3.111   2.656
 1044SOL    HW2 3422   1.130   3.264   2.675
 1045SOL     OW 3423   0.319   2.672   2.811
 1045SOL    HW1 3424   0.412   2.708   2.816
 1045SOL    HW2 3425   0.313   2.587   2.863
 1046SOL     OW 3426   0.339   2.371   2.868
 1046SOL    HW1 3427   0.287   2.288   2.851
 1046SOL    HW2 3428   0.416   2.376   2.804
 1047SOL     OW 3429   1.138   2.242   3.540
 1047SOL    HW1 3430   1.093   2.305   3.604
 1047SOL    HW2 3431   1.231   2.273   3.523
 1048SOL     OW 3432   1.160   2.069   3.339
 1048SOL    HW1 3433   1.160   2.133   3.416
 1048SOL    HW2 3434   1.188   2.117   3.256
 1049SOL     OW 3435   0.008   3.188   2.062
 1049SOL    HW1 3436  -0.085   3.209   2.031
 1049SOL    HW2 3437   0.018   3.089   2.075
 1050SOL     OW 3438   0.088   3.663   2.789
 1050SOL    HW1 3439   0.046   3.577   2.762
 1050SOL    HW2 3440   0.182   3.666   2.755
 1051SOL     OW 3441   0.504   3.430   2.772
 1051SOL    HW1 3442   0.570   3.504   2.781
 1051SOL    HW2 3443   0.548   3.351   2.730
 1052SOL     OW 3444   1.002   2.658   3.100
 1052SOL    HW1 3445   1.043   2.626   3.186
 1052SOL    HW2 3446   0.906   2.631   3.097
 1053SOL     OW 3447   0.040   2.406   2.976
 1053SOL    HW1 3448   0.125   2.373   2.935
 1053SOL    HW2 3449   0.053   2.421   3.074
 1054SOL     OW 3450   0.189   2.382   3.584
 1054SOL    HW1 3451   0.248   2.342   3.514
 1054SOL    HW2 3452   0.131   2.453   3.543
 1055SOL     OW 3453   1.369   2.812   3.522
 1055SOL    HW1 3454   1.408   2.901   3.542
 1055SOL    HW2 3455   1.379   2.792   3.425
 1056SOL     OW 3456   0.815   2.434   2.187
 1056SOL    HW1 3457   0.822   2.345   2.141
 1056SOL    HW2 3458   0.721   2.468   2.179
 1057SOL     OW 3459   1.657   2.466   3.068
 1057SOL    HW1 3460   1.619   2.397   3.130
 1057SOL    HW2 3461   1.739   2.430   3.024
 1058SOL     OW 3462   0.252   3.426   3.606
 1058SOL    HW1 3463   0.222   3.483   3.682
 1058SOL    HW2 3464   0.245   3.329   3.632
 1059SOL     OW 3465   0.671   2.326   3.131
 1059SOL    HW1 3466   0.637   2.237   3.101
 1059SOL    HW2 3467   0.697   2.380   3.051
 1060SOL     OW 3468   0.930   3.540   3.327
 1060SOL    HW1 3469   0.906   3.522   3.232
 1060SOL    HW2 3470   0.960   3.634   3.337
 1061SOL     OW 3471   0.473   2.362   2.053
 1061SOL    HW1 3472   0.534   2.442   2.057
 1061SOL    HW2 3473   0.378   2.393   2.060
 1062SOL     OW 3474   0.159   2.999   3.328
 1062SOL    HW1 3475   0.181   2.938   3.404
 1062SOL    HW2 3476   0.169   2.950   3.242
 1063SOL     OW 3477   1.347   2.921   3.096
 1063SOL    HW1 3478   1.371   2.858   3.022
 1063SOL    HW2 3479   1.257   2.961   3.078
 1064SOL     OW 3480   1.302   2.717   2.171
 1064SOL    HW1 3481   1.216   2.686   2.213
 1064SOL    HW2 3482   1.298   2.703   2.072
 1065SOL     OW 3483   1.759   3.609   3.016
 1065SOL    HW1 3484   1.820   3.639   2.943
 1065SOL    HW2 3485   1.721   3.520   2.994
 1066SOL     OW 3486   1.252   3.593   2.990
 1066SOL    HW1 3487   1.336   3.598   2.936
 1066SOL    HW2 3488   1.229   3.497   3.008
 1067SOL     OW 3489   0.083   3.120   2.884
 1067SOL    HW1 3490   0.078   3.119   2.984
 1067SOL    HW2 3491   0.000   3.079   2.846
 1068SOL     OW 3492   0.688   3.524   3.578
 1068SOL    HW1 3493   0.632   3.605   3.587
 1068SOL    HW2 3494   0.740   3.528   3.492
 1069SOL     OW 3495   1.726   1.997   2.385
 1069SOL    HW1 3496   1.799   1.980   2.318
 1069SOL    HW2 3497   1.695   1.910   2.423
 1070SOL     OW 3498   1.388   3.435   2.339
 1070SOL    HW1 3499   1.455   3.447   2.265
 1070SOL    HW2 3500   1.348   3.524   2.362
 1071SOL     OW 3501   0.130   3.656   3.713
 1071SOL    HW1 3502   0.089   3.582   3.766
 1071SOL    HW2 3503   0.194   3.707   3.771
 1072SOL     OW 3504   1.280   2.789   2.534
 1072SOL    HW1 3505   1.340   2.708   2.536
 1072SOL    HW2 3506   1.320   2.858   2.474
 1073SOL     OW 3507   0.830   3.135   3.284
 1073SOL    HW1 3508   0.825   3.168   3.379
 1073SOL    HW2 3509   0.744   3.154   3.238
 1074SOL     OW 3510   0.672   3.478   2.016
 1074SOL    HW1 3511   0.681   3.488   1.917
 1074SOL    HW2 3512   0.632   3.389   2.037
 1075SOL     OW 3513   1.650   3.582   3.256
 1075SOL    HW1 3514   1.703   3.592   3.172
 1075SOL    HW2 3515   1.623   3.672   3.290
 1076SOL     OW 3516   1.841   2.037   2.825
 1076SOL    HW1 3517   1.880   1.952   2.789
 1076SOL    HW2 3518   1.743   2.039   2.806
 1077SOL     OW 3519   0.263   2.188   2.582
 1077SOL    HW1 3520   0.184   2.239   2.548
 1077SOL    HW2 3521   0.254   2.173   2.680
 1078SOL     OW 3522   1.194   3.474   1.893
 1078SOL    HW1 3523   1.200   3.381   1.930
 1078SOL    HW2 3524   1.135   3.474   1.813
 1079SOL     OW 3525   0.822   2.864   3.234
 1079SOL    HW1 3526   0.862   2.863   3.142
 1079SOL    HW2 3527   0.832   2.956   3.274
 1080SOL     OW 3528   0.916   2.772   2.153
 1080SOL    HW1 3529   0.979   2.810   2.085
 1080SOL    HW2 3530   0.956   2.689   2.192
 1081SOL     OW 3531   1.504   3.469   1.906
 1081SOL    HW1 3532   1.412   3.506   1.913
 1081SOL    HW2 3533   1.542   3.489   1.816
 1082SOL     OW 3534   0.372   3.150   3.352
 1082SOL    HW1 3535   0.359   3.243   3.318
 1082SOL    HW2 3536   0.288   3.098   3.339
 1083SOL     OW 3537   1.614   3.154   3.151
 1083SOL    HW1 3538   1.674   3.157   3.231
 1083SOL    HW2 3539   1.539   3.218   3.164
 1084SOL     OW 3540   1.039   2.960   2.558
 1084SOL    HW1 3541   0.969   2.913   2.612
 1084SOL    HW2 3542   1.098   2.892   2.515
 1085SOL     OW 3543   1.014   2.098   2.833
 1085SOL    HW1 3544   1.006   2.062   2.740
 1085SOL    HW2 3545   1.012   2.022   2.898
 1086SOL     OW 3546   0.590   3.349   2.353
 1086SOL    HW1 3547   0.632   3.291   2.283
 1086SOL    HW2 3548   0.546   3.428   2.309
 1087SOL     OW 3549   1.709   2.247   3.243
 1087SOL    HW1 3550   1.782   2.316   3.247
 1087SOL    HW2 3551   1.737   2.172   3.184
 1088SOL     OW 3552   0.255   3.210   2.152
 1088SOL    HW1 3553   0.159   3.211   2.125
 1088SOL    HW2 3554   0.267   3.263   2.236
 1089SOL     OW 3555   0.105   2.875   3.588
 1089SOL    HW1 3556   0.028   2.842   3.642
 1089SOL    HW2 3557   0.190   2.845   3.630
 1090SOL     OW 3558   0.672   2.065   3.351
 1090SOL    HW1 3559   0.762   2.049   3.311
 1090SOL    HW2 3560   0.680   2.070   3.450
 1091SOL     OW 3561   0.075   2.207   1.895
 1091SOL    HW1 3562  -0.017   2.179   1.866
 1091SOL    HW2 3563   0.106   2.284   1.839
 1092SOL     OW 3564   1.440   2.718   3.260
 1092SOL    HW1 3565   1.383   2.770   3.197
 1092SOL    HW2 3566   1.536   2.730   3.236
 1093SOL     OW 3567   0.072   2.028   2.180
 1093SOL    HW1 3568   0.055   2.111   2.126
 1093SOL    HW2 3569   0.162   1.991   2.158
 1094SOL     OW 3570   1.183   3.197   1.981
 1094SOL    HW1 3571   1.084   3.186   1.983
 1094SOL    HW2 3572   1.217   3.212   2.074
 1095SOL     OW 3573   0.613   2.704   3.293
 1095SOL    HW1 3574   0.669   2.785   3.276
 1095SOL    HW2 3575   0.672   2.624   3.296
 1096SOL     OW 3576   1.493   3.629   2.821
 1096SOL    HW1 3577   1.526   3.693   2.752
 1096SOL    HW2 3578   1.559   3.623   2.896
 1097SOL     OW 3579   0.716   2.427   3.570
 1097SOL    HW1 3580   0.735   2.492   3.644
 1097SOL    HW2 3581   0.776   2.347   3.579
 1098SOL     OW 3582   1.450   3.082   3.495
 1098SOL    HW1 3583   1.441   3.072   3.594
 1098SOL    HW2 3584   1.546   3.075   3.469
 1099SOL     OW 3585   0.390   3.603   3.422
 1099SOL    HW1 3586   0.299   3.644   3.420
 1099SOL    HW2 3587   0.383   3.509   3.454
 1100SOL     OW 3588   1.674   2.745   3.116
 1100SOL    HW1 3589   1.647   2.656   3.079
 1100SOL    HW2 3590   1.675   2.813   3.043
 1101SOL     OW 3591   1.225   2.187   2.311
 1101SOL    HW1 3592   1.290   2.113   2.300
 1101SOL    HW2 3593   1.245   2.237   2.395
 1102SOL     OW 3594   0.594   2.607   2.514
 1102SOL    HW1 3595   0.644   2.692   2.495
 1102SOL    HW2 3596   0.506   2.609   2.466
 1103SOL     OW 3597   1.777   2.204   3.504
 1103SOL    HW1 3598   1.760   2.235   3.410
 1103SOL    HW2 3599   1.693   2.167   3.542
 1104SOL     OW 3600   1.730   2.796   3.379
 1104SOL    HW1 3601   1.768   2.887   3.394
 1104SOL    HW2 3602   1.722   2.779   3.280
 1105SOL     OW 3603   0.859   3.236   1.878
 1105SOL    HW1 3604   0.813   3.251   1.966
 1105SOL    HW2 3605   0.903   3.321   1.848
 1106SOL     OW 3606   0.661   3.652   2.815
 1106SOL    HW1 3607   0.615   3.740   2.802
 1106SOL    HW2 3608   0.760   3.664   2.808
 1107SOL     OW 3609   0.859   2.818   2.723
 1107SOL    HW1 3610   0.913   2.749   2.771
 1107SOL    HW2 3611   0.827   2.887   2.789
 1108SOL     OW 3612   1.083   2.846   1.949
 1108SOL    HW1 3613   1.060   2.899   1.867
 1108SOL    HW2 3614   1.164   2.790   1.930
 1109SOL     OW 3615   1.861   3.431   2.713
 1109SOL    HW1 3616   1.790   3.419   2.643
 1109SOL    HW2 3617   1.862   3.352   2.773
 1110SOL     OW 3618   0.221   3.176   3.706
 1110SOL    HW1 3619   0.156   3.103   3.685
 1110SOL    HW2 3620   0.225   3.190   3.804
 1111SOL     OW 3621   0.079   3.102   2.515
 1111SOL    HW1 3622   0.078   3.055   2.603
 1111SOL    HW2 3623   0.161   3.074   2.464
 1112SOL     OW 3624   0.672   3.253   3.486
 1112SOL    HW1 3625   0.594   3.203   3.524
 1112SOL    HW2 3626   0.669   3.348   3.517
 1113SOL     OW 3627   1.824   2.054   3.089
 1113SOL    HW1 3628   1.820   1.964   3.133
 1113SOL    HW2 3629   1.827   2.043   2.990
 1114SOL     OW 3630   0.428   2.286   2.382
 1114SOL    HW1 3631   0.458   2.214   2.320
 1114SOL    HW2 3632   0.389   2.246   2.465
 1115SOL     OW 3633   1.705   3.349   2.966
 1115SOL    HW1 3634   1.612   3.324   2.939
 1115SOL    HW2 3635   1.731   3.299   3.048
 1116SOL     OW 3636   0.317   2.409   3.142
 1116SOL    HW1 3637   0.355   2.350   3.214
 1116SOL    HW2 3638   0.357   2.383   3.054
 1117SOL     OW 3639   0.812   3.448   2.549
 1117SOL    HW1 3640   0.844   3.458   2.455
 1117SOL    HW2 3641   0.733   3.386   2.551
 1118SOL     OW 3642   1.424   2.076   2.974
 1118SOL    HW1 3643   1.476   2.011   3.029
 1118SOL    HW2 3644   1.375   2.139   3.035
 1119SOL     OW 3645   1.001   1.896   3.016
 1119SOL    HW1 3646   0.938   1.824   2.985
 1119SOL    HW2 3647   1.094   1.860   3.016
 1120SOL     OW 3648   0.770   3.192   2.163
 1120SOL    HW1 3649   0.724   3.105   2.180
 1120SOL    HW2 3650   0.861   3.189   2.204
 1121SOL     OW 3651   0.618   3.429   3.146
 1121SOL    HW1 3652   0.613   3.511   3.203
 1121SOL    HW2 3653   0.707   3.426   3.101
 1122SOL     OW 3654   1.352   1.914   2.030
 1122SOL    HW1 3655   1.387   1.873   1.946
 1122SOL    HW2 3656   1.262   1.876   2.050
 1123SOL     OW 3657   1.300   2.315   2.553
 1123SOL    HW1 3658   1.241   2.395   2.557
 1123SOL    HW2 3659   1.315   2.280   2.646
 1124SOL     OW 3660   1.593   2.083   2.744
 1124SOL    HW1 3661   1.509   2.082   2.798
 1124SOL    HW2 3662   1.595   2.166   2.688
 1125SOL     OW 3663   0.039   2.939   2.162
 1125SOL    HW1 3664   0.138   2.928   2.153
 1125SOL    HW2 3665  -0.001   2.853   2.194
 1126SOL     OW 3666   0.875   3.508   2.199
 1126SOL    HW1 3667   0.798   3.473   2.145
 1126SOL    HW2 3668   0.843   3.579   2.261
 1127SOL     OW 3669   0.230   2.490   3.837
 1127SOL    HW1 3670   0.137   2.488   3.874
 1127SOL    HW2 3671   0.231   2.451   3.745
 1128SOL     OW 3672   0.225   2.137   4.720
 1128SOL    HW1 3673   0.260   2.120   4.812
 1128SOL    HW2 3674   0.137   2.092   4.708
 1129SOL     OW 3675   0.019   2.230   4.371
 1129SOL    HW1 3676  -0.063   2.273   4.410
 1129SOL    HW2 3677  -0.009   2.157   4.308
 1130SOL     OW 3678   0.569   3.137   4.889
 1130SOL    HW1 3679   0.476   3.130   4.852
 1130SOL    HW2 3680   0.580   3.226   4.933
 1131SOL     OW 3681   1.555   3.373   4.427
 1131SOL    HW1 3682   1.498   3.357   4.508
 1131SOL    HW2 3683   1.496   3.383   4.347
 1132SOL     OW 3684   1.135   2.565   4.441
 1132SOL    HW1 3685   1.192   2.643   4.416
 1132SOL    HW2 3686   1.075   2.591   4.517
 1133SOL     OW 3687   0.768   3.006   4.747
 1133SOL    HW1 3688   0.690   3.023   4.807
 1133SOL    HW2 3689   0.802   3.093   4.711
 1134SOL     OW 3690   0.850   2.660   5.547
 1134SOL    HW1 3691   0.846   2.736   5.612
 1134SOL    HW2 3692   0.872   2.696   5.456
 1135SOL     OW 3693   0.685   2.874   4.389
 1135SOL    HW1 3694   0.754   2.858   4.459
 1135SOL    HW2 3695   0.612   2.931   4.427
 1136SOL     OW 3696   0.686   3.023   5.527
 1136SOL    HW1 3697   0.746   3.102   5.541
 1136SOL    HW2 3698   0.600   3.054   5.486
 1137SOL     OW 3699   0.335   3.297   4.785
 1137SOL    HW1 3700   0.257   3.266   4.732
 1137SOL    HW2 3701   0.393   3.355   4.728
 1138SOL     OW 3702   1.460   3.367   5.063
 1138SOL    HW1 3703   1.484   3.461   5.089
 1138SOL    HW2 3704   1.444   3.313   5.145
 1139SOL     OW 3705   0.438   2.254   5.223
 1139SOL    HW1 3706   0.520   2.198   5.232
 1139SOL    HW2 3707   0.357   2.196   5.227
 1140SOL     OW 3708   1.603   2.309   4.461
 1140SOL    HW1 3709   1.529   2.355   4.411
 1140SOL    HW2 3710   1.654   2.377   4.514
 1141SOL     OW 3711   0.231   3.575   4.207
 1141SOL    HW1 3712   0.265   3.652   4.261
 1141SOL    HW2 3713   0.275   3.575   4.117
 1142SOL     OW 3714   1.127   3.203   5.414
 1142SOL    HW1 3715   1.174   3.203   5.502
 1142SOL    HW2 3716   1.079   3.116   5.403
 1143SOL     OW 3717   0.230   3.296   4.262
 1143SOL    HW1 3718   0.204   3.392   4.262
 1143SOL    HW2 3719   0.159   3.242   4.307
 1144SOL     OW 3720   0.240   2.953   4.610
 1144SOL    HW1 3721   0.254   2.869   4.662
 1144SOL    HW2 3722   0.185   3.017   4.665
 1145SOL     OW 3723   0.620   3.648   5.163
 1145SOL    HW1 3724   0.528   3.631   5.198
 1145SOL    HW2 3725   0.648   3.740   5.189
 1146SOL     OW 3726   0.606   2.826   3.847
 1146SOL    HW1 3727   0.613   2.910   3.793
 1146SOL    HW2 3728   0.652   2.839   3.935
 1147SOL     OW 3729   1.594   1.976   5.204
 1147SOL    HW1 3730   1.576   2.043   5.132
 1147SOL    HW2 3731   1.591   2.022   5.293
 1148SOL     OW 3732   0.122   2.505   4.287
 1148SOL    HW1 3733   0.077   2.417   4.304
 1148SOL    HW2 3734   0.121   2.559   4.371
 1149SOL     OW 3735   1.842   3.629   4.083
 1149SOL    HW1 3736   1.896   3.600   4.163
 1149SOL    HW2 3737   1.872   3.719   4.054
 1150SOL     OW 3738   0.027   3.458   3.841
 1150SOL    HW1 3739   0.008   3.362   3.862
 1150SOL    HW2 3740  -0.006   3.516   3.916
 1151SOL     OW 3741   1.689   2.784   4.336
 1151SOL    HW1 3742   1.784   2.755   4.344
 1151SOL    HW2 3743   1.681   2.849   4.261
 1152SOL     OW 3744   0.113   2.599   5.321
 1152SOL    HW1 3745   0.201   2.586   5.366
 1152SOL    HW2 3746   0.100   2.696   5.299
 1153SOL     OW 3747   0.613   3.227   4.450
 1153SOL    HW1 3748   0.564   3.140   4.459
 1153SOL    HW2 3749   0.590   3.270   4.363
 1154SOL     OW 3750   1.293   3.090   5.147
 1154SOL    HW1 3751   1.330   3.017   5.089
 1154SOL    HW2 3752   1.345   3.095   5.232
 1155SOL     OW 3753   0.809   1.866   4.226
 1155SOL    HW1 3754   0.849   1.957   4.217
 1155SOL    HW2 3755   0.709   1.874   4.232
 1156SOL     OW 3756   0.197   2.838   4.988
 1156SOL    HW1 3757   0.286   2.793   4.974
 1156SOL    HW2 3758   0.124   2.773   4.969
 1157SOL     OW 3759   1.187   3.654   5.340
 1157SOL    HW1 3760   1.211   3.714   5.264
 1157SOL    HW2 3761   1.194   3.559   5.310
 1158SOL     OW 3762   0.317   2.113   5.525
 1158SOL    HW1 3763   0.388   2.184   5.531
 1158SOL    HW2 3764   0.229   2.152   5.553
 1159SOL     OW 3765   1.466   3.279   4.677
 1159SOL    HW1 3766   1.407   3.285   4.757
 1159SOL    HW2 3767   1.451   3.191   4.631
 1160SOL     OW 3768   1.667   3.576   4.296
 1160SOL    HW1 3769   1.626   3.553   4.208
 1160SOL    HW2 3770   1.649   3.502   4.361
 1161SOL     OW 3771   0.598   2.591   3.994
 1161SOL    HW1 3772   0.622   2.660   3.926
 1161SOL    HW2 3773   0.520   2.624   4.048
 1162SOL     OW 3774   1.281   2.207   4.668
 1162SOL    HW1 3775   1.195   2.157   4.655
 1162SOL    HW2 3776   1.343   2.153   4.724
 1163SOL     OW 3777   1.576   3.524   4.031
 1163SOL    HW1 3778   1.665   3.570   4.034
 1163SOL    HW2 3779   1.555   3.500   3.936
 1164SOL     OW 3780   0.807   2.467   5.189
 1164SOL    HW1 3781   0.760   2.464   5.278
 1164SOL    HW2 3782   0.756   2.412   5.123
 1165SOL     OW 3783   1.394   2.331   5.398
 1165SOL    HW1 3784   1.374   2.374   5.486
 1165SOL    HW2 3785   1.472   2.269   5.407
 1166SOL     OW 3786   0.973   2.752   5.296
 1166SOL    HW1 3787   1.019   2.668   5.267
 1166SOL    HW2 3788   0.917   2.786   5.221
 1167SOL     OW 3789   0.991   2.272   4.966
 1167SOL    HW1 3790   0.914   2.306   5.020
 1167SOL    HW2 3791   0.957   2.221   4.887
 1168SOL     OW 3792   1.041   2.563   4.153
 1168SOL    HW1 3793   1.067   2.559   4.249
 1168SOL    HW2 3794   0.956   2.512   4.139
 1169SOL     OW 3795   0.076   2.673   4.513
 1169SOL    HW1 3796   0.175   2.661   4.522
 1169SOL    HW2 3797   0.052   2.768   4.534
 1170SOL     OW 3798   0.130   3.683   5.295
 1170SOL    HW1 3799   0.120   3.668   5.394
 1170SOL    HW2 3800   0.044   3.719   5.259
 1171SOL     OW 3801   0.865   2.210   3.919
 1171SOL    HW1 3802   0.924   2.273   3.870
 1171SOL    HW2 3803   0.884   2.116   3.890
 1172SOL     OW 3804   1.719   2.447   5.555
 1172SOL    HW1 3805   1.693   2.536   5.519
 1172SOL    HW2 3806   1.717   2.379   5.482
 1173SOL     OW 3807   1.362   3.006   4.269
 1173SOL    HW1 3808   1.445   2.977   4.221
 1173SOL    HW2 3809   1.313   3.073   4.213
 1174SOL     OW 3810   0.550   2.058   4.609
 1174SOL    HW1 3811   0.545   2.053   4.709
 1174SOL    HW2 3812   0.552   2.154   4.580
 1175SOL     OW 3813   1.008   3.318   4.201
 1175SOL    HW1 3814   0.962   3.390   4.149
 1175SOL    HW2 3815   1.004   3.338   4.299
 1176SOL     OW 3816   0.351   3.663   4.577
 1176SOL    HW1 3817   0.401   3.577   4.583
 1176SOL    HW2 3818   0.416   3.740   4.574
 1177SOL     OW 3819   1.795   2.928   4.597
 1177SOL    HW1 3820   1.733   2.913   4.521
 1177SOL    HW2 3821   1.743   2.939   4.682
 1178SOL     OW 3822   1.227   3.412   5.230
 1178SOL    HW1 3823   1.233   3.335   5.294
 1178SOL    HW2 3824   1.175   3.386   5.150
 1179SOL     OW 3825   0.321   2.805   3.966
 1179SOL    HW1 3826   0.403   2.844   3.924
 1179SOL    HW2 3827   0.294   2.723   3.917
 1180SOL     OW 3828   1.458   2.597   4.452
 1180SOL    HW1 3829   1.453   2.532   4.527
 1180SOL    HW2 3830   1.538   2.656   4.465
 1181SOL     OW 3831   0.461   3.128   5.451
 1181SOL    HW1 3832   0.411   3.129   5.365
 1181SOL    HW2 3833   0.398   3.110   5.527
 1182SOL     OW 3834   1.111   3.638   3.961
 1182SOL    HW1 3835   1.051   3.576   4.011
 1182SOL    HW2 3836   1.142   3.594   3.876
 1183SOL     OW 3837   0.202   2.147   5.222
 1183SOL    HW1 3838   0.122   2.207   5.209
 1183SOL    HW2 3839   0.192   2.098   5.308
 1184SOL     OW 3840   1.632   3.239   3.805
 1184SOL    HW1 3841   1.600   3.333   3.795
 1184SOL    HW2 3842   1.556   3.176   3.793
 1185SOL     OW 3843   0.464   3.605   4.047
 1185SOL    HW1 3844   0.497   3.644   4.133
 1185SOL    HW2 3845   0.540   3.598   3.982
 1186SOL     OW 3846   1.400   1.969   4.150
 1186SOL    HW1 3847   1.376   1.932   4.060
 1186SOL    HW2 3848   1.499   1.985   4.154
 1187SOL     OW 3849   0.249   3.647   4.965
 1187SOL    HW1 3850   0.306   3.582   5.015
 1187SOL    HW2 3851   0.233   3.614   4.872
 1188SOL     OW 3852   0.940   3.560   4.628
 1188SOL    HW1 3853   1.020   3.503   4.649
 1188SOL    HW2 3854   0.891   3.520   4.551
 1189SOL     OW 3855   0.382   2.562   4.204
 1189SOL    HW1 3856   0.427   2.472   4.201
 1189SOL    HW2 3857   0.288   2.551   4.237
 1190SOL     OW 3858   1.547   2.084   5.453
 1190SOL    HW1 3859   1.542   2.121   5.545
 1190SOL    HW2 3860   1.475   2.015   5.441
 1191SOL     OW 3861   0.614   1.984   3.841
 1191SOL    HW1 3862   0.712   1.962   3.848
 1191SOL    HW2 3863   0.583   1.967   3.748
 1192SOL     OW 3864   0.781   2.126   5.473
 1192SOL    HW1 3865   0.848   2.065   5.516
 1192SOL    HW2 3866   0.708   2.145   5.538
 1193SOL     OW 3867   0.888   3.376   4.919
 1193SOL    HW1 3868   0.865   3.351   4.825
 1193SOL    HW2 3869   0.949   3.307   4.958
 1194SOL     OW 3870   1.351   2.452   5.157
 1194SOL    HW1 3871   1.379   2.409   5.242
 1194SOL    HW2 3872   1.376   2.548   5.158
 1195SOL     OW 3873   0.803   3.264   4.648
 1195SOL    HW1 3874   0.893   3.278   4.606
 1195SOL    HW2 3875   0.732   3.266   4.577
 1196SOL     OW 3876   0.922   2.365   4.623
 1196SOL    HW1 3877   0.897   2.356   4.527
 1196SOL    HW2 3878   0.970   2.283   4.654
 1197SOL     OW 3879   0.539   1.926   4.236
 1197SOL    HW1 3880   0.458   1.927   4.294
 1197SOL    HW2 3881   0.542   2.009   4.181
 1198SOL     OW 3882   1.434   3.050   3.765
 1198SOL    HW1 3883   1.466   2.974   3.822
 1198SOL    HW2 3884   1.342   3.077   3.795
 1199SOL     OW 3885   0.297   1.897   3.895
 1199SOL    HW1 3886   0.346   1.981   3.874
 1199SOL    HW2 3887   0.359   1.832   3.940
 1200SOL     OW 3888   0.935   2.098   4.204
 1200SOL    HW1 3889   0.887   2.139   4.126
 1200SOL    HW2 3890   1.034   2.096   4.185
 1201SOL     OW 3891   1.076   2.545   5.188
 1201SOL    HW1 3892   0.996   2.484   5.191
 1201SOL    HW2 3893   1.157   2.492   5.164
 1202SOL     OW 3894   1.227   3.432   4.517
 1202SOL    HW1 3895   1.248   3.506   4.452
 1202SOL    HW2 3896   1.295   3.432   4.590
 1203SOL     OW 3897   0.459   3.014   4.465
 1203SOL    HW1 3898   0.388   2.987   4.530
 1203SOL    HW2 3899   0.433   2.986   4.372
 1204SOL     OW 3900   1.271   3.659   4.315
 1204SOL    HW1 3901   1.315   3.723   4.251
 1204SOL    HW2 3902   1.221   3.711   4.385
 1205SOL     OW 3903   1.032   2.411   3.740
 1205SOL    HW1 3904   0.991   2.493   3.701
 1205SOL    HW2 3905   1.096   2.437   3.813
 1206SOL     OW 3906   0.078   2.418   5.110
 1206SOL    HW1 3907   0.170   2.417   5.069
 1206SOL    HW2 3908   0.072   2.492   5.177
 1207SOL     OW 3909   0.561   2.084   4.871
 1207SOL    HW1 3910   0.599   2.000   4.908
 1207SOL    HW2 3911   0.473   2.103   4.915
 1208SOL     OW 3912   0.866   2.316   4.366
 1208SOL    HW1 3913   0.834   2.388   4.304
 1208SOL    HW2 3914   0.890   2.235   4.313
 1209SOL     OW 3915   1.017   1.901   4.477
 1209SOL    HW1 3916   0.945   1.906   4.408
 1209SOL    HW2 3917   0.993   1.832   4.546
 1210SOL     OW 3918   1.429   3.035   4.591
 1210SOL    HW1 3919   1.374   2.951   4.584
 1210SOL    HW2 3920   1.455   3.064   4.499
 1211SOL     OW 3921   1.466   2.452   4.716
 1211SOL    HW1 3922   1.436   2.357   4.723
 1211SOL    HW2 3923   1.539   2.468   4.782
 1212SOL     OW 3924   1.857   2.695   4.101
 1212SOL    HW1 3925   1.899   2.631   4.165
 1212SOL    HW2 3926   1.819   2.644   4.023
 1213SOL     OW 3927   0.488   3.247   3.898
 1213SOL    HW1 3928   0.401   3.232   3.945
 1213SOL    HW2 3929   0.471   3.273   3.803
 1214SOL     OW 3930   1.664   3.142   4.381
 1214SOL    HW1 3931   1.763   3.150   4.395
 1214SOL    HW2 3932   1.619   3.226   4.412
 1215SOL     OW 3933   1.390   2.437   3.802
 1215SOL    HW1 3934   1.336   2.416   3.883
 1215SOL    HW2 3935   1.481   2.396   3.811
 1216SOL     OW 3936   0.527   2.118   4.052
 1216SOL    HW1 3937   0.554   2.059   3.977
 1216SOL    HW2 3938   0.527   2.213   4.021
 1217SOL     OW 3939   1.754   3.085   5.312
 1217SOL    HW1 3940   1.845   3.046   5.299
 1217SOL    HW2 3941   1.762   3.181   5.336
 1218SOL     OW 3942   1.064   3.209   5.064
 1218SOL    HW1 3943   0.984   3.186   5.119
 1218SOL    HW2 3944   1.147   3.183   5.113
 1219SOL     OW 3945   1.592   3.491   5.349
 1219SOL    HW1 3946   1.619   3.525   5.259
 1219SOL    HW2 3947   1.671   3.453   5.395
 1220SOL     OW 3948   1.111   3.057   4.824
 1220SOL    HW1 3949   1.071   3.101   4.905
 1220SOL    HW2 3950   1.070   3.094   4.741
 1221SOL     OW 3951   1.638   2.961   4.803
 1221SOL    HW1 3952   1.643   3.042   4.862
 1221SOL    HW2 3953   1.552   2.963   4.752
 1222SOL     OW 3954   0.915   1.951   5.126
 1222SOL    HW1 3955   0.940   1.931   5.031
 1222SOL    HW2 3956   0.987   2.007   5.168
 1223SOL     OW 3957   0.980   2.978   5.443
 1223SOL    HW1 3958   0.881   2.984   5.453
 1223SOL    HW2 3959   1.003   2.898   5.387
 1224SOL     OW 3960   0.705   2.912   4.092
 1224SOL    HW1 3961   0.691   2.919   4.191
 1224SOL    HW2 3962   0.789   2.861   4.074
 1225SOL     OW 3963   0.410   2.675   4.975
 1225SOL    HW1 3964   0.496   2.687   5.025
 1225SOL    HW2 3965   0.368   2.588   5.002
 1226SOL     OW 3966   1.274   2.248   4.986
 1226SOL    HW1 3967   1.295   2.322   5.050
 1226SOL    HW2 3968   1.185   2.265   4.943
 1227SOL     OW 3969   0.064   3.426   5.055
 1227SOL    HW1 3970   0.018   3.508   5.021
 1227SOL    HW2 3971   0.162   3.445   5.064
 1228SOL     OW 3972   0.367   2.962   4.225
 1228SOL    HW1 3973   0.360   3.045   4.169
 1228SOL    HW2 3974   0.371   2.882   4.165
 1229SOL     OW 3975   0.566   2.399   4.589
 1229SOL    HW1 3976   0.578   2.465   4.515
 1229SOL    HW2 3977   0.612   2.433   4.672
 1230SOL     OW 3978   1.252   3.210   4.112
 1230SOL    HW1 3979   1.302   3.287   4.152
 1230SOL    HW2 3980   1.157   3.212   4.144
 1231SOL     OW 3981   1.272   3.307   4.866
 1231SOL    HW1 3982   1.319   3.320   4.953
 1231SOL    HW2 3983   1.206   3.233   4.875
 1232SOL     OW 3984   1.582   2.501   4.196
 1232SOL    HW1 3985   1.551   2.562   4.269
 1232SOL    HW2 3986   1.632   2.553   4.127
 1233SOL     OW 3987   0.354   3.372   5.053
 1233SOL    HW1 3988   0.333   3.328   4.966
 1233SOL    HW2 3989   0.451   3.398   5.056
 1234SOL     OW 3990   0.402   2.613   5.322
 1234SOL    HW1 3991   0.470   2.668   5.275
 1234SOL    HW2 3992   0.442   2.525   5.349
 1235SOL     OW 3993   1.587   2.641   5.394
 1235SOL    HW1 3994   1.495   2.679   5.389
 1235SOL    HW2 3995   1.647   2.688   5.329
 1236SOL     OW 3996   1.013   1.967   5.494
 1236SOL    HW1 3997   1.019   2.052   5.442
 1236SOL    HW2 3998   1.045   1.891   5.437
 1237SOL     OW 3999   0.504   1.912   5.464
 1237SOL    HW1 4000   0.462   1.855   5.394
 1237SOL    HW2 4001   0.438   1.981   5.496
 1238SOL     OW 4002   0.573   2.732   4.753
 1238SOL    HW1 4003   0.617   2.821   4.744
 1238SOL    HW2 4004   0.510   2.732   4.830
 1239SOL     OW 4005   1.360   2.724   4.769
 1239SOL    HW1 4006   1.285   2.724   4.703
 1239SOL    HW2 4007   1.397   2.632   4.778
 1240SOL     OW 4008   1.209   2.387   3.999
 1240SOL    HW1 4009   1.222   2.303   4.053
 1240SOL    HW2 4010   1.180   2.461   4.059
 1241SOL     OW 4011   0.307   2.075   4.955
 1241SOL    HW1 4012   0.284   2.112   5.045
 1241SOL    HW2 4013   0.277   1.980   4.949
 1242SOL     OW 4014   0.037   3.172   5.006
 1242SOL    HW1 4015   0.090   3.123   5.074
 1242SOL    HW2 4016   0.059   3.270   5.011
 1243SOL     OW 4017   0.732   2.496   4.788
 1243SOL    HW1 4018   0.791   2.470   4.712
 1243SOL    HW2 4019   0.704   2.592   4.777
 1244SOL     OW 4020   1.728   2.797   5.578
 1244SOL    HW1 4021   1.682   2.790   5.489
 1244SOL    HW2 4022   1.666   2.841   5.644
 1245SOL     OW 4023   0.307   1.925   4.342
 1245SOL    HW1 4024   0.296   2.019   4.375
 1245SOL    HW2 4025   0.302   1.862   4.419
 1246SOL     OW 4026   1.023   2.628   4.690
 1246SOL    HW1 4027   1.038   2.649   4.786
 1246SOL    HW2 4028   0.993   2.533   4.681
 1247SOL     OW 4029   0.980   3.435   5.424
 1247SOL    HW1 4030   0.960   3.479   5.336
 1247SOL    HW2 4031   1.019   3.344   5.408
 1248SOL     OW 4032   1.859   3.380   5.329
 1248SOL    HW1 4033   1.873   3.407   5.234
 1248SOL    HW2 4034   1.942   3.402   5.382
 1249SOL     OW 4035   0.350   2.760   5.528
 1249SOL    HW1 4036   0.426   2.804   5.576
 1249SOL    HW2 4037   0.385   2.713   5.446
 1250SOL     OW 4038   1.540   2.136   3.849
 1250SOL    HW1 4039   1.479   2.061   3.872
 1250SOL    HW2 4040   1.562   2.188   3.932
 1251SOL     OW 4041   1.303   2.700   3.766
 1251SOL    HW1 4042   1.337   2.607   3.781
 1251SOL    HW2 4043   1.321   2.727   3.671
 1252SOL     OW 4044   1.068   3.195   4.573
 1252SOL    HW1 4045   1.075   3.111   4.518
 1252SOL    HW2 4046   1.130   3.264   4.537
 1253SOL     OW 4047   0.319   2.672   4.673
 1253SOL    HW1 4048   0.412   2.708   4.678
 1253SOL    HW2 4049   0.313   2.587   4.725
 1254SOL     OW 4050   0.339   2.371   4.730
 1254SOL    HW1 4051   0.287   2.288   4.713
 1254SOL    HW2 4052   0.416   2.376   4.666
 1255SOL     OW 4053   1.138   2.242   5.402
 1255SOL    HW1 4054   1.093   2.305   5.466
 1255SOL    HW2 4055   1.231   2.273   5.385
 1256SOL     OW 4056   1.160   2.069   5.201
 1256SOL    HW1 4057   1.160   2.133   5.278
 1256SOL    HW2 4058   1.188   2.117   5.118
 1257SOL     OW 4059   0.008   3.188   3.924
 1257SOL    HW1 4060  -0.085   3.209   3.893
 1257SOL    HW2 4061   0.018   3.089   3.937
 1258SOL     OW 4062   0.088   3.663   4.651
 1258SOL    HW1 4063   0.046   3.577   4.624
 1258SOL    HW2 4064   0.182   3.666   4.617
 1259SOL     OW 4065   0.504   3.430   4.634
 1259SOL    HW1 4066   0.570   3.504   4.643
 1259SOL    HW2 4067   0.548   3.351   4.592
 1260SOL     OW 4068   1.002   2.658   4.962
 1260SOL    HW1 4069   1.043   2.626   5.048
 1260SOL    HW2 4070   0.906   2.631   4.959
 1261SOL     OW 4071   0.040   2.406   4.838
 1261SOL    HW1 4072   0.125   2.373   4.797
 1261SOL    HW2 4073   0.053   2.421   4.936
 1262SOL     OW 4074   0.189   2.382   5.446
 1262SOL    HW1 4075   0.248   2.342   5.376
 1262SOL    HW2 4076   0.131   2.453   5.405
 1263SOL     OW 4077   1.369   2.812   5.384
 1263SOL    HW1 4078   1.408   2.901   5.404
 1263SOL    HW2 4079   1.379   2.792   5.287
 1264SOL     OW 4080   0.815   2.434   4.049
 1264SOL    HW1 4081   0.822   2.345   4.003
 1264SOL    HW2 4082   0.721   2.468   4.041
 1265SOL     OW 4083   1.657   2.466   4.930
 1265SOL    HW1 4084   1.619   2.397   4.992
 1265SOL    HW2 4085   1.739   2.430   4.886
 1266SOL     OW 4086   0.252   3.426   5.468
 1266SOL    HW1 4087   0.222   3.483   5.544
 1266SOL    HW2 4088   0.245   3.329   5.494
 1267SOL     OW 4089   0.671   2.326   4.993
 1267SOL    HW1 4090   0.637   2.237   4.963
 1267SOL    HW2 4091   0.697   2.380   4.913
 1268SOL     OW 4092   0.930   3.540   5.189
 1268SOL    HW1 4093   0.906   3.522   5.094
 1268SOL    HW2 4094   0.960   3.634   5.199
 1269SOL     OW 4095   0.473   2.362   3.915
 1269SOL    HW1 4096   0.534   2.442   3.919
 1269SOL    HW2 4097   0.378   2.393   3.922
 1270SOL     OW 4098   0.159   2.999   5.190
 1270SOL    HW1 4099   0.181   2.938   5.266
 1270SOL    HW2 4100   0.169   2.950   5.104
 1271SOL     OW 4101   1.347   2.921   4.958
 1271SOL    HW1 4102   1.371   2.858   4.884
 1271SOL    HW2 4103   1.257   2.961   4.940
 1272SOL     OW 4104   1.302   2.717   4.033
 1272SOL    HW1 4105   1.216   2.686   4.075
 1272SOL    HW2 4106   1.298   2.703   3.934
 1273SOL     OW 4107   1.759   3.609   4.878
 1273SOL    HW1 4108   1.820   3.639   4.805
 1273SOL    HW2 4109   1.721   3.520   4.856
 1274SOL     OW 4110   1.252   3.593   4.852
 1274SOL    HW1 4111   1.336   3.598   4.798
 1274SOL    HW2 4112   1.229   3.497   4.870
 1275SOL     OW 4113   0.083   3.120   4.746
 1275SOL    HW1 4114   0.078   3.119   4.846
 1275SOL    HW2 4115   0.000   3.079   4.708
 1276SOL     OW 4116   0.688   3.524   5.440
 1276SOL    HW1 4117   0.632   3.605   5.449
 1276SOL    HW2 4118   0.740   3.528   5.354
 1277SOL     OW 4119   1.388   3.435   4.201
 1277SOL    HW1 4120   1.455   3.447   4.127
 1277SOL    HW2 4121   1.348   3.524   4.224
 1278SOL     OW 4122   0.130   3.656   5.575
 1278SOL    HW1 4123   0.089   3.582   5.628
 1278SOL    HW2 4124   0.194   3.707   5.633
 1279SOL     OW 4125   1.280   2.789   4.396
 1279SOL    HW1 4126   1.340   2.708   4.398
 1279SOL    HW2 4127   1.320   2.858   4.336
 1280SOL     OW 4128   0.830   3.135   5.146
 1280SOL    HW1 4129   0.825   3.168   5.241
 1280SOL    HW2 4130   0.744   3.154   5.100
 1281SOL     OW 4131   0.672   3.478   3.878
 1281SOL    HW1 4132   0.681   3.488   3.779
 1281SOL    HW2 4133   0.632   3.389   3.899
 1282SOL     OW 4134   1.650   3.582   5.118
 1282SOL    HW1 4135   1.703   3.592   5.034
 1282SOL    HW2 4136   1.623   3.672   5.152
 1283SOL     OW 4137   1.841   2.037   4.687
 1283SOL    HW1 4138   1.880   1.952   4.651
 1283SOL    HW2 4139   1.743   2.039   4.668
 1284SOL     OW 4140   0.263   2.188   4.444
 1284SOL    HW1 4141   0.184   2.239   4.410
 1284SOL    HW2 4142   0.254   2.173   4.542
 1285SOL     OW 4143   1.194   3.474   3.755
 1285SOL    HW1 4144   1.200   3.381   3.792
 1285SOL    HW2 4145   1.135   3.474   3.675
 1286SOL     OW 4146   0.822   2.864   5.096
 1286SOL    HW1 4147   0.862   2.863   5.004
 1286SOL    HW2 4148   0.832   2.956   5.136
 1287SOL     OW 4149   0.916   2.772   4.015
 1287SOL    HW1 4150   0.979   2.810   3.947
 1287SOL    HW2 4151   0.956   2.689   4.054
 1288SOL     OW 4152   1.504   3.469   3.768
 1288SOL    HW1 4153   1.412   3.506   3.775
 1288SOL    HW2 4154   1.542   3.489   3.678
 1289SOL     OW 4155   0.372   3.150   5.214
 1289SOL    HW1 4156   0.359   3.243   5.180
 1289SOL    HW2 4157   0.288   3.098   5.201
 1290SOL     OW 4158   1.614   3.154   5.013
 1290SOL    HW1 4159   1.674   3.157   5.093
 1290SOL    HW2 4160   1.539   3.218   5.026
 1291SOL     OW 4161   1.039   2.960   4.420
 1291SOL    HW1 4162   0.969   2.913   4.474
 1291SOL    HW2 4163   1.098   2.892   4.377
 1292SOL     OW 4164   1.014   2.098   4.695
 1292SOL    HW1 4165   1.006   2.062   4.602
 1292SOL    HW2 4166   1.012   2.022   4.760
 1293SOL     OW 4167   0.590   3.349   4.215
 1293SOL    HW1 4168   0.632   3.291   4.145
 1293SOL    HW2 4169   0.546   3.428   4.171
 1294SOL     OW 4170   1.709   2.247   5.105
 1294SOL    HW1 4171   1.782   2.316   5.109
 1294SOL    HW2 4172   1.737   2.172   5.046
 1295SOL     OW 4173   0.255   3.210   4.014
 1295SOL    HW1 4174   0.159   3.211   3.987
 1295SOL    HW2 4175   0.267   3.263   4.098
 1296SOL     OW 4176   0.105   2.875   5.450
 1296SOL    HW1 4177   0.028   2.842   5.504
 1296SOL    HW2 4178   0.190   2.845   5.492
 1297SOL     OW 4179   0.672   2.065   5.213
 1297SOL    HW1 4180   0.762   2.049   5.173
 1297SOL    HW2 4181   0.680   2.070   5.312
 1298SOL     OW 4182   0.075   2.207   3.757
 1298SOL    HW1 4183  -0.017   2.179   3.728
 1298SOL    HW2 4184   0.106   2.284   3.701
 1299SOL     OW 4185   1.440   2.718   5.122
 1299SOL    HW1 4186   1.383   2.770   5.059
 1299SOL    HW2 4187   1.536   2.730   5.098
 1300SOL     OW 4188   0.072   2.028   4.042
 1300SOL    HW1 4189   0.055   2.111   3.988
 1300SOL    HW2 4190   0.162   1.991   4.020
 1301SOL     OW 4191   1.183   3.197   3.843
 1301SOL    HW1 4192   1.084   3.186   3.845
 1301SOL    HW2 4193   1.217   3.212   3.936
 1302SOL     OW 4194   0.613   2.704   5.155
 1302SOL    HW1 4195   0.669   2.785   5.138
 1302SOL    HW2 4196   0.672   2.624   5.158
 1303SOL     OW 4197   1.493   3.629   4.683
 1303SOL    HW1 4198   1.526   3.693   4.614
 1303SOL    HW2 4199   1.559   3.623   4.758
 1304SOL     OW 4200   0.716   2.427   5.432
 1304SOL    HW1 4201   0.735   2.492   5.506
 1304SOL    HW2 4202   0.776   2.347   5.441
 1305SOL     OW 4203   1.450   3.082   5.357
 1305SOL    HW1 4204   1.441   3.072   5.456
 1305SOL    HW2 4205   1.546   3.075   5.331
 1306SOL     OW 4206   0.390   3.603   5.284
 1306SOL    HW1 4207   0.299   3.644   5.282
 1306SOL    HW2 4208   0.383   3.509   5.316
 1307SOL     OW 4209   1.674   2.745   4.978
 1307SOL    HW1 4210   1.647   2.656   4.941
 1307SOL    HW2 4211   1.675   2.813   4.905
 1308SOL     OW 4212   1.225   2.187   4.173
 1308SOL    HW1 4213   1.290   2.113   4.162
 1308SOL    HW2 4214   1.245   2.237   4.257
 1309SOL     OW 4215   0.594   2.607   4.376
 1309SOL    HW1 4216   0.644   2.692   4.357
 1309SOL    HW2 4217   0.506   2.609   4.328
 1310SOL     OW 4218   1.777   2.204   5.366
 1310SOL    HW1 4219   1.760   2.235   5.272
 1310SOL    HW2 4220   1.693   2.167   5.404
 1311SOL     OW 4221   1.730   2.796   5.241
 1311SOL    HW1 4222   1.768   2.887   5.256
 1311SOL    HW2 4223   1.722   2.779   5.142
 1312SOL     OW 4224   0.859   3.236   3.740
 1312SOL    HW1 4225   0.813   3.251   3.828
 1312SOL    HW2 4226   0.903   3.321   3.710
 1313SOL     OW 4227   0.661   3.652   4.677
 1313SOL    HW1 4228   0.615   3.740   4.664
 1313SOL    HW2 4229   0.760   3.664   4.670
 1314SOL     OW 4230   0.859   2.818   4.585
 1314SOL    HW1 4231   0.913   2.749   4.633
 1314SOL    HW2 4232   0.827   2.887   4.651
 1315SOL     OW 4233   1.083   2.846   3.811
 1315SOL    HW1 4234   1.060   2.899   3.729
 1315SOL    HW2 4235   1.164   2.790   3.792
 1316SOL     OW 4236   1.861   3.431   4.575
 1316SOL    HW1 4237   1.790   3.419   4.505
 1316SOL    HW2 4238   1.862   3.352   4.635
 1317SOL     OW 4239   0.221   3.176   5.568
 1317SOL    HW1 4240   0.156   3.103   5.547
 1317SOL    HW2 4241   0.225   3.190   5.666
 1318SOL     OW 4242   0.079   3.102   4.377
 1318SOL    HW1 4243   0.078   3.055   4.465
 1318SOL    HW2 4244   0.161   3.074   4.326
 1319SOL     OW 4245   0.672   3.253   5.348
 1319SOL    HW1 4246   0.594   3.203   5.386
 1319SOL    HW2 4247   0.669   3.348   5.379
 1320SOL     OW 4248   1.824   2.054   4.951
 1320SOL    HW1 4249   1.820   1.964   4.995
 1320SOL    HW2 4250   1.827   2.043   4.852
 1321SOL     OW 4251   0.428   2.286   4.244
 1321SOL    HW1 4252   0.458   2.214   4.182
 1321SOL    HW2 4253   0.389   2.246   4.327
 1322SOL     OW 4254   1.705   3.349   4.828
 1322SOL    HW1 4255   1.612   3.324   4.801
 1322SOL    HW2 4256   1.731   3.299   4.910
 1323SOL     OW 4257   0.317   2.409   5.004
 1323SOL    HW1 4258   0.355   2.350   5.076
 1323SOL    HW2 4259   0.357   2.383   4.916
 1324SOL     OW 4260   0.812   3.448   4.411
 1324SOL    HW1 4261   0.844   3.458   4.317
 1324SOL    HW2 4262   0.733   3.386   4.413
 1325SOL     OW 4263   1.424   2.076   4.836
 1325SOL    HW1 4264   1.476   2.011   4.891
 1325SOL    HW2 4265   1.375   2.139   4.897
 1326SOL     OW 4266   1.001   1.896   4.878
 1326SOL    HW1 4267   0.938   1.824   4.847
 1326SOL    HW2 4268   1.094   1.860   4.878
 1327SOL     OW 4269   0.770   3.192   4.025
 1327SOL    HW1 4270   0.724   3.105   4.042
 1327SOL    HW2 4271   0.861   3.189   4.066
 1328SOL     OW 4272   0.618   3.429   5.008
 1328SOL    HW1 4273   0.613   3.511   5.065
 1328SOL    HW2 4274   0.707   3.426   4.963
 1329SOL     OW 4275   1.352   1.914   3.892
 1329SOL    HW1 4276   1.387   1.873   3.808
 1329SOL    HW2 4277   1.262   1.876   3.912
 1330SOL     OW 4278   1.300   2.315   4.415
 1330SOL    HW1 4279   1.241   2.395   4.419
 1330SOL    HW2 4280   1.315   2.280   4.508
 1331SOL     OW 4281   1.593   2.083   4.606
 1331SOL    HW1 4282   1.509   2.082   4.660
 1331SOL    HW2 4283   1.595   2.166   4.550
 1332SOL     OW 4284   0.039   2.939   4.024
 1332SOL    HW1 4285   0.138   2.928   4.015
 1332SOL    HW2 4286  -0.001   2.853   4.056
 1333SOL     OW 4287   0.875   3.508   4.061
 1333SOL    HW1 4288   0.798   3.473   4.007
 1333SOL    HW2 4289   0.843   3.579   4.123
 1334SOL     OW 4290   0.230   2.490   5.699
 1334SOL    HW1 4291   0.137   2.488   5.736
 1334SOL    HW2 4292   0.231   2.451   5.607
 1335SOL     OW 4293   1.755   2.469   5.817
 1335SOL    HW1 4294   1.743   2.456   5.718
 1335SOL    HW2 4295   1.725   2.388   5.866
 1336SOL     OW 4296   0.231   3.575   6.069
 1336SOL    HW1 4297   0.265   3.652   6.123
 1336SOL    HW2 4298   0.275   3.575   5.979
 1337SOL     OW 4299   0.606   2.826   5.709
 1337SOL    HW1 4300   0.613   2.910   5.655
 1337SOL    HW2 4301   0.652   2.839   5.797
 1338SOL     OW 4302   1.842   3.629   5.945
 1338SOL    HW1 4303   1.896   3.600   6.025
 1338SOL    HW2 4304   1.872   3.719   5.916
 1339SOL     OW 4305   0.027   3.458   5.703
 1339SOL    HW1 4306   0.008   3.362   5.724
 1339SOL    HW2 4307  -0.006   3.516   5.778
 1340SOL     OW 4308   1.689   2.784   6.198
 1340SOL    HW1 4309   1.784   2.755   6.206
 1340SOL    HW2 4310   1.681   2.849   6.123
 1341SOL     OW 4311   1.641   2.970   6.018
 1341SOL    HW1 4312   1.727   2.972   5.966
 1341SOL    HW2 4313   1.655   3.017   6.106
 1342SOL     OW 4314   1.525   2.861   5.776
 1342SOL    HW1 4315   1.462   2.785   5.789
 1342SOL    HW2 4316   1.573   2.879   5.862
 1343SOL     OW 4317   0.598   2.591   5.856
 1343SOL    HW1 4318   0.622   2.660   5.788
 1343SOL    HW2 4319   0.520   2.624   5.910
 1344SOL     OW 4320   0.865   2.210   5.781
 1344SOL    HW1 4321   0.924   2.273   5.732
 1344SOL    HW2 4322   0.884   2.116   5.752
 1345SOL     OW 4323   0.321   2.805   5.828
 1345SOL    HW1 4324   0.403   2.844   5.786
 1345SOL    HW2 4325   0.294   2.723   5.779
 1346SOL     OW 4326   1.111   3.638   5.823
 1346SOL    HW1 4327   1.051   3.576   5.873
 1346SOL    HW2 4328   1.142   3.594   5.738
 1347SOL     OW 4329   1.632   3.239   5.667
 1347SOL    HW1 4330   1.600   3.333   5.657
 1347SOL    HW2 4331   1.556   3.176   5.655
 1348SOL     OW 4332   0.464   3.605   5.909
 1348SOL    HW1 4333   0.497   3.644   5.995
 1348SOL    HW2 4334   0.540   3.598   5.844
 1349SOL     OW 4335   0.614   1.984   5.703
 1349SOL    HW1 4336   0.712   1.962   5.710
 1349SOL    HW2 4337   0.583   1.967   5.610
 1350SOL     OW 4338   1.434   3.050   5.627
 1350SOL    HW1 4339   1.466   2.974   5.684
 1350SOL    HW2 4340   1.342   3.077   5.657
 1351SOL     OW 4341   0.297   1.897   5.757
 1351SOL    HW1 4342   0.346   1.981   5.736
 1351SOL    HW2 4343   0.359   1.832   5.802
 1352SOL     OW 4344   1.032   2.411   5.602
 1352SOL    HW1 4345   0.991   2.493   5.563
 1352SOL    HW2 4346   1.096   2.437   5.675
 1353SOL     OW 4347   1.857   2.695   5.963
 1353SOL    HW1 4348   1.899   2.631   6.027
 1353SOL    HW2 4349   1.819   2.644   5.885
 1354SOL     OW 4350   0.488   3.247   5.760
 1354SOL    HW1 4351   0.401   3.232   5.807
 1354SOL    HW2 4352   0.471   3.273   5.665
 1355SOL     OW 4353   1.664   3.142   6.243
 1355SOL    HW1 4354   1.763   3.150   6.257
 1355SOL    HW2 4355   1.619   3.226   6.274
 1356SOL     OW 4356   1.390   2.437   5.664
 1356SOL    HW1 4357   1.336   2.416   5.745
 1356SOL    HW2 4358   1.481   2.396   5.673
 1357SOL     OW 4359   0.527   2.118   5.914
 1357SOL    HW1 4360   0.554   2.059   5.839
 1357SOL    HW2 4361   0.527   2.213   5.883
 1358SOL     OW 4362   0.367   2.962   6.087
 1358SOL    HW1 4363   0.360   3.045   6.031
 1358SOL    HW2 4364   0.371   2.882   6.027
 1359SOL     OW 4365   1.209   2.387   5.861
 1359SOL    HW1 4366   1.222   2.303   5.915
 1359SOL    HW2 4367   1.180   2.461   5.921
 1360SOL     OW 4368   0.307   1.925   6.204
 1360SOL    HW1 4369   0.296   2.019   6.237
 1360SOL    HW2 4370   0.302   1.862   6.281
 1361SOL     OW 4371   1.540   2.136   5.711
 1361SOL    HW1 4372   1.479   2.061   5.734
 1361SOL    HW2 4373   1.562   2.188   5.794
 1362SOL     OW 4374   1.303   2.700   5.628
 1362SOL    HW1 4375   1.337   2.607   5.643
 1362SOL    HW2 4376   1.321   2.727   5.533
 1363SOL     OW 4377   0.008   3.188   5.786
 1363SOL    HW1 4378  -0.085   3.209   5.755
 1363SOL    HW2 4379   0.018   3.089   5.799
 1364SOL     OW 4380   0.815   2.434   5.911
 1364SOL    HW1 4381   0.822   2.345   5.865
 1364SOL    HW2 4382   0.721   2.468   5.903
 1365SOL     OW 4383   0.473   2.362   5.777
 1365SOL    HW1 4384   0.534   2.442   5.781
 1365SOL    HW2 4385   0.378   2.393   5.784
 1366SOL     OW 4386   1.726   1.997   6.109
 1366SOL    HW1 4387   1.799   1.980   6.042
 1366SOL    HW2 4388   1.695   1.910   6.147
 1367SOL     OW 4389   0.672   3.478   5.740
 1367SOL    HW1 4390   0.681   3.488   5.641
 1367SOL    HW2 4391   0.632   3.389   5.761
 1368SOL     OW 4392   1.194   3.474   5.617
 1368SOL    HW1 4393   1.200   3.381   5.654
 1368SOL    HW2 4394   1.135   3.474   5.537
 1369SOL     OW 4395   0.916   2.772   5.877
 1369SOL    HW1 4396   0.979   2.810   5.809
 1369SOL    HW2 4397   0.956   2.689   5.916
 1370SOL     OW 4398   1.504   3.469   5.630
 1370SOL    HW1 4399   1.412   3.506   5.637
 1370SOL    HW2 4400   1.542   3.489   5.540
 1371SOL     OW 4401   1.039   2.960   6.282
 1371SOL    HW1 4402   0.969   2.913   6.336
 1371SOL    HW2 4403   1.098   2.892   6.239
 1372SOL     OW 4404   0.255   3.210   5.876
 1372SOL    HW1 4405   0.159   3.211   5.849
 1372SOL    HW2 4406   0.267   3.263   5.960
 1373SOL     OW 4407   0.075   2.207   5.619
 1373SOL    HW1 4408  -0.017   2.179   5.590
 1373SOL    HW2 4409   0.106   2.284   5.563
 1374SOL     OW 4410   0.072   2.028   5.904
 1374SOL    HW1 4411   0.055   2.111   5.850
 1374SOL    HW2 4412   0.162   1.991   5.882
 1375SOL     OW 4413   1.183   3.197   5.705
 1375SOL    HW1 4414   1.084   3.186   5.707
 1375SOL    HW2 4415   1.217   3.212   5.798
 1376SOL     OW 4416   1.225   2.187   6.035
 1376SOL    HW1 4417   1.290   2.113   6.024
 1376SOL    HW2 4418   1.245   2.237   6.119
 1377SOL     OW 4419   0.859   3.236   5.602
 1377SOL    HW1 4420   0.813   3.251   5.690
 1377SOL    HW2 4421   0.903   3.321   5.572
 1378SOL     OW 4422   1.083   2.846   5.673
 1378SOL    HW1 4423   1.060   2.899   5.591
 1378SOL    HW2 4424   1.164   2.790   5.654
 1379SOL     OW 4425   1.352   1.914   5.754
 1379SOL    HW1 4426   1.387   1.873   5.670
 1379SOL    HW2 4427   1.262   1.876   5.774
 1380SOL     OW 4428   0.039   2.939   5.886
 1380SOL    HW1 4429   0.138   2.928   5.877
 1380SOL    HW2 4430  -0.001   2.853   5.918
 1381SOL     OW 4431   0.875   3.508   5.923
 1381SOL    HW1 4432   0.798   3.473   5.869
 1381SOL    HW2 4433   0.843   3.579   5.985
 1382SOL     OW 4434   0.230   4.352   0.113
 1382SOL    HW1 4435   0.137   4.350   0.150
 1382SOL    HW2 4436   0.231   4.313   0.021
 1383SOL     OW 4437   0.225   3.999   0.996
 1383SOL    HW1 4438   0.260   3.982   1.088
 1383SOL    HW2 4439   0.137   3.954   0.984
 1384SOL     OW 4440   0.019   4.092   0.647
 1384SOL    HW1 4441  -0.063   4.135   0.686
 1384SOL    HW2 4442  -0.009   4.019   0.584
 1385SOL     OW 4443   0.569   4.999   1.165
 1385SOL    HW1 4444   0.476   4.992   1.128
 1385SOL    HW2 4445   0.580   5.088   1.209
 1386SOL     OW 4446   1.555   5.235   0.703
 1386SOL    HW1 4447   1.498   5.219   0.784
 1386SOL    HW2 4448   1.496   5.245   0.623
 1387SOL     OW 4449   1.135   4.427   0.717
 1387SOL    HW1 4450   1.192   4.505   0.692
 1387SOL    HW2 4451   1.075   4.453   0.793
 1388SOL     OW 4452   1.755   4.331   0.231
 1388SOL    HW1 4453   1.743   4.318   0.132
 1388SOL    HW2 4454   1.725   4.250   0.280
 1389SOL     OW 4455   0.768   4.868   1.023
 1389SOL    HW1 4456   0.690   4.885   1.083
 1389SOL    HW2 4457   0.802   4.955   0.987
 1390SOL     OW 4458   0.850   4.522   1.823
 1390SOL    HW1 4459   0.846   4.598   1.888
 1390SOL    HW2 4460   0.872   4.558   1.732
 1391SOL     OW 4461   0.685   4.736   0.665
 1391SOL    HW1 4462   0.754   4.720   0.735
 1391SOL    HW2 4463   0.612   4.793   0.703
 1392SOL     OW 4464   0.686   4.885   1.803
 1392SOL    HW1 4465   0.746   4.964   1.817
 1392SOL    HW2 4466   0.600   4.916   1.762
 1393SOL     OW 4467   0.335   5.159   1.061
 1393SOL    HW1 4468   0.257   5.128   1.008
 1393SOL    HW2 4469   0.393   5.217   1.004
 1394SOL     OW 4470   1.460   5.229   1.339
 1394SOL    HW1 4471   1.484   5.323   1.365
 1394SOL    HW2 4472   1.444   5.175   1.421
 1395SOL     OW 4473   0.438   4.116   1.499
 1395SOL    HW1 4474   0.520   4.060   1.508
 1395SOL    HW2 4475   0.357   4.058   1.503
 1396SOL     OW 4476   1.603   4.171   0.737
 1396SOL    HW1 4477   1.529   4.217   0.687
 1396SOL    HW2 4478   1.654   4.239   0.790
 1397SOL     OW 4479   0.231   5.437   0.483
 1397SOL    HW1 4480   0.265   5.514   0.537
 1397SOL    HW2 4481   0.275   5.437   0.393
 1398SOL     OW 4482   1.127   5.065   1.690
 1398SOL    HW1 4483   1.174   5.065   1.778
 1398SOL    HW2 4484   1.079   4.978   1.679
 1399SOL     OW 4485   0.230   5.158   0.538
 1399SOL    HW1 4486   0.204   5.254   0.538
 1399SOL    HW2 4487   0.159   5.104   0.583
 1400SOL     OW 4488   0.240   4.815   0.886
 1400SOL    HW1 4489   0.254   4.731   0.938
 1400SOL    HW2 4490   0.185   4.879   0.941
 1401SOL     OW 4491   0.620   5.510   1.439
 1401SOL    HW1 4492   0.528   5.493   1.474
 1401SOL    HW2 4493   0.648   5.602   1.465
 1402SOL     OW 4494   0.606   4.688   0.123
 1402SOL    HW1 4495   0.613   4.772   0.069
 1402SOL    HW2 4496   0.652   4.701   0.211
 1403SOL     OW 4497   1.594   3.838   1.480
 1403SOL    HW1 4498   1.576   3.905   1.408
 1403SOL    HW2 4499   1.591   3.884   1.569
 1404SOL     OW 4500   0.122   4.367   0.563
 1404SOL    HW1 4501   0.077   4.279   0.580
 1404SOL    HW2 4502   0.121   4.421   0.647
 1405SOL     OW 4503   1.842   5.491   0.359
 1405SOL    HW1 4504   1.896   5.462   0.439
 1405SOL    HW2 4505   1.872   5.581   0.330
 1406SOL     OW 4506   0.027   5.320   0.117
 1406SOL    HW1 4507   0.008   5.224   0.138
 1406SOL    HW2 4508  -0.006   5.378   0.192
 1407SOL     OW 4509   1.689   4.646   0.612
 1407SOL    HW1 4510   1.784   4.617   0.620
 1407SOL    HW2 4511   1.681   4.711   0.537
 1408SOL     OW 4512   1.641   4.832   0.432
 1408SOL    HW1 4513   1.727   4.834   0.380
 1408SOL    HW2 4514   1.655   4.879   0.520
 1409SOL     OW 4515   0.113   4.461   1.597
 1409SOL    HW1 4516   0.201   4.448   1.642
 1409SOL    HW2 4517   0.100   4.558   1.575
 1410SOL     OW 4518   0.613   5.089   0.726
 1410SOL    HW1 4519   0.564   5.002   0.735
 1410SOL    HW2 4520   0.590   5.132   0.639
 1411SOL     OW 4521   1.293   4.952   1.423
 1411SOL    HW1 4522   1.330   4.879   1.365
 1411SOL    HW2 4523   1.345   4.957   1.508
 1412SOL     OW 4524   0.809   3.728   0.502
 1412SOL    HW1 4525   0.849   3.819   0.493
 1412SOL    HW2 4526   0.709   3.736   0.508
 1413SOL     OW 4527   0.197   4.700   1.264
 1413SOL    HW1 4528   0.286   4.655   1.250
 1413SOL    HW2 4529   0.124   4.635   1.245
 1414SOL     OW 4530   1.525   4.723   0.190
 1414SOL    HW1 4531   1.462   4.647   0.203
 1414SOL    HW2 4532   1.573   4.741   0.276
 1415SOL     OW 4533   1.187   5.516   1.616
 1415SOL    HW1 4534   1.211   5.576   1.540
 1415SOL    HW2 4535   1.194   5.421   1.586
 1416SOL     OW 4536   0.317   3.975   1.801
 1416SOL    HW1 4537   0.388   4.046   1.807
 1416SOL    HW2 4538   0.229   4.014   1.829
 1417SOL     OW 4539   1.466   5.141   0.953
 1417SOL    HW1 4540   1.407   5.147   1.033
 1417SOL    HW2 4541   1.451   5.053   0.907
 1418SOL     OW 4542   1.667   5.438   0.572
 1418SOL    HW1 4543   1.626   5.415   0.484
 1418SOL    HW2 4544   1.649   5.364   0.637
 1419SOL     OW 4545   0.598   4.453   0.270
 1419SOL    HW1 4546   0.622   4.522   0.202
 1419SOL    HW2 4547   0.520   4.486   0.324
 1420SOL     OW 4548   1.281   4.069   0.944
 1420SOL    HW1 4549   1.195   4.019   0.931
 1420SOL    HW2 4550   1.343   4.015   1.000
 1421SOL     OW 4551   1.576   5.386   0.307
 1421SOL    HW1 4552   1.665   5.432   0.310
 1421SOL    HW2 4553   1.555   5.362   0.212
 1422SOL     OW 4554   0.807   4.329   1.465
 1422SOL    HW1 4555   0.760   4.326   1.554
 1422SOL    HW2 4556   0.756   4.274   1.399
 1423SOL     OW 4557   1.394   4.193   1.674
 1423SOL    HW1 4558   1.374   4.236   1.762
 1423SOL    HW2 4559   1.472   4.131   1.683
 1424SOL     OW 4560   0.973   4.614   1.572
 1424SOL    HW1 4561   1.019   4.530   1.543
 1424SOL    HW2 4562   0.917   4.648   1.497
 1425SOL     OW 4563   0.991   4.134   1.242
 1425SOL    HW1 4564   0.914   4.168   1.296
 1425SOL    HW2 4565   0.957   4.083   1.163
 1426SOL     OW 4566   1.041   4.425   0.429
 1426SOL    HW1 4567   1.067   4.421   0.525
 1426SOL    HW2 4568   0.956   4.374   0.415
 1427SOL     OW 4569   0.076   4.535   0.789
 1427SOL    HW1 4570   0.175   4.523   0.798
 1427SOL    HW2 4571   0.052   4.630   0.810
 1428SOL     OW 4572   0.130   5.545   1.571
 1428SOL    HW1 4573   0.120   5.530   1.670
 1428SOL    HW2 4574   0.044   5.581   1.535
 1429SOL     OW 4575   0.865   4.072   0.195
 1429SOL    HW1 4576   0.924   4.135   0.146
 1429SOL    HW2 4577   0.884   3.978   0.166
 1430SOL     OW 4578   1.719   4.309   1.831
 1430SOL    HW1 4579   1.693   4.398   1.795
 1430SOL    HW2 4580   1.717   4.241   1.758
 1431SOL     OW 4581   1.362   4.868   0.545
 1431SOL    HW1 4582   1.445   4.839   0.497
 1431SOL    HW2 4583   1.313   4.935   0.489
 1432SOL     OW 4584   0.550   3.920   0.885
 1432SOL    HW1 4585   0.545   3.915   0.985
 1432SOL    HW2 4586   0.552   4.016   0.856
 1433SOL     OW 4587   1.008   5.180   0.477
 1433SOL    HW1 4588   0.962   5.252   0.425
 1433SOL    HW2 4589   1.004   5.200   0.575
 1434SOL     OW 4590   0.351   5.525   0.853
 1434SOL    HW1 4591   0.401   5.439   0.859
 1434SOL    HW2 4592   0.416   5.602   0.850
 1435SOL     OW 4593   1.795   4.790   0.873
 1435SOL    HW1 4594   1.733   4.775   0.797
 1435SOL    HW2 4595   1.743   4.801   0.958
 1436SOL     OW 4596   1.227   5.274   1.506
 1436SOL    HW1 4597   1.233   5.197   1.570
 1436SOL    HW2 4598   1.175   5.248   1.426
 1437SOL     OW 4599   0.321   4.667   0.242
 1437SOL    HW1 4600   0.403   4.706   0.200
 1437SOL    HW2 4601   0.294   4.585   0.193
 1438SOL     OW 4602   1.458   4.459   0.728
 1438SOL    HW1 4603   1.453   4.394   0.803
 1438SOL    HW2 4604   1.538   4.518   0.741
 1439SOL     OW 4605   0.461   4.990   1.727
 1439SOL    HW1 4606   0.411   4.991   1.641
 1439SOL    HW2 4607   0.398   4.972   1.803
 1440SOL     OW 4608   1.111   5.500   0.237
 1440SOL    HW1 4609   1.051   5.438   0.287
 1440SOL    HW2 4610   1.142   5.456   0.152
 1441SOL     OW 4611   0.202   4.009   1.498
 1441SOL    HW1 4612   0.122   4.069   1.485
 1441SOL    HW2 4613   0.192   3.960   1.584
 1442SOL     OW 4614   1.632   5.101   0.081
 1442SOL    HW1 4615   1.600   5.195   0.071
 1442SOL    HW2 4616   1.556   5.038   0.069
 1443SOL     OW 4617   0.464   5.467   0.323
 1443SOL    HW1 4618   0.497   5.506   0.409
 1443SOL    HW2 4619   0.540   5.460   0.258
 1444SOL     OW 4620   1.400   3.831   0.426
 1444SOL    HW1 4621   1.376   3.794   0.336
 1444SOL    HW2 4622   1.499   3.847   0.430
 1445SOL     OW 4623   0.249   5.509   1.241
 1445SOL    HW1 4624   0.306   5.444   1.291
 1445SOL    HW2 4625   0.233   5.476   1.148
 1446SOL     OW 4626   0.940   5.422   0.904
 1446SOL    HW1 4627   1.020   5.365   0.925
 1446SOL    HW2 4628   0.891   5.382   0.827
 1447SOL     OW 4629   0.382   4.424   0.480
 1447SOL    HW1 4630   0.427   4.334   0.477
 1447SOL    HW2 4631   0.288   4.413   0.513
 1448SOL     OW 4632   1.547   3.946   1.729
 1448SOL    HW1 4633   1.542   3.983   1.821
 1448SOL    HW2 4634   1.475   3.877   1.717
 1449SOL     OW 4635   0.614   3.846   0.117
 1449SOL    HW1 4636   0.712   3.824   0.124
 1449SOL    HW2 4637   0.583   3.829   0.024
 1450SOL     OW 4638   0.781   3.988   1.749
 1450SOL    HW1 4639   0.848   3.927   1.792
 1450SOL    HW2 4640   0.708   4.007   1.814
 1451SOL     OW 4641   0.888   5.238   1.195
 1451SOL    HW1 4642   0.865   5.213   1.101
 1451SOL    HW2 4643   0.949   5.169   1.234
 1452SOL     OW 4644   1.351   4.314   1.433
 1452SOL    HW1 4645   1.379   4.271   1.518
 1452SOL    HW2 4646   1.376   4.410   1.434
 1453SOL     OW 4647   0.803   5.126   0.924
 1453SOL    HW1 4648   0.893   5.140   0.882
 1453SOL    HW2 4649   0.732   5.128   0.853
 1454SOL     OW 4650   0.922   4.227   0.899
 1454SOL    HW1 4651   0.897   4.218   0.803
 1454SOL    HW2 4652   0.970   4.145   0.930
 1455SOL     OW 4653   0.539   3.788   0.512
 1455SOL    HW1 4654   0.458   3.789   0.570
 1455SOL    HW2 4655   0.542   3.871   0.457
 1456SOL     OW 4656   1.434   4.912   0.041
 1456SOL    HW1 4657   1.466   4.836   0.098
 1456SOL    HW2 4658   1.342   4.939   0.071
 1457SOL     OW 4659   0.935   3.960   0.480
 1457SOL    HW1 4660   0.887   4.001   0.402
 1457SOL    HW2 4661   1.034   3.958   0.461
 1458SOL     OW 4662   1.076   4.407   1.464
 1458SOL    HW1 4663   0.996   4.346   1.467
 1458SOL    HW2 4664   1.157   4.354   1.440
 1459SOL     OW 4665   1.227   5.294   0.793
 1459SOL    HW1 4666   1.248   5.368   0.728
 1459SOL    HW2 4667   1.295   5.294   0.866
 1460SOL     OW 4668   0.459   4.876   0.741
 1460SOL    HW1 4669   0.388   4.849   0.806
 1460SOL    HW2 4670   0.433   4.848   0.648
 1461SOL     OW 4671   1.271   5.521   0.591
 1461SOL    HW1 4672   1.315   5.585   0.527
 1461SOL    HW2 4673   1.221   5.573   0.661
 1462SOL     OW 4674   1.032   4.273   0.016
 1462SOL    HW1 4675   0.991   4.355  -0.023
 1462SOL    HW2 4676   1.096   4.299   0.089
 1463SOL     OW 4677   0.078   4.280   1.386
 1463SOL    HW1 4678   0.170   4.279   1.345
 1463SOL    HW2 4679   0.072   4.354   1.453
 1464SOL     OW 4680   0.561   3.946   1.147
 1464SOL    HW1 4681   0.599   3.862   1.184
 1464SOL    HW2 4682   0.473   3.965   1.191
 1465SOL     OW 4683   0.866   4.178   0.642
 1465SOL    HW1 4684   0.834   4.250   0.580
 1465SOL    HW2 4685   0.890   4.097   0.589
 1466SOL     OW 4686   1.017   3.763   0.753
 1466SOL    HW1 4687   0.945   3.768   0.684
 1466SOL    HW2 4688   0.993   3.694   0.822
 1467SOL     OW 4689   1.429   4.897   0.867
 1467SOL    HW1 4690   1.374   4.813   0.860
 1467SOL    HW2 4691   1.455   4.926   0.775
 1468SOL     OW 4692   1.466   4.314   0.992
 1468SOL    HW1 4693   1.436   4.219   0.999
 1468SOL    HW2 4694   1.539   4.330   1.058
 1469SOL     OW 4695   1.857   4.557   0.377
 1469SOL    HW1 4696   1.899   4.493   0.441
 1469SOL    HW2 4697   1.819   4.506   0.299
 1470SOL     OW 4698   0.488   5.109   0.174
 1470SOL    HW1 4699   0.401   5.094   0.221
 1470SOL    HW2 4700   0.471   5.135   0.079
 1471SOL     OW 4701   1.664   5.004   0.657
 1471SOL    HW1 4702   1.763   5.012   0.671
 1471SOL    HW2 4703   1.619   5.088   0.688
 1472SOL     OW 4704   1.390   4.299   0.078
 1472SOL    HW1 4705   1.336   4.278   0.159
 1472SOL    HW2 4706   1.481   4.258   0.087
 1473SOL     OW 4707   0.527   3.980   0.328
 1473SOL    HW1 4708   0.554   3.921   0.253
 1473SOL    HW2 4709   0.527   4.075   0.297
 1474SOL     OW 4710   1.754   4.947   1.588
 1474SOL    HW1 4711   1.845   4.908   1.575
 1474SOL    HW2 4712   1.762   5.043   1.612
 1475SOL     OW 4713   1.064   5.071   1.340
 1475SOL    HW1 4714   0.984   5.048   1.395
 1475SOL    HW2 4715   1.147   5.045   1.389
 1476SOL     OW 4716   1.592   5.353   1.625
 1476SOL    HW1 4717   1.619   5.387   1.535
 1476SOL    HW2 4718   1.671   5.315   1.671
 1477SOL     OW 4719   1.111   4.919   1.100
 1477SOL    HW1 4720   1.071   4.963   1.181
 1477SOL    HW2 4721   1.070   4.956   1.017
 1478SOL     OW 4722   1.638   4.823   1.079
 1478SOL    HW1 4723   1.643   4.904   1.138
 1478SOL    HW2 4724   1.552   4.825   1.028
 1479SOL     OW 4725   0.915   3.813   1.402
 1479SOL    HW1 4726   0.940   3.793   1.307
 1479SOL    HW2 4727   0.987   3.869   1.444
 1480SOL     OW 4728   0.980   4.840   1.719
 1480SOL    HW1 4729   0.881   4.846   1.729
 1480SOL    HW2 4730   1.003   4.760   1.663
 1481SOL     OW 4731   0.705   4.774   0.368
 1481SOL    HW1 4732   0.691   4.781   0.467
 1481SOL    HW2 4733   0.789   4.723   0.350
 1482SOL     OW 4734   0.410   4.537   1.251
 1482SOL    HW1 4735   0.496   4.549   1.301
 1482SOL    HW2 4736   0.368   4.450   1.278
 1483SOL     OW 4737   1.274   4.110   1.262
 1483SOL    HW1 4738   1.295   4.184   1.326
 1483SOL    HW2 4739   1.185   4.127   1.219
 1484SOL     OW 4740   0.064   5.288   1.331
 1484SOL    HW1 4741   0.018   5.370   1.297
 1484SOL    HW2 4742   0.162   5.307   1.340
 1485SOL     OW 4743   0.367   4.824   0.501
 1485SOL    HW1 4744   0.360   4.907   0.445
 1485SOL    HW2 4745   0.371   4.744   0.441
 1486SOL     OW 4746   0.566   4.261   0.865
 1486SOL    HW1 4747   0.578   4.327   0.791
 1486SOL    HW2 4748   0.612   4.295   0.948
 1487SOL     OW 4749   1.252   5.072   0.388
 1487SOL    HW1 4750   1.302   5.149   0.428
 1487SOL    HW2 4751   1.157   5.074   0.420
 1488SOL     OW 4752   1.272   5.169   1.142
 1488SOL    HW1 4753   1.319   5.182   1.229
 1488SOL    HW2 4754   1.206   5.095   1.151
 1489SOL     OW 4755   1.582   4.363   0.472
 1489SOL    HW1 4756   1.551   4.424   0.545
 1489SOL    HW2 4757   1.632   4.415   0.403
 1490SOL     OW 4758   0.354   5.234   1.329
 1490SOL    HW1 4759   0.333   5.190   1.242
 1490SOL    HW2 4760   0.451   5.260   1.332
 1491SOL     OW 4761   0.402   4.475   1.598
 1491SOL    HW1 4762   0.470   4.530   1.551
 1491SOL    HW2 4763   0.442   4.387   1.625
 1492SOL     OW 4764   1.587   4.503   1.670
 1492SOL    HW1 4765   1.495   4.541   1.665
 1492SOL    HW2 4766   1.647   4.550   1.605
 1493SOL     OW 4767   1.013   3.829   1.770
 1493SOL    HW1 4768   1.019   3.914   1.718
 1493SOL    HW2 4769   1.045   3.753   1.713
 1494SOL     OW 4770   0.504   3.774   1.740
 1494SOL    HW1 4771   0.462   3.717   1.670
 1494SOL    HW2 4772   0.438   3.843   1.772
 1495SOL     OW 4773   0.573   4.594   1.029
 1495SOL    HW1 4774   0.617   4.683   1.020
 1495SOL    HW2 4775   0.510   4.594   1.106
 1496SOL     OW 4776   1.360   4.586   1.045
 1496SOL    HW1 4777   1.285   4.586   0.979
 1496SOL    HW2 4778   1.397   4.494   1.054
 1497SOL     OW 4779   1.209   4.249   0.275
 1497SOL    HW1 4780   1.222   4.165   0.329
 1497SOL    HW2 4781   1.180   4.323   0.335
 1498SOL     OW 4782   0.307   3.937   1.231
 1498SOL    HW1 4783   0.284   3.974   1.321
 1498SOL    HW2 4784   0.277   3.842   1.225
 1499SOL     OW 4785   0.037   5.034   1.282
 1499SOL    HW1 4786   0.090   4.985   1.350
 1499SOL    HW2 4787   0.059   5.132   1.287
 1500SOL     OW 4788   0.732   4.358   1.064
 1500SOL    HW1 4789   0.791   4.332   0.988
 1500SOL    HW2 4790   0.704   4.454   1.053
 1501SOL     OW 4791   1.728   4.659   1.854
 1501SOL    HW1 4792   1.682   4.652   1.765
 1501SOL    HW2 4793   1.666   4.703   1.920
 1502SOL     OW 4794   0.307   3.787   0.618
 1502SOL    HW1 4795   0.296   3.881   0.651
 1502SOL    HW2 4796   0.302   3.724   0.695
 1503SOL     OW 4797   1.622   4.091   0.374
 1503SOL    HW1 4798   1.624   4.015   0.438
 1503SOL    HW2 4799   1.574   4.168   0.414
 1504SOL     OW 4800   1.023   4.490   0.966
 1504SOL    HW1 4801   1.038   4.511   1.062
 1504SOL    HW2 4802   0.993   4.395   0.957
 1505SOL     OW 4803   0.980   5.297   1.700
 1505SOL    HW1 4804   0.960   5.341   1.612
 1505SOL    HW2 4805   1.019   5.206   1.684
 1506SOL     OW 4806   1.859   5.242   1.605
 1506SOL    HW1 4807   1.873   5.269   1.510
 1506SOL    HW2 4808   1.942   5.264   1.658
 1507SOL     OW 4809   0.350   4.622   1.804
 1507SOL    HW1 4810   0.426   4.666   1.852
 1507SOL    HW2 4811   0.385   4.575   1.722
 1508SOL     OW 4812   1.540   3.998   0.125
 1508SOL    HW1 4813   1.479   3.923   0.148
 1508SOL    HW2 4814   1.562   4.050   0.208
 1509SOL     OW 4815   1.303   4.562   0.042
 1509SOL    HW1 4816   1.337   4.469   0.057
 1509SOL    HW2 4817   1.321   4.589  -0.053
 1510SOL     OW 4818   1.068   5.057   0.849
 1510SOL    HW1 4819   1.075   4.973   0.794
 1510SOL    HW2 4820   1.130   5.126   0.813
 1511SOL     OW 4821   0.319   4.534   0.949
 1511SOL    HW1 4822   0.412   4.570   0.954
 1511SOL    HW2 4823   0.313   4.449   1.001
 1512SOL     OW 4824   0.339   4.233   1.006
 1512SOL    HW1 4825   0.287   4.150   0.989
 1512SOL    HW2 4826   0.416   4.238   0.942
 1513SOL     OW 4827   1.138   4.104   1.678
 1513SOL    HW1 4828   1.093   4.167   1.742
 1513SOL    HW2 4829   1.231   4.135   1.661
 1514SOL     OW 4830   1.160   3.931   1.477
 1514SOL    HW1 4831   1.160   3.995   1.554
 1514SOL    HW2 4832   1.188   3.979   1.394
 1515SOL     OW 4833   0.008   5.050   0.200
 1515SOL    HW1 4834  -0.085   5.071   0.169
 1515SOL    HW2 4835   0.018   4.951   0.213
 1516SOL     OW 4836   0.088   5.525   0.927
 1516SOL    HW1 4837   0.046   5.439   0.900
 1516SOL    HW2 4838   0.182   5.528   0.893
 1517SOL     OW 4839   0.504   5.292   0.910
 1517SOL    HW1 4840   0.570   5.366   0.919
 1517SOL    HW2 4841   0.548   5.213   0.868
 1518SOL     OW 4842   1.002   4.520   1.238
 1518SOL    HW1 4843   1.043   4.488   1.324
 1518SOL    HW2 4844   0.906   4.493   1.235
 1519SOL     OW 4845   0.040   4.268   1.114
 1519SOL    HW1 4846   0.125   4.235   1.073
 1519SOL    HW2 4847   0.053   4.283   1.212
 1520SOL     OW 4848   0.189   4.244   1.722
 1520SOL    HW1 4849   0.248   4.204   1.652
 1520SOL    HW2 4850   0.131   4.315   1.681
 1521SOL     OW 4851   1.369   4.674   1.660
 1521SOL    HW1 4852   1.408   4.763   1.680
 1521SOL    HW2 4853   1.379   4.654   1.563
 1522SOL     OW 4854   0.815   4.296   0.325
 1522SOL    HW1 4855   0.822   4.207   0.279
 1522SOL    HW2 4856   0.721   4.330   0.317
 1523SOL     OW 4857   1.657   4.328   1.206
 1523SOL    HW1 4858   1.619   4.259   1.268
 1523SOL    HW2 4859   1.739   4.292   1.162
 1524SOL     OW 4860   0.252   5.288   1.744
 1524SOL    HW1 4861   0.222   5.345   1.820
 1524SOL    HW2 4862   0.245   5.191   1.770
 1525SOL     OW 4863   0.671   4.188   1.269
 1525SOL    HW1 4864   0.637   4.099   1.239
 1525SOL    HW2 4865   0.697   4.242   1.189
 1526SOL     OW 4866   0.930   5.402   1.465
 1526SOL    HW1 4867   0.906   5.384   1.370
 1526SOL    HW2 4868   0.960   5.496   1.475
 1527SOL     OW 4869   0.473   4.224   0.191
 1527SOL    HW1 4870   0.534   4.304   0.195
 1527SOL    HW2 4871   0.378   4.255   0.198
 1528SOL     OW 4872   0.159   4.861   1.466
 1528SOL    HW1 4873   0.181   4.800   1.542
 1528SOL    HW2 4874   0.169   4.812   1.380
 1529SOL     OW 4875   1.347   4.783   1.234
 1529SOL    HW1 4876   1.371   4.720   1.160
 1529SOL    HW2 4877   1.257   4.823   1.216
 1530SOL     OW 4878   1.302   4.579   0.309
 1530SOL    HW1 4879   1.216   4.548   0.351
 1530SOL    HW2 4880   1.298   4.565   0.210
 1531SOL     OW 4881   1.759   5.471   1.154
 1531SOL    HW1 4882   1.820   5.501   1.081
 1531SOL    HW2 4883   1.721   5.382   1.132
 1532SOL     OW 4884   1.252   5.455   1.128
 1532SOL    HW1 4885   1.336   5.460   1.074
 1532SOL    HW2 4886   1.229   5.359   1.146
 1533SOL     OW 4887   0.083   4.982   1.022
 1533SOL    HW1 4888   0.078   4.981   1.122
 1533SOL    HW2 4889   0.000   4.941   0.984
 1534SOL     OW 4890   0.688   5.386   1.716
 1534SOL    HW1 4891   0.632   5.467   1.725
 1534SOL    HW2 4892   0.740   5.390   1.630
 1535SOL     OW 4893   0.903   3.810   0.133
 1535SOL    HW1 4894   0.954   3.811   0.047
 1535SOL    HW2 4895   0.959   3.768   0.204
 1536SOL     OW 4896   1.726   3.859   0.523
 1536SOL    HW1 4897   1.799   3.842   0.456
 1536SOL    HW2 4898   1.695   3.772   0.561
 1537SOL     OW 4899   1.388   5.297   0.477
 1537SOL    HW1 4900   1.455   5.309   0.403
 1537SOL    HW2 4901   1.348   5.386   0.500
 1538SOL     OW 4902   0.130   5.518   1.851
 1538SOL    HW1 4903   0.089   5.444   1.904
 1538SOL    HW2 4904   0.194   5.569   1.909
 1539SOL     OW 4905   1.280   4.651   0.672
 1539SOL    HW1 4906   1.340   4.570   0.674
 1539SOL    HW2 4907   1.320   4.720   0.612
 1540SOL     OW 4908   0.830   4.997   1.422
 1540SOL    HW1 4909   0.825   5.030   1.517
 1540SOL    HW2 4910   0.744   5.016   1.376
 1541SOL     OW 4911   0.672   5.340   0.154
 1541SOL    HW1 4912   0.681   5.350   0.055
 1541SOL    HW2 4913   0.632   5.251   0.175
 1542SOL     OW 4914   1.650   5.444   1.394
 1542SOL    HW1 4915   1.703   5.454   1.310
 1542SOL    HW2 4916   1.623   5.534   1.428
 1543SOL     OW 4917   1.841   3.899   0.963
 1543SOL    HW1 4918   1.880   3.814   0.927
 1543SOL    HW2 4919   1.743   3.901   0.944
 1544SOL     OW 4920   0.263   4.050   0.720
 1544SOL    HW1 4921   0.184   4.101   0.686
 1544SOL    HW2 4922   0.254   4.035   0.818
 1545SOL     OW 4923   1.194   5.336   0.031
 1545SOL    HW1 4924   1.200   5.243   0.068
 1545SOL    HW2 4925   1.135   5.336  -0.049
 1546SOL     OW 4926   0.822   4.726   1.372
 1546SOL    HW1 4927   0.862   4.725   1.280
 1546SOL    HW2 4928   0.832   4.818   1.412
 1547SOL     OW 4929   0.916   4.634   0.291
 1547SOL    HW1 4930   0.979   4.672   0.223
 1547SOL    HW2 4931   0.956   4.551   0.330
 1548SOL     OW 4932   1.504   5.331   0.044
 1548SOL    HW1 4933   1.412   5.368   0.051
 1548SOL    HW2 4934   1.542   5.351  -0.046
 1549SOL     OW 4935   0.372   5.012   1.490
 1549SOL    HW1 4936   0.359   5.105   1.456
 1549SOL    HW2 4937   0.288   4.960   1.477
 1550SOL     OW 4938   1.614   5.016   1.289
 1550SOL    HW1 4939   1.674   5.019   1.369
 1550SOL    HW2 4940   1.539   5.080   1.302
 1551SOL     OW 4941   1.039   4.822   0.696
 1551SOL    HW1 4942   0.969   4.775   0.750
 1551SOL    HW2 4943   1.098   4.754   0.653
 1552SOL     OW 4944   1.014   3.960   0.971
 1552SOL    HW1 4945   1.006   3.924   0.878
 1552SOL    HW2 4946   1.012   3.884   1.036
 1553SOL     OW 4947   0.590   5.211   0.491
 1553SOL    HW1 4948   0.632   5.153   0.421
 1553SOL    HW2 4949   0.546   5.290   0.447
 1554SOL     OW 4950   1.709   4.109   1.381
 1554SOL    HW1 4951   1.782   4.178   1.385
 1554SOL    HW2 4952   1.737   4.034   1.322
 1555SOL     OW 4953   0.255   5.072   0.290
 1555SOL    HW1 4954   0.159   5.073   0.263
 1555SOL    HW2 4955   0.267   5.125   0.374
 1556SOL     OW 4956   0.105   4.737   1.726
 1556SOL    HW1 4957   0.028   4.704   1.780
 1556SOL    HW2 4958   0.190   4.707   1.768
 1557SOL     OW 4959   0.672   3.927   1.489
 1557SOL    HW1 4960   0.762   3.911   1.449
 1557SOL    HW2 4961   0.680   3.932   1.588
 1558SOL     OW 4962   0.075   4.069   0.033
 1558SOL    HW1 4963  -0.017   4.041   0.004
 1558SOL    HW2 4964   0.106   4.146  -0.023
 1559SOL     OW 4965   1.440   4.580   1.398
 1559SOL    HW1 4966   1.383   4.632   1.335
 1559SOL    HW2 4967   1.536   4.592   1.374
 1560SOL     OW 4968   0.072   3.890   0.318
 1560SOL    HW1 4969   0.055   3.973   0.264
 1560SOL    HW2 4970   0.162   3.853   0.296
 1561SOL     OW 4971   1.183   5.059   0.119
 1561SOL    HW1 4972   1.084   5.048   0.121
 1561SOL    HW2 4973   1.217   5.074   0.212
 1562SOL     OW 4974   0.613   4.566   1.431
 1562SOL    HW1 4975   0.669   4.647   1.414
 1562SOL    HW2 4976   0.672   4.486   1.434
 1563SOL     OW 4977   1.493   5.491   0.959
 1563SOL    HW1 4978   1.526   5.555   0.890
 1563SOL    HW2 4979   1.559   5.485   1.034
 1564SOL     OW 4980   0.716   4.289   1.708
 1564SOL    HW1 4981   0.735   4.354   1.782
 1564SOL    HW2 4982   0.776   4.209   1.717
 1565SOL     OW 4983   1.450   4.944   1.633
 1565SOL    HW1 4984   1.441   4.934   1.732
 1565SOL    HW2 4985   1.546   4.937   1.607
 1566SOL     OW 4986   0.390   5.465   1.560
 1566SOL    HW1 4987   0.299   5.506   1.558
 1566SOL    HW2 4988   0.383   5.371   1.592
 1567SOL     OW 4989   1.674   4.607   1.254
 1567SOL    HW1 4990   1.647   4.518   1.217
 1567SOL    HW2 4991   1.675   4.675   1.181
 1568SOL     OW 4992   1.225   4.049   0.449
 1568SOL    HW1 4993   1.290   3.975   0.438
 1568SOL    HW2 4994   1.245   4.099   0.533
 1569SOL     OW 4995   0.594   4.469   0.652
 1569SOL    HW1 4996   0.644   4.554   0.633
 1569SOL    HW2 4997   0.506   4.471   0.604
 1570SOL     OW 4998   1.777   4.066   1.642
 1570SOL    HW1 4999   1.760   4.097   1.548
 1570SOL    HW2 5000   1.693   4.029   1.680
 1571SOL     OW 5001   1.730   4.658   1.517
 1571SOL    HW1 5002   1.768   4.749   1.532
 1571SOL    HW2 5003   1.722   4.641   1.418
 1572SOL     OW 5004   0.859   5.098   0.016
 1572SOL    HW1 5005   0.813   5.113   0.104
 1572SOL    HW2 5006   0.903   5.183  -0.014
 1573SOL     OW 5007   0.661   5.514   0.953
 1573SOL    HW1 5008   0.615   5.602   0.940
 1573SOL    HW2 5009   0.760   5.526   0.946
 1574SOL     OW 5010   0.859   4.680   0.861
 1574SOL    HW1 5011   0.913   4.611   0.909
 1574SOL    HW2 5012   0.827   4.749   0.927
 1575SOL     OW 5013   1.083   4.708   0.087
 1575SOL    HW1 5014   1.060   4.761   0.005
 1575SOL    HW2 5015   1.164   4.652   0.068
 1576SOL     OW 5016   1.861   5.293   0.851
 1576SOL    HW1 5017   1.790   5.281   0.781
 1576SOL    HW2 5018   1.862   5.214   0.911
 1577SOL     OW 5019   0.221   5.038   1.844
 1577SOL    HW1 5020   0.156   4.965   1.823
 1577SOL    HW2 5021   0.225   5.052   1.942
 1578SOL     OW 5022   0.079   4.964   0.653
 1578SOL    HW1 5023   0.078   4.917   0.741
 1578SOL    HW2 5024   0.161   4.936   0.602
 1579SOL     OW 5025   0.672   5.115   1.624
 1579SOL    HW1 5026   0.594   5.065   1.662
 1579SOL    HW2 5027   0.669   5.210   1.655
 1580SOL     OW 5028   1.824   3.916   1.227
 1580SOL    HW1 5029   1.820   3.826   1.271
 1580SOL    HW2 5030   1.827   3.905   1.128
 1581SOL     OW 5031   0.428   4.148   0.520
 1581SOL    HW1 5032   0.458   4.076   0.458
 1581SOL    HW2 5033   0.389   4.108   0.603
 1582SOL     OW 5034   1.705   5.211   1.104
 1582SOL    HW1 5035   1.612   5.186   1.077
 1582SOL    HW2 5036   1.731   5.161   1.186
 1583SOL     OW 5037   0.317   4.271   1.280
 1583SOL    HW1 5038   0.355   4.212   1.352
 1583SOL    HW2 5039   0.357   4.245   1.192
 1584SOL     OW 5040   0.812   5.310   0.687
 1584SOL    HW1 5041   0.844   5.320   0.593
 1584SOL    HW2 5042   0.733   5.248   0.689
 1585SOL     OW 5043   1.424   3.938   1.112
 1585SOL    HW1 5044   1.476   3.873   1.167
 1585SOL    HW2 5045   1.375   4.001   1.173
 1586SOL     OW 5046   1.001   3.758   1.154
 1586SOL    HW1 5047   0.938   3.686   1.123
 1586SOL    HW2 5048   1.094   3.722   1.154
 1587SOL     OW 5049   0.770   5.054   0.301
 1587SOL    HW1 5050   0.724   4.967   0.318
 1587SOL    HW2 5051   0.861   5.051   0.342
 1588SOL     OW 5052   0.618   5.291   1.284
 1588SOL    HW1 5053   0.613   5.373   1.341
 1588SOL    HW2 5054   0.707   5.288   1.239
 1589SOL     OW 5055   1.352   3.776   0.168
 1589SOL    HW1 5056   1.387   3.735   0.084
 1589SOL    HW2 5057   1.262   3.738   0.188
 1590SOL     OW 5058   1.300   4.177   0.691
 1590SOL    HW1 5059   1.241   4.257   0.695
 1590SOL    HW2 5060   1.315   4.142   0.784
 1591SOL     OW 5061   1.593   3.945   0.882
 1591SOL    HW1 5062   1.509   3.944   0.936
 1591SOL    HW2 5063   1.595   4.028   0.826
 1592SOL     OW 5064   0.039   4.801   0.300
 1592SOL    HW1 5065   0.138   4.790   0.291
 1592SOL    HW2 5066  -0.001   4.715   0.332
 1593SOL     OW 5067   0.875   5.370   0.337
 1593SOL    HW1 5068   0.798   5.335   0.283
 1593SOL    HW2 5069   0.843   5.441   0.399
 1594SOL     OW 5070   0.230   4.352   1.975
 1594SOL    HW1 5071   0.137   4.350   2.012
 1594SOL    HW2 5072   0.231   4.313   1.883
 1595SOL     OW 5073   0.225   3.999   2.858
 1595SOL    HW1 5074   0.260   3.982   2.950
 1595SOL    HW2 5075   0.137   3.954   2.846
 1596SOL     OW 5076   0.019   4.092   2.509
 1596SOL    HW1 5077  -0.063   4.135   2.548
 1596SOL    HW2 5078  -0.009   4.019   2.446
 1597SOL     OW 5079   0.569   4.999   3.027
 1597SOL    HW1 5080   0.476   4.992   2.990
 1597SOL    HW2 5081   0.580   5.088   3.071
 1598SOL     OW 5082   1.555   5.235   2.565
 1598SOL    HW1 5083   1.498   5.219   2.646
 1598SOL    HW2 5084   1.496   5.245   2.485
 1599SOL     OW 5085   1.135   4.427   2.579
 1599SOL    HW1 5086   1.192   4.505   2.554
 1599SOL    HW2 5087   1.075   4.453   2.655
 1600SOL     OW 5088   1.755   4.331   2.093
 1600SOL    HW1 5089   1.743   4.318   1.994
 1600SOL    HW2 5090   1.725   4.250   2.142
 1601SOL     OW 5091   0.768   4.868   2.885
 1601SOL    HW1 5092   0.690   4.885   2.945
 1601SOL    HW2 5093   0.802   4.955   2.849
 1602SOL     OW 5094   0.850   4.522   3.685
 1602SOL    HW1 5095   0.846   4.598   3.750
 1602SOL    HW2 5096   0.872   4.558   3.594
 1603SOL     OW 5097   0.685   4.736   2.527
 1603SOL    HW1 5098   0.754   4.720   2.597
 1603SOL    HW2 5099   0.612   4.793   2.565
 1604SOL     OW 5100   0.686   4.885   3.665
 1604SOL    HW1 5101   0.746   4.964   3.679
 1604SOL    HW2 5102   0.600   4.916   3.624
 1605SOL     OW 5103   0.335   5.159   2.923
 1605SOL    HW1 5104   0.257   5.128   2.870
 1605SOL    HW2 5105   0.393   5.217   2.866
 1606SOL     OW 5106   1.460   5.229   3.201
 1606SOL    HW1 5107   1.484   5.323   3.227
 1606SOL    HW2 5108   1.444   5.175   3.283
 1607SOL     OW 5109   0.438   4.116   3.361
 1607SOL    HW1 5110   0.520   4.060   3.370
 1607SOL    HW2 5111   0.357   4.058   3.365
 1608SOL     OW 5112   1.603   4.171   2.599
 1608SOL    HW1 5113   1.529   4.217   2.549
 1608SOL    HW2 5114   1.654   4.239   2.652
 1609SOL     OW 5115   0.231   5.437   2.345
 1609SOL    HW1 5116   0.265   5.514   2.399
 1609SOL    HW2 5117   0.275   5.437   2.255
 1610SOL     OW 5118   1.127   5.065   3.552
 1610SOL    HW1 5119   1.174   5.065   3.640
 1610SOL    HW2 5120   1.079   4.978   3.541
 1611SOL     OW 5121   0.230   5.158   2.400
 1611SOL    HW1 5122   0.204   5.254   2.400
 1611SOL    HW2 5123   0.159   5.104   2.445
 1612SOL     OW 5124   0.240   4.815   2.748
 1612SOL    HW1 5125   0.254   4.731   2.800
 1612SOL    HW2 5126   0.185   4.879   2.803
 1613SOL     OW 5127   0.620   5.510   3.301
 1613SOL    HW1 5128   0.528   5.493   3.336
 1613SOL    HW2 5129   0.648   5.602   3.327
 1614SOL     OW 5130   0.606   4.688   1.985
 1614SOL    HW1 5131   0.613   4.772   1.931
 1614SOL    HW2 5132   0.652   4.701   2.073
 1615SOL     OW 5133   1.594   3.838   3.342
 1615SOL    HW1 5134   1.576   3.905   3.270
 1615SOL    HW2 5135   1.591   3.884   3.431
 1616SOL     OW 5136   0.122   4.367   2.425
 1616SOL    HW1 5137   0.077   4.279   2.442
 1616SOL    HW2 5138   0.121   4.421   2.509
 1617SOL     OW 5139   1.842   5.491   2.221
 1617SOL    HW1 5140   1.896   5.462   2.301
 1617SOL    HW2 5141   1.872   5.581   2.192
 1618SOL     OW 5142   0.027   5.320   1.979
 1618SOL    HW1 5143   0.008   5.224   2.000
 1618SOL    HW2 5144  -0.006   5.378   2.054
 1619SOL     OW 5145   1.689   4.646   2.474
 1619SOL    HW1 5146   1.784   4.617   2.482
 1619SOL    HW2 5147   1.681   4.711   2.399
 1620SOL     OW 5148   1.641   4.832   2.294
 1620SOL    HW1 5149   1.727   4.834   2.242
 1620SOL    HW2 5150   1.655   4.879   2.382
 1621SOL     OW 5151   0.113   4.461   3.459
 1621SOL    HW1 5152   0.201   4.448   3.504
 1621SOL    HW2 5153   0.100   4.558   3.437
 1622SOL     OW 5154   0.613   5.089   2.588
 1622SOL    HW1 5155   0.564   5.002   2.597
 1622SOL    HW2 5156   0.590   5.132   2.501
 1623SOL     OW 5157   1.293   4.952   3.285
 1623SOL    HW1 5158   1.330   4.879   3.227
 1623SOL    HW2 5159   1.345   4.957   3.370
 1624SOL     OW 5160   0.809   3.728   2.364
 1624SOL    HW1 5161   0.849   3.819   2.355
 1624SOL    HW2 5162   0.709   3.736   2.370
 1625SOL     OW 5163   0.197   4.700   3.126
 1625SOL    HW1 5164   0.286   4.655   3.112
 1625SOL    HW2 5165   0.124   4.635   3.107
 1626SOL     OW 5166   1.525   4.723   2.052
 1626SOL    HW1 5167   1.462   4.647   2.065
 1626SOL    HW2 5168   1.573   4.741   2.138
 1627SOL     OW 5169   1.187   5.516   3.478
 1627SOL    HW1 5170   1.211   5.576   3.402
 1627SOL    HW2 5171   1.194   5.421   3.448
 1628SOL     OW 5172   0.317   3.975   3.663
 1628SOL    HW1 5173   0.388   4.046   3.669
 1628SOL    HW2 5174   0.229   4.014   3.691
 1629SOL     OW 5175   1.466   5.141   2.815
 1629SOL    HW1 5176   1.407   5.147   2.895
 1629SOL    HW2 5177   1.451   5.053   2.769
 1630SOL     OW 5178   1.667   5.438   2.434
 1630SOL    HW1 5179   1.626   5.415   2.346
 1630SOL    HW2 5180   1.649   5.364   2.499
 1631SOL     OW 5181   0.598   4.453   2.132
 1631SOL    HW1 5182   0.622   4.522   2.064
 1631SOL    HW2 5183   0.520   4.486   2.186
 1632SOL     OW 5184   1.281   4.069   2.806
 1632SOL    HW1 5185   1.195   4.019   2.793
 1632SOL    HW2 5186   1.343   4.015   2.862
 1633SOL     OW 5187   1.576   5.386   2.169
 1633SOL    HW1 5188   1.665   5.432   2.172
 1633SOL    HW2 5189   1.555   5.362   2.074
 1634SOL     OW 5190   0.807   4.329   3.327
 1634SOL    HW1 5191   0.760   4.326   3.416
 1634SOL    HW2 5192   0.756   4.274   3.261
 1635SOL     OW 5193   1.394   4.193   3.536
 1635SOL    HW1 5194   1.374   4.236   3.624
 1635SOL    HW2 5195   1.472   4.131   3.545
 1636SOL     OW 5196   0.973   4.614   3.434
 1636SOL    HW1 5197   1.019   4.530   3.405
 1636SOL    HW2 5198   0.917   4.648   3.359
 1637SOL     OW 5199   0.991   4.134   3.104
 1637SOL    HW1 5200   0.914   4.168   3.158
 1637SOL    HW2 5201   0.957   4.083   3.025
 1638SOL     OW 5202   1.041   4.425   2.291
 1638SOL    HW1 5203   1.067   4.421   2.387
 1638SOL    HW2 5204   0.956   4.374   2.277
 1639SOL     OW 5205   0.076   4.535   2.651
 1639SOL    HW1 5206   0.175   4.523   2.660
 1639SOL    HW2 5207   0.052   4.630   2.672
 1640SOL     OW 5208   0.130   5.545   3.433
 1640SOL    HW1 5209   0.120   5.530   3.532
 1640SOL    HW2 5210   0.044   5.581   3.397
 1641SOL     OW 5211   0.865   4.072   2.057
 1641SOL    HW1 5212   0.924   4.135   2.008
 1641SOL    HW2 5213   0.884   3.978   2.028
 1642SOL     OW 5214   1.719   4.309   3.693
 1642SOL    HW1 5215   1.693   4.398   3.657
 1642SOL    HW2 5216   1.717   4.241   3.620
 1643SOL     OW 5217   1.362   4.868   2.407
 1643SOL    HW1 5218   1.445   4.839   2.359
 1643SOL    HW2 5219   1.313   4.935   2.351
 1644SOL     OW 5220   0.550   3.920   2.747
 1644SOL    HW1 5221   0.545   3.915   2.847
 1644SOL    HW2 5222   0.552   4.016   2.718
 1645SOL     OW 5223   1.008   5.180   2.339
 1645SOL    HW1 5224   0.962   5.252   2.287
 1645SOL    HW2 5225   1.004   5.200   2.437
 1646SOL     OW 5226   0.351   5.525   2.715
 1646SOL    HW1 5227   0.401   5.439   2.721
 1646SOL    HW2 5228   0.416   5.602   2.712
 1647SOL     OW 5229   1.795   4.790   2.735
 1647SOL    HW1 5230   1.733   4.775   2.659
 1647SOL    HW2 5231   1.743   4.801   2.820
 1648SOL     OW 5232   1.227   5.274   3.368
 1648SOL    HW1 5233   1.233   5.197   3.432
 1648SOL    HW2 5234   1.175   5.248   3.288
 1649SOL     OW 5235   0.321   4.667   2.104
 1649SOL    HW1 5236   0.403   4.706   2.062
 1649SOL    HW2 5237   0.294   4.585   2.055
 1650SOL     OW 5238   1.458   4.459   2.590
 1650SOL    HW1 5239   1.453   4.394   2.665
 1650SOL    HW2 5240   1.538   4.518   2.603
 1651SOL     OW 5241   0.461   4.990   3.589
 1651SOL    HW1 5242   0.411   4.991   3.503
 1651SOL    HW2 5243   0.398   4.972   3.665
 1652SOL     OW 5244   1.111   5.500   2.099
 1652SOL    HW1 5245   1.051   5.438   2.149
 1652SOL    HW2 5246   1.142   5.456   2.014
 1653SOL     OW 5247   0.202   4.009   3.360
 1653SOL    HW1 5248   0.122   4.069   3.347
 1653SOL    HW2 5249   0.192   3.960   3.446
 1654SOL     OW 5250   1.632   5.101   1.943
 1654SOL    HW1 5251   1.600   5.195   1.933
 1654SOL    HW2 5252   1.556   5.038   1.931
 1655SOL     OW 5253   0.464   5.467   2.185
 1655SOL    HW1 5254   0.497   5.506   2.271
 1655SOL    HW2 5255   0.540   5.460   2.120
 1656SOL     OW 5256   1.400   3.831   2.288
 1656SOL    HW1 5257   1.376   3.794   2.198
 1656SOL    HW2 5258   1.499   3.847   2.292
 1657SOL     OW 5259   0.249   5.509   3.103
 1657SOL    HW1 5260   0.306   5.444   3.153
 1657SOL    HW2 5261   0.233   5.476   3.010
 1658SOL     OW 5262   0.940   5.422   2.766
 1658SOL    HW1 5263   1.020   5.365   2.787
 1658SOL    HW2 5264   0.891   5.382   2.689
 1659SOL     OW 5265   0.382   4.424   2.342
 1659SOL    HW1 5266   0.427   4.334   2.339
 1659SOL    HW2 5267   0.288   4.413   2.375
 1660SOL     OW 5268   1.547   3.946   3.591
 1660SOL    HW1 5269   1.542   3.983   3.683
 1660SOL    HW2 5270   1.475   3.877   3.579
 1661SOL     OW 5271   0.614   3.846   1.979
 1661SOL    HW1 5272   0.712   3.824   1.986
 1661SOL    HW2 5273   0.583   3.829   1.886
 1662SOL     OW 5274   0.781   3.988   3.611
 1662SOL    HW1 5275   0.848   3.927   3.654
 1662SOL    HW2 5276   0.708   4.007   3.676
 1663SOL     OW 5277   0.888   5.238   3.057
 1663SOL    HW1 5278   0.865   5.213   2.963
 1663SOL    HW2 5279   0.949   5.169   3.096
 1664SOL     OW 5280   1.351   4.314   3.295
 1664SOL    HW1 5281   1.379   4.271   3.380
 1664SOL    HW2 5282   1.376   4.410   3.296
 1665SOL     OW 5283   0.803   5.126   2.786
 1665SOL    HW1 5284   0.893   5.140   2.744
 1665SOL    HW2 5285   0.732   5.128   2.715
 1666SOL     OW 5286   0.922   4.227   2.761
 1666SOL    HW1 5287   0.897   4.218   2.665
 1666SOL    HW2 5288   0.970   4.145   2.792
 1667SOL     OW 5289   0.539   3.788   2.374
 1667SOL    HW1 5290   0.458   3.789   2.432
 1667SOL    HW2 5291   0.542   3.871   2.319
 1668SOL     OW 5292   1.434   4.912   1.903
 1668SOL    HW1 5293   1.466   4.836   1.960
 1668SOL    HW2 5294   1.342   4.939   1.933
 1669SOL     OW 5295   0.297   3.759   2.033
 1669SOL    HW1 5296   0.346   3.843   2.012
 1669SOL    HW2 5297   0.359   3.694   2.078
 1670SOL     OW 5298   0.935   3.960   2.342
 1670SOL    HW1 5299   0.887   4.001   2.264
 1670SOL    HW2 5300   1.034   3.958   2.323
 1671SOL     OW 5301   1.076   4.407   3.326
 1671SOL    HW1 5302   0.996   4.346   3.329
 1671SOL    HW2 5303   1.157   4.354   3.302
 1672SOL     OW 5304   1.227   5.294   2.655
 1672SOL    HW1 5305   1.248   5.368   2.590
 1672SOL    HW2 5306   1.295   5.294   2.728
 1673SOL     OW 5307   0.459   4.876   2.603
 1673SOL    HW1 5308   0.388   4.849   2.668
 1673SOL    HW2 5309   0.433   4.848   2.510
 1674SOL     OW 5310   1.271   5.521   2.453
 1674SOL    HW1 5311   1.315   5.585   2.389
 1674SOL    HW2 5312   1.221   5.573   2.523
 1675SOL     OW 5313   1.032   4.273   1.878
 1675SOL    HW1 5314   0.991   4.355   1.839
 1675SOL    HW2 5315   1.096   4.299   1.951
 1676SOL     OW 5316   0.078   4.280   3.248
 1676SOL    HW1 5317   0.170   4.279   3.207
 1676SOL    HW2 5318   0.072   4.354   3.315
 1677SOL     OW 5319   0.561   3.946   3.009
 1677SOL    HW1 5320   0.599   3.862   3.046
 1677SOL    HW2 5321   0.473   3.965   3.053
 1678SOL     OW 5322   0.866   4.178   2.504
 1678SOL    HW1 5323   0.834   4.250   2.442
 1678SOL    HW2 5324   0.890   4.097   2.451
 1679SOL     OW 5325   1.017   3.763   2.615
 1679SOL    HW1 5326   0.945   3.768   2.546
 1679SOL    HW2 5327   0.993   3.694   2.684
 1680SOL     OW 5328   1.429   4.897   2.729
 1680SOL    HW1 5329   1.374   4.813   2.722
 1680SOL    HW2 5330   1.455   4.926   2.637
 1681SOL     OW 5331   1.466   4.314   2.854
 1681SOL    HW1 5332   1.436   4.219   2.861
 1681SOL    HW2 5333   1.539   4.330   2.920
 1682SOL     OW 5334   1.857   4.557   2.239
 1682SOL    HW1 5335   1.899   4.493   2.303
 1682SOL    HW2 5336   1.819   4.506   2.161
 1683SOL     OW 5337   0.488   5.109   2.036
 1683SOL    HW1 5338   0.401   5.094   2.083
 1683SOL    HW2 5339   0.471   5.135   1.941
 1684SOL     OW 5340   1.664   5.004   2.519
 1684SOL    HW1 5341   1.763   5.012   2.533
 1684SOL    HW2 5342   1.619   5.088   2.550
 1685SOL     OW 5343   1.390   4.299   1.940
 1685SOL    HW1 5344   1.336   4.278   2.021
 1685SOL    HW2 5345   1.481   4.258   1.949
 1686SOL     OW 5346   0.527   3.980   2.190
 1686SOL    HW1 5347   0.554   3.921   2.115
 1686SOL    HW2 5348   0.527   4.075   2.159
 1687SOL     OW 5349   1.754   4.947   3.450
 1687SOL    HW1 5350   1.845   4.908   3.437
 1687SOL    HW2 5351   1.762   5.043   3.474
 1688SOL     OW 5352   1.064   5.071   3.202
 1688SOL    HW1 5353   0.984   5.048   3.257
 1688SOL    HW2 5354   1.147   5.045   3.251
 1689SOL     OW 5355   1.592   5.353   3.487
 1689SOL    HW1 5356   1.619   5.387   3.397
 1689SOL    HW2 5357   1.671   5.315   3.533
 1690SOL     OW 5358   1.111   4.919   2.962
 1690SOL    HW1 5359   1.071   4.963   3.043
 1690SOL    HW2 5360   1.070   4.956   2.879
 1691SOL     OW 5361   1.638   4.823   2.941
 1691SOL    HW1 5362   1.643   4.904   3.000
 1691SOL    HW2 5363   1.552   4.825   2.890
 1692SOL     OW 5364   0.915   3.813   3.264
 1692SOL    HW1 5365   0.940   3.793   3.169
 1692SOL    HW2 5366   0.987   3.869   3.306
 1693SOL     OW 5367   0.980   4.840   3.581
 1693SOL    HW1 5368   0.881   4.846   3.591
 1693SOL    HW2 5369   1.003   4.760   3.525
 1694SOL     OW 5370   0.705   4.774   2.230
 1694SOL    HW1 5371   0.691   4.781   2.329
 1694SOL    HW2 5372   0.789   4.723   2.212
 1695SOL     OW 5373   0.410   4.537   3.113
 1695SOL    HW1 5374   0.496   4.549   3.163
 1695SOL    HW2 5375   0.368   4.450   3.140
 1696SOL     OW 5376   1.274   4.110   3.124
 1696SOL    HW1 5377   1.295   4.184   3.188
 1696SOL    HW2 5378   1.185   4.127   3.081
 1697SOL     OW 5379   0.064   5.288   3.193
 1697SOL    HW1 5380   0.018   5.370   3.159
 1697SOL    HW2 5381   0.162   5.307   3.202
 1698SOL     OW 5382   0.367   4.824   2.363
 1698SOL    HW1 5383   0.360   4.907   2.307
 1698SOL    HW2 5384   0.371   4.744   2.303
 1699SOL     OW 5385   0.566   4.261   2.727
 1699SOL    HW1 5386   0.578   4.327   2.653
 1699SOL    HW2 5387   0.612   4.295   2.810
 1700SOL     OW 5388   1.252   5.072   2.250
 1700SOL    HW1 5389   1.302   5.149   2.290
 1700SOL    HW2 5390   1.157   5.074   2.282
 1701SOL     OW 5391   1.272   5.169   3.004
 1701SOL    HW1 5392   1.319   5.182   3.091
 1701SOL    HW2 5393   1.206   5.095   3.013
 1702SOL     OW 5394   1.582   4.363   2.334
 1702SOL    HW1 5395   1.551   4.424   2.407
 1702SOL    HW2 5396   1.632   4.415   2.265
 1703SOL     OW 5397   0.354   5.234   3.191
 1703SOL    HW1 5398   0.333   5.190   3.104
 1703SOL    HW2 5399   0.451   5.260   3.194
 1704SOL     OW 5400   0.402   4.475   3.460
 1704SOL    HW1 5401   0.470   4.530   3.413
 1704SOL    HW2 5402   0.442   4.387   3.487
 1705SOL     OW 5403   1.587   4.503   3.532
 1705SOL    HW1 5404   1.495   4.541   3.527
 1705SOL    HW2 5405   1.647   4.550   3.467
 1706SOL     OW 5406   1.013   3.829   3.632
 1706SOL    HW1 5407   1.019   3.914   3.580
 1706SOL    HW2 5408   1.045   3.753   3.575
 1707SOL     OW 5409   0.504   3.774   3.602
 1707SOL    HW1 5410   0.462   3.717   3.532
 1707SOL    HW2 5411   0.438   3.843   3.634
 1708SOL     OW 5412   0.573   4.594   2.891
 1708SOL    HW1 5413   0.617   4.683   2.882
 1708SOL    HW2 5414   0.510   4.594   2.968
 1709SOL     OW 5415   1.360   4.586   2.907
 1709SOL    HW1 5416   1.285   4.586   2.841
 1709SOL    HW2 5417   1.397   4.494   2.916
 1710SOL     OW 5418   1.209   4.249   2.137
 1710SOL    HW1 5419   1.222   4.165   2.191
 1710SOL    HW2 5420   1.180   4.323   2.197
 1711SOL     OW 5421   0.307   3.937   3.093
 1711SOL    HW1 5422   0.284   3.974   3.183
 1711SOL    HW2 5423   0.277   3.842   3.087
 1712SOL     OW 5424   0.037   5.034   3.144
 1712SOL    HW1 5425   0.090   4.985   3.212
 1712SOL    HW2 5426   0.059   5.132   3.149
 1713SOL     OW 5427   0.732   4.358   2.926
 1713SOL    HW1 5428   0.791   4.332   2.850
 1713SOL    HW2 5429   0.704   4.454   2.915
 1714SOL     OW 5430   1.728   4.659   3.716
 1714SOL    HW1 5431   1.682   4.652   3.627
 1714SOL    HW2 5432   1.666   4.703   3.782
 1715SOL     OW 5433   0.307   3.787   2.480
 1715SOL    HW1 5434   0.296   3.881   2.513
 1715SOL    HW2 5435   0.302   3.724   2.557
 1716SOL     OW 5436   1.622   4.091   2.236
 1716SOL    HW1 5437   1.624   4.015   2.300
 1716SOL    HW2 5438   1.574   4.168   2.276
 1717SOL     OW 5439   1.023   4.490   2.828
 1717SOL    HW1 5440   1.038   4.511   2.924
 1717SOL    HW2 5441   0.993   4.395   2.819
 1718SOL     OW 5442   0.980   5.297   3.562
 1718SOL    HW1 5443   0.960   5.341   3.474
 1718SOL    HW2 5444   1.019   5.206   3.546
 1719SOL     OW 5445   1.859   5.242   3.467
 1719SOL    HW1 5446   1.873   5.269   3.372
 1719SOL    HW2 5447   1.942   5.264   3.520
 1720SOL     OW 5448   0.350   4.622   3.666
 1720SOL    HW1 5449   0.426   4.666   3.714
 1720SOL    HW2 5450   0.385   4.575   3.584
 1721SOL     OW 5451   1.540   3.998   1.987
 1721SOL    HW1 5452   1.479   3.923   2.010
 1721SOL    HW2 5453   1.562   4.050   2.070
 1722SOL     OW 5454   1.303   4.562   1.904
 1722SOL    HW1 5455   1.337   4.469   1.919
 1722SOL    HW2 5456   1.321   4.589   1.809
 1723SOL     OW 5457   1.068   5.057   2.711
 1723SOL    HW1 5458   1.075   4.973   2.656
 1723SOL    HW2 5459   1.130   5.126   2.675
 1724SOL     OW 5460   0.319   4.534   2.811
 1724SOL    HW1 5461   0.412   4.570   2.816
 1724SOL    HW2 5462   0.313   4.449   2.863
 1725SOL     OW 5463   0.339   4.233   2.868
 1725SOL    HW1 5464   0.287   4.150   2.851
 1725SOL    HW2 5465   0.416   4.238   2.804
 1726SOL     OW 5466   1.138   4.104   3.540
 1726SOL    HW1 5467   1.093   4.167   3.604
 1726SOL    HW2 5468   1.231   4.135   3.523
 1727SOL     OW 5469   1.160   3.931   3.339
 1727SOL    HW1 5470   1.160   3.995   3.416
 1727SOL    HW2 5471   1.188   3.979   3.256
 1728SOL     OW 5472   0.008   5.050   2.062
 1728SOL    HW1 5473  -0.085   5.071   2.031
 1728SOL    HW2 5474   0.018   4.951   2.075
 1729SOL     OW 5475   0.088   5.525   2.789
 1729SOL    HW1 5476   0.046   5.439   2.762
 1729SOL    HW2 5477   0.182   5.528   2.755
 1730SOL     OW 5478   0.504   5.292   2.772
 1730SOL    HW1 5479   0.570   5.366   2.781
 1730SOL    HW2 5480   0.548   5.213   2.730
 1731SOL     OW 5481   1.002   4.520   3.100
 1731SOL    HW1 5482   1.043   4.488   3.186
 1731SOL    HW2 5483   0.906   4.493   3.097
 1732SOL     OW 5484   0.040   4.268   2.976
 1732SOL    HW1 5485   0.125   4.235   2.935
 1732SOL    HW2 5486   0.053   4.283   3.074
 1733SOL     OW 5487   0.189   4.244   3.584
 1733SOL    HW1 5488   0.248   4.204   3.514
 1733SOL    HW2 5489   0.131   4.315   3.543
 1734SOL     OW 5490   1.369   4.674   3.522
 1734SOL    HW1 5491   1.408   4.763   3.542
 1734SOL    HW2 5492   1.379   4.654   3.425
 1735SOL     OW 5493   0.815   4.296   2.187
 1735SOL    HW1 5494   0.822   4.207   2.141
 1735SOL    HW2 5495   0.721   4.330   2.179
 1736SOL     OW 5496   1.657   4.328   3.068
 1736SOL    HW1 5497   1.619   4.259   3.130
 1736SOL    HW2 5498   1.739   4.292   3.024
 1737SOL     OW 5499   0.252   5.288   3.606
 1737SOL    HW1 5500   0.222   5.345   3.682
 1737SOL    HW2 5501   0.245   5.191   3.632
 1738SOL     OW 5502   0.671   4.188   3.131
 1738SOL    HW1 5503   0.637   4.099   3.101
 1738SOL    HW2 5504   0.697   4.242   3.051
 1739SOL     OW 5505   0.930   5.402   3.327
 1739SOL    HW1 5506   0.906   5.384   3.232
 1739SOL    HW2 5507   0.960   5.496   3.337
 1740SOL     OW 5508   0.473   4.224   2.053
 1740SOL    HW1 5509   0.534   4.304   2.057
 1740SOL    HW2 5510   0.378   4.255   2.060
 1741SOL     OW 5511   0.159   4.861   3.328
 1741SOL    HW1 5512   0.181   4.800   3.404
 1741SOL    HW2 5513   0.169   4.812   3.242
 1742SOL     OW 5514   1.347   4.783   3.096
 1742SOL    HW1 5515   1.371   4.720   3.022
 1742SOL    HW2 5516   1.257   4.823   3.078
 1743SOL     OW 5517   1.302   4.579   2.171
 1743SOL    HW1 5518   1.216   4.548   2.213
 1743SOL    HW2 5519   1.298   4.565   2.072
 1744SOL     OW 5520   1.759   5.471   3.016
 1744SOL    HW1 5521   1.820   5.501   2.943
 1744SOL    HW2 5522   1.721   5.382   2.994
 1745SOL     OW 5523   1.252   5.455   2.990
 1745SOL    HW1 5524   1.336   5.460   2.936
 1745SOL    HW2 5525   1.229   5.359   3.008
 1746SOL     OW 5526   0.083   4.982   2.884
 1746SOL    HW1 5527   0.078   4.981   2.984
 1746SOL    HW2 5528   0.000   4.941   2.846
 1747SOL     OW 5529   0.688   5.386   3.578
 1747SOL    HW1 5530   0.632   5.467   3.587
 1747SOL    HW2 5531   0.740   5.390   3.492
 1748SOL     OW 5532   1.726   3.859   2.385
 1748SOL    HW1 5533   1.799   3.842   2.318
 1748SOL    HW2 5534   1.695   3.772   2.423
 1749SOL     OW 5535   1.388   5.297   2.339
 1749SOL    HW1 5536   1.455   5.309   2.265
 1749SOL    HW2 5537   1.348   5.386   2.362
 1750SOL     OW 5538   0.130   5.518   3.713
 1750SOL    HW1 5539   0.089   5.444   3.766
 1750SOL    HW2 5540   0.194   5.569   3.771
 1751SOL     OW 5541   1.280   4.651   2.534
 1751SOL    HW1 5542   1.340   4.570   2.536
 1751SOL    HW2 5543   1.320   4.720   2.474
 1752SOL     OW 5544   0.830   4.997   3.284
 1752SOL    HW1 5545   0.825   5.030   3.379
 1752SOL    HW2 5546   0.744   5.016   3.238
 1753SOL     OW 5547   0.672   5.340   2.016
 1753SOL    HW1 5548   0.681   5.350   1.917
 1753SOL    HW2 5549   0.632   5.251   2.037
 1754SOL     OW 5550   1.650   5.444   3.256
 1754SOL    HW1 5551   1.703   5.454   3.172
 1754SOL    HW2 5552   1.623   5.534   3.290
 1755SOL     OW 5553   1.841   3.899   2.825
 1755SOL    HW1 5554   1.880   3.814   2.789
 1755SOL    HW2 5555   1.743   3.901   2.806
 1756SOL     OW 5556   0.263   4.050   2.582
 1756SOL    HW1 5557   0.184   4.101   2.548
 1756SOL    HW2 5558   0.254   4.035   2.680
 1757SOL     OW 5559   1.194   5.336   1.893
 1757SOL    HW1 5560   1.200   5.243   1.930
 1757SOL    HW2 5561   1.135   5.336   1.813
 1758SOL     OW 5562   0.822   4.726   3.234
 1758SOL    HW1 5563   0.862   4.725   3.142
 1758SOL    HW2 5564   0.832   4.818   3.274
 1759SOL     OW 5565   0.916   4.634   2.153
 1759SOL    HW1 5566   0.979   4.672   2.085
 1759SOL    HW2 5567   0.956   4.551   2.192
 1760SOL     OW 5568   1.504   5.331   1.906
 1760SOL    HW1 5569   1.412   5.368   1.913
 1760SOL    HW2 5570   1.542   5.351   1.816
 1761SOL     OW 5571   0.372   5.012   3.352
 1761SOL    HW1 5572   0.359   5.105   3.318
 1761SOL    HW2 5573   0.288   4.960   3.339
 1762SOL     OW 5574   1.614   5.016   3.151
 1762SOL    HW1 5575   1.674   5.019   3.231
 1762SOL    HW2 5576   1.539   5.080   3.164
 1763SOL     OW 5577   1.039   4.822   2.558
 1763SOL    HW1 5578   0.969   4.775   2.612
 1763SOL    HW2 5579   1.098   4.754   2.515
 1764SOL     OW 5580   1.014   3.960   2.833
 1764SOL    HW1 5581   1.006   3.924   2.740
 1764SOL    HW2 5582   1.012   3.884   2.898
 1765SOL     OW 5583   0.590   5.211   2.353
 1765SOL    HW1 5584   0.632   5.153   2.283
 1765SOL    HW2 5585   0.546   5.290   2.309
 1766SOL     OW 5586   1.709   4.109   3.243
 1766SOL    HW1 5587   1.782   4.178   3.247
 1766SOL    HW2 5588   1.737   4.034   3.184
 1767SOL     OW 5589   0.255   5.072   2.152
 1767SOL    HW1 5590   0.159   5.073   2.125
 1767SOL    HW2 5591   0.267   5.125   2.236
 1768SOL     OW 5592   0.105   4.737   3.588
 1768SOL    HW1 5593   0.028   4.704   3.642
 1768SOL    HW2 5594   0.190   4.707   3.630
 1769SOL     OW 5595   0.672   3.927   3.351
 1769SOL    HW1 5596   0.762   3.911   3.311
 1769SOL    HW2 5597   0.680   3.932   3.450
 1770SOL     OW 5598   0.075   4.069   1.895
 1770SOL    HW1 5599  -0.017   4.041   1.866
 1770SOL    HW2 5600   0.106   4.146   1.839
 1771SOL     OW 5601   1.440   4.580   3.260
 1771SOL    HW1 5602   1.383   4.632   3.197
 1771SOL    HW2 5603   1.536   4.592   3.236
 1772SOL     OW 5604   0.072   3.890   2.180
 1772SOL    HW1 5605   0.055   3.973   2.126
 1772SOL    HW2 5606   0.162   3.853   2.158
 1773SOL     OW 5607   1.183   5.059   1.981
 1773SOL    HW1 5608   1.084   5.048   1.983
 1773SOL    HW2 5609   1.217   5.074   2.074
 1774SOL     OW 5610   0.613   4.566   3.293
 1774SOL    HW1 5611   0.669   4.647   3.276
 1774SOL    HW2 5612   0.672   4.486   3.296
 1775SOL     OW 5613   1.493   5.491   2.821
 1775SOL    HW1 5614   1.526   5.555   2.752
 1775SOL    HW2 5615   1.559   5.485   2.896
 1776SOL     OW 5616   0.716   4.289   3.570
 1776SOL    HW1 5617   0.735   4.354   3.644
 1776SOL    HW2 5618   0.776   4.209   3.579
 1777SOL     OW 5619   1.450   4.944   3.495
 1777SOL    HW1 5620   1.441   4.934   3.594
 1777SOL    HW2 5621   1.546   4.937   3.469
 1778SOL     OW 5622   0.390   5.465   3.422
 1778SOL    HW1 5623   0.299   5.506   3.420
 1778SOL    HW2 5624   0.383   5.371   3.454
 1779SOL     OW 5625   1.674   4.607   3.116
 1779SOL    HW1 5626   1.647   4.518   3.079
 1779SOL    HW2 5627   1.675   4.675   3.043
 1780SOL     OW 5628   1.225   4.049   2.311
 1780SOL    HW1 5629   1.290   3.975   2.300
 1780SOL    HW2 5630   1.245   4.099   2.395
 1781SOL     OW 5631   0.594   4.469   2.514
 1781SOL    HW1 5632   0.644   4.554   2.495
 1781SOL    HW2 5633   0.506   4.471   2.466
 1782SOL     OW 5634   1.777   4.066   3.504
 1782SOL    HW1 5635   1.760   4.097   3.410
 1782SOL    HW2 5636   1.693   4.029   3.542
 1783SOL     OW 5637   1.730   4.658   3.379
 1783SOL    HW1 5638   1.768   4.749   3.394
 1783SOL    HW2 5639   1.722   4.641   3.280
 1784SOL     OW 5640   0.859   5.098   1.878
 1784SOL    HW1 5641   0.813   5.113   1.966
 1784SOL    HW2 5642   0.903   5.183   1.848
 1785SOL     OW 5643   0.661   5.514   2.815
 1785SOL    HW1 5644   0.615   5.602   2.802
 1785SOL    HW2 5645   0.760   5.526   2.808
 1786SOL     OW 5646   0.859   4.680   2.723
 1786SOL    HW1 5647   0.913   4.611   2.771
 1786SOL    HW2 5648   0.827   4.749   2.789
 1787SOL     OW 5649   1.083   4.708   1.949
 1787SOL    HW1 5650   1.060   4.761   1.867
 1787SOL    HW2 5651   1.164   4.652   1.930
 1788SOL     OW 5652   1.861   5.293   2.713
 1788SOL    HW1 5653   1.790   5.281   2.643
 1788SOL    HW2 5654   1.862   5.214   2.773
 1789SOL     OW 5655   0.221   5.038   3.706
 1789SOL    HW1 5656   0.156   4.965   3.685
 1789SOL    HW2 5657   0.225   5.052   3.804
 1790SOL     OW 5658   0.079   4.964   2.515
 1790SOL    HW1 5659   0.078   4.917   2.603
 1790SOL    HW2 5660   0.161   4.936   2.464
 1791SOL     OW 5661   0.672   5.115   3.486
 1791SOL    HW1 5662   0.594   5.065   3.524
 1791SOL    HW2 5663   0.669   5.210   3.517
 1792SOL     OW 5664   1.824   3.916   3.089
 1792SOL    HW1 5665   1.820   3.826   3.133
 1792SOL    HW2 5666   1.827   3.905   2.990
 1793SOL     OW 5667   0.428   4.148   2.382
 1793SOL    HW1 5668   0.458   4.076   2.320
 1793SOL    HW2 5669   0.389   4.108   2.465
 1794SOL     OW 5670   1.705   5.211   2.966
 1794SOL    HW1 5671   1.612   5.186   2.939
 1794SOL    HW2 5672   1.731   5.161   3.048
 1795SOL     OW 5673   0.317   4.271   3.142
 1795SOL    HW1 5674   0.355   4.212   3.214
 1795SOL    HW2 5675   0.357   4.245   3.054
 1796SOL     OW 5676   0.812   5.310   2.549
 1796SOL    HW1 5677   0.844   5.320   2.455
 1796SOL    HW2 5678   0.733   5.248   2.551
 1797SOL     OW 5679   1.424   3.938   2.974
 1797SOL    HW1 5680   1.476   3.873   3.029
 1797SOL    HW2 5681   1.375   4.001   3.035
 1798SOL     OW 5682   1.001   3.758   3.016
 1798SOL    HW1 5683   0.938   3.686   2.985
 1798SOL    HW2 5684   1.094   3.722   3.016
 1799SOL     OW 5685   0.770   5.054   2.163
 1799SOL    HW1 5686   0.724   4.967   2.180
 1799SOL    HW2 5687   0.861   5.051   2.204
 1800SOL     OW 5688   0.618   5.291   3.146
 1800SOL    HW1 5689   0.613   5.373   3.203
 1800SOL    HW2 5690   0.707   5.288   3.101
 1801SOL     OW 5691   1.352   3.776   2.030
 1801SOL    HW1 5692   1.387   3.735   1.946
 1801SOL    HW2 5693   1.262   3.738   2.050
 1802SOL     OW 5694   1.300   4.177   2.553
 1802SOL    HW1 5695   1.241   4.257   2.557
 1802SOL    HW2 5696   1.315   4.142   2.646
 1803SOL     OW 5697   1.593   3.945   2.744
 1803SOL    HW1 5698   1.509   3.944   2.798
 1803SOL    HW2 5699   1.595   4.028   2.688
 1804SOL     OW 5700   0.039   4.801   2.162
 1804SOL    HW1 5701   0.138   4.790   2.153
 1804SOL    HW2 5702  -0.001   4.715   2.194
 1805SOL     OW 5703   0.875   5.370   2.199
 1805SOL    HW1 5704   0.798   5.335   2.145
 1805SOL    HW2 5705   0.843   5.441   2.261
 1806SOL     OW 5706   0.230   4.352   3.837
 1806SOL    HW1 5707   0.137   4.350   3.874
 1806SOL    HW2 5708   0.231   4.313   3.745
 1807SOL     OW 5709   0.225   3.999   4.720
 1807SOL    HW1 5710   0.260   3.982   4.812
 1807SOL    HW2 5711   0.137   3.954   4.708
 1808SOL     OW 5712   0.019   4.092   4.371
 1808SOL    HW1 5713  -0.063   4.135   4.410
 1808SOL    HW2 5714  -0.009   4.019   4.308
 1809SOL     OW 5715   0.569   4.999   4.889
 1809SOL    HW1 5716   0.476   4.992   4.852
 1809SOL    HW2 5717   0.580   5.088   4.933
 1810SOL     OW 5718   1.555   5.235   4.427
 1810SOL    HW1 5719   1.498   5.219   4.508
 1810SOL    HW2 5720   1.496   5.245   4.347
 1811SOL     OW 5721   1.135   4.427   4.441
 1811SOL    HW1 5722   1.192   4.505   4.416
 1811SOL    HW2 5723   1.075   4.453   4.517
 1812SOL     OW 5724   1.755   4.331   3.955
 1812SOL    HW1 5725   1.743   4.318   3.856
 1812SOL    HW2 5726   1.725   4.250   4.004
 1813SOL     OW 5727   0.768   4.868   4.747
 1813SOL    HW1 5728   0.690   4.885   4.807
 1813SOL    HW2 5729   0.802   4.955   4.711
 1814SOL     OW 5730   0.850   4.522   5.547
 1814SOL    HW1 5731   0.846   4.598   5.612
 1814SOL    HW2 5732   0.872   4.558   5.456
 1815SOL     OW 5733   0.685   4.736   4.389
 1815SOL    HW1 5734   0.754   4.720   4.459
 1815SOL    HW2 5735   0.612   4.793   4.427
 1816SOL     OW 5736   0.686   4.885   5.527
 1816SOL    HW1 5737   0.746   4.964   5.541
 1816SOL    HW2 5738   0.600   4.916   5.486
 1817SOL     OW 5739   0.335   5.159   4.785
 1817SOL    HW1 5740   0.257   5.128   4.732
 1817SOL    HW2 5741   0.393   5.217   4.728
 1818SOL     OW 5742   1.460   5.229   5.063
 1818SOL    HW1 5743   1.484   5.323   5.089
 1818SOL    HW2 5744   1.444   5.175   5.145
 1819SOL     OW 5745   0.438   4.116   5.223
 1819SOL    HW1 5746   0.520   4.060   5.232
 1819SOL    HW2 5747   0.357   4.058   5.227
 1820SOL     OW 5748   1.603   4.171   4.461
 1820SOL    HW1 5749   1.529   4.217   4.411
 1820SOL    HW2 5750   1.654   4.239   4.514
 1821SOL     OW 5751   0.231   5.437   4.207
 1821SOL    HW1 5752   0.265   5.514   4.261
 1821SOL    HW2 5753   0.275   5.437   4.117
 1822SOL     OW 5754   1.127   5.065   5.414
 1822SOL    HW1 5755   1.174   5.065   5.502
 1822SOL    HW2 5756   1.079   4.978   5.403
 1823SOL     OW 5757   0.230   5.158   4.262
 1823SOL    HW1 5758   0.204   5.254   4.262
 1823SOL    HW2 5759   0.159   5.104   4.307
 1824SOL     OW 5760   0.240   4.815   4.610
 1824SOL    HW1 5761   0.254   4.731   4.662
 1824SOL    HW2 5762   0.185   4.879   4.665
 1825SOL     OW 5763   0.620   5.510   5.163
 1825SOL    HW1 5764   0.528   5.493   5.198
 1825SOL    HW2 5765   0.648   5.602   5.189
 1826SOL     OW 5766   0.606   4.688   3.847
 1826SOL    HW1 5767   0.613   4.772   3.793
 1826SOL    HW2 5768   0.652   4.701   3.935
 1827SOL     OW 5769   1.594   3.838   5.204
 1827SOL    HW1 5770   1.576   3.905   5.132
 1827SOL    HW2 5771   1.591   3.884   5.293
 1828SOL     OW 5772   0.122   4.367   4.287
 1828SOL    HW1 5773   0.077   4.279   4.304
 1828SOL    HW2 5774   0.121   4.421   4.371
 1829SOL     OW 5775   1.842   5.491   4.083
 1829SOL    HW1 5776   1.896   5.462   4.163
 1829SOL    HW2 5777   1.872   5.581   4.054
 1830SOL     OW 5778   0.027   5.320   3.841
 1830SOL    HW1 5779   0.008   5.224   3.862
 1830SOL    HW2 5780  -0.006   5.378   3.916
 1831SOL     OW 5781   1.689   4.646   4.336
 1831SOL    HW1 5782   1.784   4.617   4.344
 1831SOL    HW2 5783   1.681   4.711   4.261
 1832SOL     OW 5784   1.641   4.832   4.156
 1832SOL    HW1 5785   1.727   4.834   4.104
 1832SOL    HW2 5786   1.655   4.879   4.244
 1833SOL     OW 5787   0.113   4.461   5.321
 1833SOL    HW1 5788   0.201   4.448   5.366
 1833SOL    HW2 5789   0.100   4.558   5.299
 1834SOL     OW 5790   0.613   5.089   4.450
 1834SOL    HW1 5791   0.564   5.002   4.459
 1834SOL    HW2 5792   0.590   5.132   4.363
 1835SOL     OW 5793   1.293   4.952   5.147
 1835SOL    HW1 5794   1.330   4.879   5.089
 1835SOL    HW2 5795   1.345   4.957   5.232
 1836SOL     OW 5796   0.809   3.728   4.226
 1836SOL    HW1 5797   0.849   3.819   4.217
 1836SOL    HW2 5798   0.709   3.736   4.232
 1837SOL     OW 5799   0.197   4.700   4.988
 1837SOL    HW1 5800   0.286   4.655   4.974
 1837SOL    HW2 5801   0.124   4.635   4.969
 1838SOL     OW 5802   1.525   4.723   3.914
 1838SOL    HW1 5803   1.462   4.647   3.927
 1838SOL    HW2 5804   1.573   4.741   4.000
 1839SOL     OW 5805   1.187   5.516   5.340
 1839SOL    HW1 5806   1.211   5.576   5.264
 1839SOL    HW2 5807   1.194   5.421   5.310
 1840SOL     OW 5808   0.317   3.975   5.525
 1840SOL    HW1 5809   0.388   4.046   5.531
 1840SOL    HW2 5810   0.229   4.014   5.553
 1841SOL     OW 5811   1.466   5.141   4.677
 1841SOL    HW1 5812   1.407   5.147   4.757
 1841SOL    HW2 5813   1.451   5.053   4.631
 1842SOL     OW 5814   1.667   5.438   4.296
 1842SOL    HW1 5815   1.626   5.415   4.208
 1842SOL    HW2 5816   1.649   5.364   4.361
 1843SOL     OW 5817   0.598   4.453   3.994
 1843SOL    HW1 5818   0.622   4.522   3.926
 1843SOL    HW2 5819   0.520   4.486   4.048
 1844SOL     OW 5820   1.281   4.069   4.668
 1844SOL    HW1 5821   1.195   4.019   4.655
 1844SOL    HW2 5822   1.343   4.015   4.724
 1845SOL     OW 5823   1.576   5.386   4.031
 1845SOL    HW1 5824   1.665   5.432   4.034
 1845SOL    HW2 5825   1.555   5.362   3.936
 1846SOL     OW 5826   0.807   4.329   5.189
 1846SOL    HW1 5827   0.760   4.326   5.278
 1846SOL    HW2 5828   0.756   4.274   5.123
 1847SOL     OW 5829   1.394   4.193   5.398
 1847SOL    HW1 5830   1.374   4.236   5.486
 1847SOL    HW2 5831   1.472   4.131   5.407
 1848SOL     OW 5832   0.973   4.614   5.296
 1848SOL    HW1 5833   1.019   4.530   5.267
 1848SOL    HW2 5834   0.917   4.648   5.221
 1849SOL     OW 5835   0.991   4.134   4.966
 1849SOL    HW1 5836   0.914   4.168   5.020
 1849SOL    HW2 5837   0.957   4.083   4.887
 1850SOL     OW 5838   1.041   4.425   4.153
 1850SOL    HW1 5839   1.067   4.421   4.249
 1850SOL    HW2 5840   0.956   4.374   4.139
 1851SOL     OW 5841   0.076   4.535   4.513
 1851SOL    HW1 5842   0.175   4.523   4.522
 1851SOL    HW2 5843   0.052   4.630   4.534
 1852SOL     OW 5844   0.130   5.545   5.295
 1852SOL    HW1 5845   0.120   5.530   5.394
 1852SOL    HW2 5846   0.044   5.581   5.259
 1853SOL     OW 5847   0.865   4.072   3.919
 1853SOL    HW1 5848   0.924   4.135   3.870
 1853SOL    HW2 5849   0.884   3.978   3.890
 1854SOL     OW 5850   1.719   4.309   5.555
 1854SOL    HW1 5851   1.693   4.398   5.519
 1854SOL    HW2 5852   1.717   4.241   5.482
 1855SOL     OW 5853   1.362   4.868   4.269
 1855SOL    HW1 5854   1.445   4.839   4.221
 1855SOL    HW2 5855   1.313   4.935   4.213
 1856SOL     OW 5856   0.550   3.920   4.609
 1856SOL    HW1 5857   0.545   3.915   4.709
 1856SOL    HW2 5858   0.552   4.016   4.580
 1857SOL     OW 5859   1.008   5.180   4.201
 1857SOL    HW1 5860   0.962   5.252   4.149
 1857SOL    HW2 5861   1.004   5.200   4.299
 1858SOL     OW 5862   0.351   5.525   4.577
 1858SOL    HW1 5863   0.401   5.439   4.583
 1858SOL    HW2 5864   0.416   5.602   4.574
 1859SOL     OW 5865   1.795   4.790   4.597
 1859SOL    HW1 5866   1.733   4.775   4.521
 1859SOL    HW2 5867   1.743   4.801   4.682
 1860SOL     OW 5868   1.227   5.274   5.230
 1860SOL    HW1 5869   1.233   5.197   5.294
 1860SOL    HW2 5870   1.175   5.248   5.150
 1861SOL     OW 5871   0.321   4.667   3.966
 1861SOL    HW1 5872   0.403   4.706   3.924
 1861SOL    HW2 5873   0.294   4.585   3.917
 1862SOL     OW 5874   1.458   4.459   4.452
 1862SOL    HW1 5875   1.453   4.394   4.527
 1862SOL    HW2 5876   1.538   4.518   4.465
 1863SOL     OW 5877   0.461   4.990   5.451
 1863SOL    HW1 5878   0.411   4.991   5.365
 1863SOL    HW2 5879   0.398   4.972   5.527
 1864SOL     OW 5880   1.111   5.500   3.961
 1864SOL    HW1 5881   1.051   5.438   4.011
 1864SOL    HW2 5882   1.142   5.456   3.876
 1865SOL     OW 5883   0.202   4.009   5.222
 1865SOL    HW1 5884   0.122   4.069   5.209
 1865SOL    HW2 5885   0.192   3.960   5.308
 1866SOL     OW 5886   1.632   5.101   3.805
 1866SOL    HW1 5887   1.600   5.195   3.795
 1866SOL    HW2 5888   1.556   5.038   3.793
 1867SOL     OW 5889   0.464   5.467   4.047
 1867SOL    HW1 5890   0.497   5.506   4.133
 1867SOL    HW2 5891   0.540   5.460   3.982
 1868SOL     OW 5892   1.400   3.831   4.150
 1868SOL    HW1 5893   1.376   3.794   4.060
 1868SOL    HW2 5894   1.499   3.847   4.154
 1869SOL     OW 5895   0.249   5.509   4.965
 1869SOL    HW1 5896   0.306   5.444   5.015
 1869SOL    HW2 5897   0.233   5.476   4.872
 1870SOL     OW 5898   0.940   5.422   4.628
 1870SOL    HW1 5899   1.020   5.365   4.649
 1870SOL    HW2 5900   0.891   5.382   4.551
 1871SOL     OW 5901   0.382   4.424   4.204
 1871SOL    HW1 5902   0.427   4.334   4.201
 1871SOL    HW2 5903   0.288   4.413   4.237
 1872SOL     OW 5904   1.547   3.946   5.453
 1872SOL    HW1 5905   1.542   3.983   5.545
 1872SOL    HW2 5906   1.475   3.877   5.441
 1873SOL     OW 5907   0.614   3.846   3.841
 1873SOL    HW1 5908   0.712   3.824   3.848
 1873SOL    HW2 5909   0.583   3.829   3.748
 1874SOL     OW 5910   0.781   3.988   5.473
 1874SOL    HW1 5911   0.848   3.927   5.516
 1874SOL    HW2 5912   0.708   4.007   5.538
 1875SOL     OW 5913   0.888   5.238   4.919
 1875SOL    HW1 5914   0.865   5.213   4.825
 1875SOL    HW2 5915   0.949   5.169   4.958
 1876SOL     OW 5916   1.351   4.314   5.157
 1876SOL    HW1 5917   1.379   4.271   5.242
 1876SOL    HW2 5918   1.376   4.410   5.158
 1877SOL     OW 5919   0.803   5.126   4.648
 1877SOL    HW1 5920   0.893   5.140   4.606
 1877SOL    HW2 5921   0.732   5.128   4.577
 1878SOL     OW 5922   0.922   4.227   4.623
 1878SOL    HW1 5923   0.897   4.218   4.527
 1878SOL    HW2 5924   0.970   4.145   4.654
 1879SOL     OW 5925   0.539   3.788   4.236
 1879SOL    HW1 5926   0.458   3.789   4.294
 1879SOL    HW2 5927   0.542   3.871   4.181
 1880SOL     OW 5928   1.434   4.912   3.765
 1880SOL    HW1 5929   1.466   4.836   3.822
 1880SOL    HW2 5930   1.342   4.939   3.795
 1881SOL     OW 5931   0.297   3.759   3.895
 1881SOL    HW1 5932   0.346   3.843   3.874
 1881SOL    HW2 5933   0.359   3.694   3.940
 1882SOL     OW 5934   0.935   3.960   4.204
 1882SOL    HW1 5935   0.887   4.001   4.126
 1882SOL    HW2 5936   1.034   3.958   4.185
 1883SOL     OW 5937   1.076   4.407   5.188
 1883SOL    HW1 5938   0.996   4.346   5.191
 1883SOL    HW2 5939   1.157   4.354   5.164
 1884SOL     OW 5940   1.227   5.294   4.517
 1884SOL    HW1 5941   1.248   5.368   4.452
 1884SOL    HW2 5942   1.295   5.294   4.590
 1885SOL     OW 5943   0.459   4.876   4.465
 1885SOL    HW1 5944   0.388   4.849   4.530
 1885SOL    HW2 5945   0.433   4.848   4.372
 1886SOL     OW 5946   1.271   5.521   4.315
 1886SOL    HW1 5947   1.315   5.585   4.251
 1886SOL    HW2 5948   1.221   5.573   4.385
 1887SOL     OW 5949   1.032   4.273   3.740
 1887SOL    HW1 5950   0.991   4.355   3.701
 1887SOL    HW2 5951   1.096   4.299   3.813
 1888SOL     OW 5952   0.078   4.280   5.110
 1888SOL    HW1 5953   0.170   4.279   5.069
 1888SOL    HW2 5954   0.072   4.354   5.177
 1889SOL     OW 5955   0.561   3.946   4.871
 1889SOL    HW1 5956   0.599   3.862   4.908
 1889SOL    HW2 5957   0.473   3.965   4.915
 1890SOL     OW 5958   0.866   4.178   4.366
 1890SOL    HW1 5959   0.834   4.250   4.304
 1890SOL    HW2 5960   0.890   4.097   4.313
 1891SOL     OW 5961   1.017   3.763   4.477
 1891SOL    HW1 5962   0.945   3.768   4.408
 1891SOL    HW2 5963   0.993   3.694   4.546
 1892SOL     OW 5964   1.429   4.897   4.591
 1892SOL    HW1 5965   1.374   4.813   4.584
 1892SOL    HW2 5966   1.455   4.926   4.499
 1893SOL     OW 5967   1.466   4.314   4.716
 1893SOL    HW1 5968   1.436   4.219   4.723
 1893SOL    HW2 5969   1.539   4.330   4.782
 1894SOL     OW 5970   1.857   4.557   4.101
 1894SOL    HW1 5971   1.899   4.493   4.165
 1894SOL    HW2 5972   1.819   4.506   4.023
 1895SOL     OW 5973   0.488   5.109   3.898
 1895SOL    HW1 5974   0.401   5.094   3.945
 1895SOL    HW2 5975   0.471   5.135   3.803
 1896SOL     OW 5976   1.664   5.004   4.381
 1896SOL    HW1 5977   1.763   5.012   4.395
 1896SOL    HW2 5978   1.619   5.088   4.412
 1897SOL     OW 5979   1.390   4.299   3.802
 1897SOL    HW1 5980   1.336   4.278   3.883
 1897SOL    HW2 5981   1.481   4.258   3.811
 1898SOL     OW 5982   0.527   3.980   4.052
 1898SOL    HW1 5983   0.554   3.921   3.977
 1898SOL    HW2 5984   0.527   4.075   4.021
 1899SOL     OW 5985   1.754   4.947   5.312
 1899SOL    HW1 5986   1.845   4.908   5.299
 1899SOL    HW2 5987   1.762   5.043   5.336
 1900SOL     OW 5988   1.064   5.071   5.064
 1900SOL    HW1 5989   0.984   5.048   5.119
 1900SOL    HW2 5990   1.147   5.045   5.113
 1901SOL     OW 5991   1.592   5.353   5.349
 1901SOL    HW1 5992   1.619   5.387   5.259
 1901SOL    HW2 5993   1.671   5.315   5.395
 1902SOL     OW 5994   1.111   4.919   4.824
 1902SOL    HW1 5995   1.071   4.963   4.905
 1902SOL    HW2 5996   1.070   4.956   4.741
 1903SOL     OW 5997   1.638   4.823   4.803
 1903SOL    HW1 5998   1.643   4.904   4.862
 1903SOL    HW2 5999   1.552   4.825   4.752
 1904SOL     OW 6000   0.915   3.813   5.126
 1904SOL    HW1 6001   0.940   3.793   5.031
 1904SOL    HW2 6002   0.987   3.869   5.168
 1905SOL     OW 6003   0.980   4.840   5.443
 1905SOL    HW1 6004   0.881   4.846   5.453
 1905SOL    HW2 6005   1.003   4.760   5.387
 1906SOL     OW 6006   0.705   4.774   4.092
 1906SOL    HW1 6007   0.691   4.781   4.191
 1906SOL    HW2 6008   0.789   4.723   4.074
 1907SOL     OW 6009   0.410   4.537   4.975
 1907SOL    HW1 6010   0.496   4.549   5.025
 1907SOL    HW2 6011   0.368   4.450   5.002
 1908SOL     OW 6012   1.274   4.110   4.986
 1908SOL    HW1 6013   1.295   4.184   5.050
 1908SOL    HW2 6014   1.185   4.127   4.943
 1909SOL     OW 6015   0.064   5.288   5.055
 1909SOL    HW1 6016   0.018   5.370   5.021
 1909SOL    HW2 6017   0.162   5.307   5.064
 1910SOL     OW 6018   0.367   4.824   4.225
 1910SOL    HW1 6019   0.360   4.907   4.169
 1910SOL    HW2 6020   0.371   4.744   4.165
 1911SOL     OW 6021   0.566   4.261   4.589
 1911SOL    HW1 6022   0.578   4.327   4.515
 1911SOL    HW2 6023   0.612   4.295   4.672
 1912SOL     OW 6024   1.252   5.072   4.112
 1912SOL    HW1 6025   1.302   5.149   4.152
 1912SOL    HW2 6026   1.157   5.074   4.144
 1913SOL     OW 6027   1.272   5.169   4.866
 1913SOL    HW1 6028   1.319   5.182   4.953
 1913SOL    HW2 6029   1.206   5.095   4.875
 1914SOL     OW 6030   1.582   4.363   4.196
 1914SOL    HW1 6031   1.551   4.424   4.269
 1914SOL    HW2 6032   1.632   4.415   4.127
 1915SOL     OW 6033   0.354   5.234   5.053
 1915SOL    HW1 6034   0.333   5.190   4.966
 1915SOL    HW2 6035   0.451   5.260   5.056
 1916SOL     OW 6036   0.402   4.475   5.322
 1916SOL    HW1 6037   0.470   4.530   5.275
 1916SOL    HW2 6038   0.442   4.387   5.349
 1917SOL     OW 6039   1.587   4.503   5.394
 1917SOL    HW1 6040   1.495   4.541   5.389
 1917SOL    HW2 6041   1.647   4.550   5.329
 1918SOL     OW 6042   1.013   3.829   5.494
 1918SOL    HW1 6043   1.019   3.914   5.442
 1918SOL    HW2 6044   1.045   3.753   5.437
 1919SOL     OW 6045   0.504   3.774   5.464
 1919SOL    HW1 6046   0.462   3.717   5.394
 1919SOL    HW2 6047   0.438   3.843   5.496
 1920SOL     OW 6048   0.573   4.594   4.753
 1920SOL    HW1 6049   0.617   4.683   4.744
 1920SOL    HW2 6050   0.510   4.594   4.830
 1921SOL     OW 6051   1.360   4.586   4.769
 1921SOL    HW1 6052   1.285   4.586   4.703
 1921SOL    HW2 6053   1.397   4.494   4.778
 1922SOL     OW 6054   1.209   4.249   3.999
 1922SOL    HW1 6055   1.222   4.165   4.053
 1922SOL    HW2 6056   1.180   4.323   4.059
 1923SOL     OW 6057   0.307   3.937   4.955
 1923SOL    HW1 6058   0.284   3.974   5.045
 1923SOL    HW2 6059   0.277   3.842   4.949
 1924SOL     OW 6060   0.037   5.034   5.006
 1924SOL    HW1 6061   0.090   4.985   5.074
 1924SOL    HW2 6062   0.059   5.132   5.011
 1925SOL     OW 6063   0.732   4.358   4.788
 1925SOL    HW1 6064   0.791   4.332   4.712
 1925SOL    HW2 6065   0.704   4.454   4.777
 1926SOL     OW 6066   1.728   4.659   5.578
 1926SOL    HW1 6067   1.682   4.652   5.489
 1926SOL    HW2 6068   1.666   4.703   5.644
 1927SOL     OW 6069   0.307   3.787   4.342
 1927SOL    HW1 6070   0.296   3.881   4.375
 1927SOL    HW2 6071   0.302   3.724   4.419
 1928SOL     OW 6072   1.622   4.091   4.098
 1928SOL    HW1 6073   1.624   4.015   4.162
 1928SOL    HW2 6074   1.574   4.168   4.138
 1929SOL     OW 6075   1.023   4.490   4.690
 1929SOL    HW1 6076   1.038   4.511   4.786
 1929SOL    HW2 6077   0.993   4.395   4.681
 1930SOL     OW 6078   0.980   5.297   5.424
 1930SOL    HW1 6079   0.960   5.341   5.336
 1930SOL    HW2 6080   1.019   5.206   5.408
 1931SOL     OW 6081   1.859   5.242   5.329
 1931SOL    HW1 6082   1.873   5.269   5.234
 1931SOL    HW2 6083   1.942   5.264   5.382
 1932SOL     OW 6084   0.350   4.622   5.528
 1932SOL    HW1 6085   0.426   4.666   5.576
 1932SOL    HW2 6086   0.385   4.575   5.446
 1933SOL     OW 6087   1.540   3.998   3.849
 1933SOL    HW1 6088   1.479   3.923   3.872
 1933SOL    HW2 6089   1.562   4.050   3.932
 1934SOL     OW 6090   1.303   4.562   3.766
 1934SOL    HW1 6091   1.337   4.469   3.781
 1934SOL    HW2 6092   1.321   4.589   3.671
 1935SOL     OW 6093   1.068   5.057   4.573
 1935SOL    HW1 6094   1.075   4.973   4.518
 1935SOL    HW2 6095   1.130   5.126   4.537
 1936SOL     OW 6096   0.319   4.534   4.673
 1936SOL    HW1 6097   0.412   4.570   4.678
 1936SOL    HW2 6098   0.313   4.449   4.725
 1937SOL     OW 6099   0.339   4.233   4.730
 1937SOL    HW1 6100   0.287   4.150   4.713
 1937SOL    HW2 6101   0.416   4.238   4.666
 1938SOL     OW 6102   1.138   4.104   5.402
 1938SOL    HW1 6103   1.093   4.167   5.466
 1938SOL    HW2 6104   1.231   4.135   5.385
 1939SOL     OW 6105   1.160   3.931   5.201
 1939SOL    HW1 6106   1.160   3.995   5.278
 1939SOL    HW2 6107   1.188   3.979   5.118
 1940SOL     OW 6108   0.008   5.050   3.924
 1940SOL    HW1 6109  -0.085   5.071   3.893
 1940SOL    HW2 6110   0.018   4.951   3.937
 1941SOL     OW 6111   0.088   5.525   4.651
 1941SOL    HW1 6112   0.046   5.439   4.624
 1941SOL    HW2 6113   0.182   5.528   4.617
 1942SOL     OW 6114   0.504   5.292   4.634
 1942SOL    HW1 6115   0.570   5.366   4.643
 1942SOL    HW2 6116   0.548   5.213   4.592
 1943SOL     OW 6117   1.002   4.520   4.962
 1943SOL    HW1 6118   1.043   4.488   5.048
 1943SOL    HW2 6119   0.906   4.493   4.959
 1944SOL     OW 6120   0.040   4.268   4.838
 1944SOL    HW1 6121   0.125   4.235   4.797
 1944SOL    HW2 6122   0.053   4.283   4.936
 1945SOL     OW 6123   0.189   4.244   5.446
 1945SOL    HW1 6124   0.248   4.204   5.376
 1945SOL    HW2 6125   0.131   4.315   5.405
 1946SOL     OW 6126   1.369   4.674   5.384
 1946SOL    HW1 6127   1.408   4.763   5.404
 1946SOL    HW2 6128   1.379   4.654   5.287
 1947SOL     OW 6129   0.815   4.296   4.049
 1947SOL    HW1 6130   0.822   4.207   4.003
 1947SOL    HW2 6131   0.721   4.330   4.041
 1948SOL     OW 6132   1.657   4.328   4.930
 1948SOL    HW1 6133   1.619   4.259   4.992
 1948SOL    HW2 6134   1.739   4.292   4.886
 1949SOL     OW 6135   0.252   5.288   5.468
 1949SOL    HW1 6136   0.222   5.345   5.544
 1949SOL    HW2 6137   0.245   5.191   5.494
 1950SOL     OW 6138   0.671   4.188   4.993
 1950SOL    HW1 6139   0.637   4.099   4.963
 1950SOL    HW2 6140   0.697   4.242   4.913
 1951SOL     OW 6141   0.930   5.402   5.189
 1951SOL    HW1 6142   0.906   5.384   5.094
 1951SOL    HW2 6143   0.960   5.496   5.199
 1952SOL     OW 6144   0.473   4.224   3.915
 1952SOL    HW1 6145   0.534   4.304   3.919
 1952SOL    HW2 6146   0.378   4.255   3.922
 1953SOL     OW 6147   0.159   4.861   5.190
 1953SOL    HW1 6148   0.181   4.800   5.266
 1953SOL    HW2 6149   0.169   4.812   5.104
 1954SOL     OW 6150   1.347   4.783   4.958
 1954SOL    HW1 6151   1.371   4.720   4.884
 1954SOL    HW2 6152   1.257   4.823   4.940
 1955SOL     OW 6153   1.302   4.579   4.033
 1955SOL    HW1 6154   1.216   4.548   4.075
 1955SOL    HW2 6155   1.298   4.565   3.934
 1956SOL     OW 6156   1.759   5.471   4.878
 1956SOL    HW1 6157   1.820   5.501   4.805
 1956SOL    HW2 6158   1.721   5.382   4.856
 1957SOL     OW 6159   1.252   5.455   4.852
 1957SOL    HW1 6160   1.336   5.460   4.798
 1957SOL    HW2 6161   1.229   5.359   4.870
 1958SOL     OW 6162   0.083   4.982   4.746
 1958SOL    HW1 6163   0.078   4.981   4.846
 1958SOL    HW2 6164   0.000   4.941   4.708
 1959SOL     OW 6165   0.688   5.386   5.440
 1959SOL    HW1 6166   0.632   5.467   5.449
 1959SOL    HW2 6167   0.740   5.390   5.354
 1960SOL     OW 6168   1.726   3.859   4.247
 1960SOL    HW1 6169   1.799   3.842   4.180
 1960SOL    HW2 6170   1.695   3.772   4.285
 1961SOL     OW 6171   1.388   5.297   4.201
 1961SOL    HW1 6172   1.455   5.309   4.127
 1961SOL    HW2 6173   1.348   5.386   4.224
 1962SOL     OW 6174   0.130   5.518   5.575
 1962SOL    HW1 6175   0.089   5.444   5.628
 1962SOL    HW2 6176   0.194   5.569   5.633
 1963SOL     OW 6177   1.280   4.651   4.396
 1963SOL    HW1 6178   1.340   4.570   4.398
 1963SOL    HW2 6179   1.320   4.720   4.336
 1964SOL     OW 6180   0.830   4.997   5.146
 1964SOL    HW1 6181   0.825   5.030   5.241
 1964SOL    HW2 6182   0.744   5.016   5.100
 1965SOL     OW 6183   0.672   5.340   3.878
 1965SOL    HW1 6184   0.681   5.350   3.779
 1965SOL    HW2 6185   0.632   5.251   3.899
 1966SOL     OW 6186   1.650   5.444   5.118
 1966SOL    HW1 6187   1.703   5.454   5.034
 1966SOL    HW2 6188   1.623   5.534   5.152
 1967SOL     OW 6189   1.841   3.899   4.687
 1967SOL    HW1 6190   1.880   3.814   4.651
 1967SOL    HW2 6191   1.743   3.901   4.668
 1968SOL     OW 6192   0.263   4.050   4.444
 1968SOL    HW1 6193   0.184   4.101   4.410
 1968SOL    HW2 6194   0.254   4.035   4.542
 1969SOL     OW 6195   1.194   5.336   3.755
 1969SOL    HW1 6196   1.200   5.243   3.792
 1969SOL    HW2 6197   1.135   5.336   3.675
 1970SOL     OW 6198   0.822   4.726   5.096
 1970SOL    HW1 6199   0.862   4.725   5.004
 1970SOL    HW2 6200   0.832   4.818   5.136
 1971SOL     OW 6201   0.916   4.634   4.015
 1971SOL    HW1 6202   0.979   4.672   3.947
 1971SOL    HW2 6203   0.956   4.551   4.054
 1972SOL     OW 6204   1.504   5.331   3.768
 1972SOL    HW1 6205   1.412   5.368   3.775
 1972SOL    HW2 6206   1.542   5.351   3.678
 1973SOL     OW 6207   0.372   5.012   5.214
 1973SOL    HW1 6208   0.359   5.105   5.180
 1973SOL    HW2 6209   0.288   4.960   5.201
 1974SOL     OW 6210   1.614   5.016   5.013
 1974SOL    HW1 6211   1.674   5.019   5.093
 1974SOL    HW2 6212   1.539   5.080   5.026
 1975SOL     OW 6213   1.039   4.822   4.420
 1975SOL    HW1 6214   0.969   4.775   4.474
 1975SOL    HW2 6215   1.098   4.754   4.377
 1976SOL     OW 6216   1.014   3.960   4.695
 1976SOL    HW1 6217   1.006   3.924   4.602
 1976SOL    HW2 6218   1.012   3.884   4.760
 1977SOL     OW 6219   0.590   5.211   4.215
 1977SOL    HW1 6220   0.632   5.153   4.145
 1977SOL    HW2 6221   0.546   5.290   4.171
 1978SOL     OW 6222   1.709   4.109   5.105
 1978SOL    HW1 6223   1.782   4.178   5.109
 1978SOL    HW2 6224   1.737   4.034   5.046
 1979SOL     OW 6225   0.255   5.072   4.014
 1979SOL    HW1 6226   0.159   5.073   3.987
 1979SOL    HW2 6227   0.267   5.125   4.098
 1980SOL     OW 6228   0.105   4.737   5.450
 1980SOL    HW1 6229   0.028   4.704   5.504
 1980SOL    HW2 6230   0.190   4.707   5.492
 1981SOL     OW 6231   0.672   3.927   5.213
 1981SOL    HW1 6232   0.762   3.911   5.173
 1981SOL    HW2 6233   0.680   3.932   5.312
 1982SOL     OW 6234   0.075   4.069   3.757
 1982SOL    HW1 6235  -0.017   4.041   3.728
 1982SOL    HW2 6236   0.106   4.146   3.701
 1983SOL     OW 6237   1.440   4.580   5.122
 1983SOL    HW1 6238   1.383   4.632   5.059
 1983SOL    HW2 6239   1.536   4.592   5.098
 1984SOL     OW 6240   0.072   3.890   4.042
 1984SOL    HW1 6241   0.055   3.973   3.988
 1984SOL    HW2 6242   0.162   3.853   4.020
 1985SOL     OW 6243   1.183   5.059   3.843
 1985SOL    HW1 6244   1.084   5.048   3.845
 1985SOL    HW2 6245   1.217   5.074   3.936
 1986SOL     OW 6246   0.613   4.566   5.155
 1986SOL    HW1 6247   0.669   4.647   5.138
 1986SOL    HW2 6248   0.672   4.486   5.158
 1987SOL     OW 6249   1.493   5.491   4.683
 1987SOL    HW1 6250   1.526   5.555   4.614
 1987SOL    HW2 6251   1.559   5.485   4.758
 1988SOL     OW 6252   0.716   4.289   5.432
 1988SOL    HW1 6253   0.735   4.354   5.506
 1988SOL    HW2 6254   0.776   4.209   5.441
 1989SOL     OW 6255   1.450   4.944   5.357
 1989SOL    HW1 6256   1.441   4.934   5.456
 1989SOL    HW2 6257   1.546   4.937   5.331
 1990SOL     OW 6258   0.390   5.465   5.284
 1990SOL    HW1 6259   0.299   5.506   5.282
 1990SOL    HW2 6260   0.383   5.371   5.316
 1991SOL     OW 6261   1.674   4.607   4.978
 1991SOL    HW1 6262   1.647   4.518   4.941
 1991SOL    HW2 6263   1.675   4.675   4.905
 1992SOL     OW 6264   1.225   4.049   4.173
 1992SOL    HW1 6265   1.290   3.975   4.162
 1992SOL    HW2 6266   1.245   4.099   4.257
 1993SOL     OW 6267   0.594   4.469   4.376
 1993SOL    HW1 6268   0.644   4.554   4.357
 1993SOL    HW2 6269   0.506   4.471   4.328
 1994SOL     OW 6270   1.777   4.066   5.366
 1994SOL    HW1 6271   1.760   4.097   5.272
 1994SOL    HW2 6272   1.693   4.029   5.404
 1995SOL     OW 6273   1.730   4.658   5.241
 1995SOL    HW1 6274   1.768   4.749   5.256
 1995SOL    HW2 6275   1.722   4.641   5.142
 1996SOL     OW 6276   0.859   5.098   3.740
 1996SOL    HW1 6277   0.813   5.113   3.828
 1996SOL    HW2 6278   0.903   5.183   3.710
 1997SOL     OW 6279   0.661   5.514   4.677
 1997SOL    HW1 6280   0.615   5.602   4.664
 1997SOL    HW2 6281   0.760   5.526   4.670
 1998SOL     OW 6282   0.859   4.680   4.585
 1998SOL    HW1 6283   0.913   4.611   4.633
 1998SOL    HW2 6284   0.827   4.749   4.651
 1999SOL     OW 6285   1.083   4.708   3.811
 1999SOL    HW1 6286   1.060   4.761   3.729
 1999SOL    HW2 6287   1.164   4.652   3.792
 2000SOL     OW 6288   1.861   5.293   4.575
 2000SOL    HW1 6289   1.790   5.281   4.505
 2000SOL    HW2 6290   1.862   5.214   4.635
 2001SOL     OW 6291   0.221   5.038   5.568
 2001SOL    HW1 6292   0.156   4.965   5.547
 2001SOL    HW2 6293   0.225   5.052   5.666
 2002SOL     OW 6294   0.079   4.964   4.377
 2002SOL    HW1 6295   0.078   4.917   4.465
 2002SOL    HW2 6296   0.161   4.936   4.326
 2003SOL     OW 6297   0.672   5.115   5.348
 2003SOL    HW1 6298   0.594   5.065   5.386
 2003SOL    HW2 6299   0.669   5.210   5.379
 2004SOL     OW 6300   1.824   3.916   4.951
 2004SOL    HW1 6301   1.820   3.826   4.995
 2004SOL    HW2 6302   1.827   3.905   4.852
 2005SOL     OW 6303   0.428   4.148   4.244
 2005SOL    HW1 6304   0.458   4.076   4.182
 2005SOL    HW2 6305   0.389   4.108   4.327
 2006SOL     OW 6306   1.705   5.211   4.828
 2006SOL    HW1 6307   1.612   5.186   4.801
 2006SOL    HW2 6308   1.731   5.161   4.910
 2007SOL     OW 6309   0.317   4.271   5.004
 2007SOL    HW1 6310   0.355   4.212   5.076
 2007SOL    HW2 6311   0.357   4.245   4.916
 2008SOL     OW 6312   0.812   5.310   4.411
 2008SOL    HW1 6313   0.844   5.320   4.317
 2008SOL    HW2 6314   0.733   5.248   4.413
 2009SOL     OW 6315   1.424   3.938   4.836
 2009SOL    HW1 6316   1.476   3.873   4.891
 2009SOL    HW2 6317   1.375   4.001   4.897
 2010SOL     OW 6318   1.001   3.758   4.878
 2010SOL    HW1 6319   0.938   3.686   4.847
 2010SOL    HW2 6320   1.094   3.722   4.878
 2011SOL     OW 6321   0.770   5.054   4.025
 2011SOL    HW1 6322   0.724   4.967   4.042
 2011SOL    HW2 6323   0.861   5.051   4.066
 2012SOL     OW 6324   0.618   5.291   5.008
 2012SOL    HW1 6325   0.613   5.373   5.065
 2012SOL    HW2 6326   0.707   5.288   4.963
 2013SOL     OW 6327   1.352   3.776   3.892
 2013SOL    HW1 6328   1.387   3.735   3.808
 2013SOL    HW2 6329   1.262   3.738   3.912
 2014SOL     OW 6330   1.300   4.177   4.415
 2014SOL    HW1 6331   1.241   4.257   4.419
 2014SOL    HW2 6332   1.315   4.142   4.508
 2015SOL     OW 6333   1.593   3.945   4.606
 2015SOL    HW1 6334   1.509   3.944   4.660
 2015SOL    HW2 6335   1.595   4.028   4.550
 2016SOL     OW 6336   0.039   4.801   4.024
 2016SOL    HW1 6337   0.138   4.790   4.015
 2016SOL    HW2 6338  -0.001   4.715   4.056
 2017SOL     OW 6339   0.875   5.370   4.061
 2017SOL    HW1 6340   0.798   5.335   4.007
 2017SOL    HW2 6341   0.843   5.441   4.123
 2018SOL     OW 6342   0.230   4.352   5.699
 2018SOL    HW1 6343   0.137   4.350   5.736
 2018SOL    HW2 6344   0.231   4.313   5.607
 2019SOL     OW 6345   1.755   4.331   5.817
 2019SOL    HW1 6346   1.743   4.318   5.718
 2019SOL    HW2 6347   1.725   4.250   5.866
 2020SOL     OW 6348   0.231   5.437   6.069
 2020SOL    HW1 6349   0.265   5.514   6.123
 2020SOL    HW2 6350   0.275   5.437   5.979
 2021SOL     OW 6351   0.606   4.688   5.709
 2021SOL    HW1 6352   0.613   4.772   5.655
 2021SOL    HW2 6353   0.652   4.701   5.797
 2022SOL     OW 6354   1.842   5.491   5.945
 2022SOL    HW1 6355   1.896   5.462   6.025
 2022SOL    HW2 6356   1.872   5.581   5.916
 2023SOL     OW 6357   0.027   5.320   5.703
 2023SOL    HW1 6358   0.008   5.224   5.724
 2023SOL    HW2 6359  -0.006   5.378   5.778
 2024SOL     OW 6360   1.689   4.646   6.198
 2024SOL    HW1 6361   1.784   4.617   6.206
 2024SOL    HW2 6362   1.681   4.711   6.123
 2025SOL     OW 6363   1.641   4.832   6.018
 2025SOL    HW1 6364   1.727   4.834   5.966
 2025SOL    HW2 6365   1.655   4.879   6.106
 2026SOL     OW 6366   1.525   4.723   5.776
 2026SOL    HW1 6367   1.462   4.647   5.789
 2026SOL    HW2 6368   1.573   4.741   5.862
 2027SOL     OW 6369   0.598   4.453   5.856
 2027SOL    HW1 6370   0.622   4.522   5.788
 2027SOL    HW2 6371   0.520   4.486   5.910
 2028SOL     OW 6372   0.865   4.072   5.781
 2028SOL    HW1 6373   0.924   4.135   5.732
 2028SOL    HW2 6374   0.884   3.978   5.752
 2029SOL     OW 6375   0.321   4.667   5.828
 2029SOL    HW1 6376   0.403   4.706   5.786
 2029SOL    HW2 6377   0.294   4.585   5.779
 2030SOL     OW 6378   1.111   5.500   5.823
 2030SOL    HW1 6379   1.051   5.438   5.873
 2030SOL    HW2 6380   1.142   5.456   5.738
 2031SOL     OW 6381   1.632   5.101   5.667
 2031SOL    HW1 6382   1.600   5.195   5.657
 2031SOL    HW2 6383   1.556   5.038   5.655
 2032SOL     OW 6384   0.464   5.467   5.909
 2032SOL    HW1 6385   0.497   5.506   5.995
 2032SOL    HW2 6386   0.540   5.460   5.844
 2033SOL     OW 6387   0.614   3.846   5.703
 2033SOL    HW1 6388   0.712   3.824   5.710
 2033SOL    HW2 6389   0.583   3.829   5.610
 2034SOL     OW 6390   1.434   4.912   5.627
 2034SOL    HW1 6391   1.466   4.836   5.684
 2034SOL    HW2 6392   1.342   4.939   5.657
 2035SOL     OW 6393   0.297   3.759   5.757
 2035SOL    HW1 6394   0.346   3.843   5.736
 2035SOL    HW2 6395   0.359   3.694   5.802
 2036SOL     OW 6396   1.032   4.273   5.602
 2036SOL    HW1 6397   0.991   4.355   5.563
 2036SOL    HW2 6398   1.096   4.299   5.675
 2037SOL     OW 6399   1.857   4.557   5.963
 2037SOL    HW1 6400   1.899   4.493   6.027
 2037SOL    HW2 6401   1.819   4.506   5.885
 2038SOL     OW 6402   0.488   5.109   5.760
 2038SOL    HW1 6403   0.401   5.094   5.807
 2038SOL    HW2 6404   0.471   5.135   5.665
 2039SOL     OW 6405   1.664   5.004   6.243
 2039SOL    HW1 6406   1.763   5.012   6.257
 2039SOL    HW2 6407   1.619   5.088   6.274
 2040SOL     OW 6408   1.390   4.299   5.664
 2040SOL    HW1 6409   1.336   4.278   5.745
 2040SOL    HW2 6410   1.481   4.258   5.673
 2041SOL     OW 6411   0.527   3.980   5.914
 2041SOL    HW1 6412   0.554   3.921   5.839
 2041SOL    HW2 6413   0.527   4.075   5.883
 2042SOL     OW 6414   0.367   4.824   6.087
 2042SOL    HW1 6415   0.360   4.907   6.031
 2042SOL    HW2 6416   0.371   4.744   6.027
 2043SOL     OW 6417   1.209   4.249   5.861
 2043SOL    HW1 6418   1.222   4.165   5.915
 2043SOL    HW2 6419   1.180   4.323   5.921
 2044SOL     OW 6420   0.307   3.787   6.204
 2044SOL    HW1 6421   0.296   3.881   6.237
 2044SOL    HW2 6422   0.302   3.724   6.281
 2045SOL     OW 6423   1.540   3.998   5.711
 2045SOL    HW1 6424   1.479   3.923   5.734
 2045SOL    HW2 6425   1.562   4.050   5.794
 2046SOL     OW 6426   1.303   4.562   5.628
 2046SOL    HW1 6427   1.337   4.469   5.643
 2046SOL    HW2 6428   1.321   4.589   5.533
 2047SOL     OW 6429   0.008   5.050   5.786
 2047SOL    HW1 6430  -0.085   5.071   5.755
 2047SOL    HW2 6431   0.018   4.951   5.799
 2048SOL     OW 6432   0.815   4.296   5.911
 2048SOL    HW1 6433   0.822   4.207   5.865
 2048SOL    HW2 6434   0.721   4.330   5.903
 2049SOL     OW 6435   0.473   4.224   5.777
 2049SOL    HW1 6436   0.534   4.304   5.781
 2049SOL    HW2 6437   0.378   4.255   5.784
 2050SOL     OW 6438   1.726   3.859   6.109
 2050SOL    HW1 6439   1.799   3.842   6.042
 2050SOL    HW2 6440   1.695   3.772   6.147
 2051SOL     OW 6441   0.672   5.340   5.740
 2051SOL    HW1 6442   0.681   5.350   5.641
 2051SOL    HW2 6443   0.632   5.251   5.761
 2052SOL     OW 6444   1.194   5.336   5.617
 2052SOL    HW1 6445   1.200   5.243   5.654
 2052SOL    HW2 6446   1.135   5.336   5.537
 2053SOL     OW 6447   0.916   4.634   5.877
 2053SOL    HW1 6448   0.979   4.672   5.809
 2053SOL    HW2 6449   0.956   4.551   5.916
 2054SOL     OW 6450   1.504   5.331   5.630
 2054SOL    HW1 6451   1.412   5.368   5.637
 2054SOL    HW2 6452   1.542   5.351   5.540
 2055SOL     OW 6453   1.039   4.822   6.282
 2055SOL    HW1 6454   0.969   4.775   6.336
 2055SOL    HW2 6455   1.098   4.754   6.239
 2056SOL     OW 6456   0.255   5.072   5.876
 2056SOL    HW1 6457   0.159   5.073   5.849
 2056SOL    HW2 6458   0.267   5.125   5.960
 2057SOL     OW 6459   0.075   4.069   5.619
 2057SOL    HW1 6460  -0.017   4.041   5.590
 2057SOL    HW2 6461   0.106   4.146   5.563
 2058SOL     OW 6462   0.072   3.890   5.904
 2058SOL    HW1 6463   0.055   3.973   5.850
 2058SOL    HW2 6464   0.162   3.853   5.882
 2059SOL     OW 6465   1.183   5.059   5.705
 2059SOL    HW1 6466   1.084   5.048   5.707
 2059SOL    HW2 6467   1.217   5.074   5.798
 2060SOL     OW 6468   1.225   4.049   6.035
 2060SOL    HW1 6469   1.290   3.975   6.024
 2060SOL    HW2 6470   1.245   4.099   6.119
 2061SOL     OW 6471   0.859   5.098   5.602
 2061SOL    HW1 6472   0.813   5.113   5.690
 2061SOL    HW2 6473   0.903   5.183   5.572
 2062SOL     OW 6474   1.083   4.708   5.673
 2062SOL    HW1 6475   1.060   4.761   5.591
 2062SOL    HW2 6476   1.164   4.652   5.654
 2063SOL     OW 6477   1.352   3.776   5.754
 2063SOL    HW1 6478   1.387   3.735   5.670
 2063SOL    HW2 6479   1.262   3.738   5.774
 2064SOL     OW 6480   0.039   4.801   5.886
 2064SOL    HW1 6481   0.138   4.790   5.877
 2064SOL    HW2 6482  -0.001   4.715   5.918
 2065SOL     OW 6483   0.875   5.370   5.923
 2065SOL    HW1 6484   0.798   5.335   5.869
 2065SOL    HW2 6485   0.843   5.441   5.985
 2066SOL     OW 6486   0.230   6.214   0.113
 2066SOL    HW1 6487   0.137   6.212   0.150
 2066SOL    HW2 6488   0.231   6.175   0.021
 2067SOL     OW 6489   0.225   5.861   0.996
 2067SOL    HW1 6490   0.260   5.844   1.088
 2067SOL    HW2 6491   0.137   5.816   0.984
 2068SOL     OW 6492   0.019   5.954   0.647
 2068SOL    HW1 6493  -0.063   5.997   0.686
 2068SOL    HW2 6494  -0.009   5.881   0.584
 2069SOL     OW 6495   0.438   5.978   1.499
 2069SOL    HW1 6496   0.520   5.922   1.508
 2069SOL    HW2 6497   0.357   5.920   1.503
 2070SOL     OW 6498   1.603   6.033   0.737
 2070SOL    HW1 6499   1.529   6.079   0.687
 2070SOL    HW2 6500   1.654   6.101   0.790
 2071SOL     OW 6501   1.594   5.700   1.480
 2071SOL    HW1 6502   1.576   5.767   1.408
 2071SOL    HW2 6503   1.591   5.746   1.569
 2072SOL     OW 6504   0.809   5.590   0.502
 2072SOL    HW1 6505   0.849   5.681   0.493
 2072SOL    HW2 6506   0.709   5.598   0.508
 2073SOL     OW 6507   0.317   5.837   1.801
 2073SOL    HW1 6508   0.388   5.908   1.807
 2073SOL    HW2 6509   0.229   5.876   1.829
 2074SOL     OW 6510   1.281   5.931   0.944
 2074SOL    HW1 6511   1.195   5.881   0.931
 2074SOL    HW2 6512   1.343   5.877   1.000
 2075SOL     OW 6513   0.550   5.782   0.885
 2075SOL    HW1 6514   0.545   5.777   0.985
 2075SOL    HW2 6515   0.552   5.878   0.856
 2076SOL     OW 6516   0.202   5.871   1.498
 2076SOL    HW1 6517   0.122   5.931   1.485
 2076SOL    HW2 6518   0.192   5.822   1.584
 2077SOL     OW 6519   1.400   5.693   0.426
 2077SOL    HW1 6520   1.376   5.656   0.336
 2077SOL    HW2 6521   1.499   5.709   0.430
 2078SOL     OW 6522   1.547   5.808   1.729
 2078SOL    HW1 6523   1.542   5.845   1.821
 2078SOL    HW2 6524   1.475   5.739   1.717
 2079SOL     OW 6525   0.614   5.708   0.117
 2079SOL    HW1 6526   0.712   5.686   0.124
 2079SOL    HW2 6527   0.583   5.691   0.024
 2080SOL     OW 6528   0.781   5.850   1.749
 2080SOL    HW1 6529   0.848   5.789   1.792
 2080SOL    HW2 6530   0.708   5.869   1.814
 2081SOL     OW 6531   1.351   6.176   1.433
 2081SOL    HW1 6532   1.379   6.133   1.518
 2081SOL    HW2 6533   1.376   6.272   1.434
 2082SOL     OW 6534   0.539   5.650   0.512
 2082SOL    HW1 6535   0.458   5.651   0.570
 2082SOL    HW2 6536   0.542   5.733   0.457
 2083SOL     OW 6537   0.935   5.822   0.480
 2083SOL    HW1 6538   0.887   5.863   0.402
 2083SOL    HW2 6539   1.034   5.820   0.461
 2084SOL     OW 6540   0.561   5.808   1.147
 2084SOL    HW1 6541   0.599   5.724   1.184
 2084SOL    HW2 6542   0.473   5.827   1.191
 2085SOL     OW 6543   1.017   5.625   0.753
 2085SOL    HW1 6544   0.945   5.630   0.684
 2085SOL    HW2 6545   0.993   5.556   0.822
 2086SOL     OW 6546   0.527   5.842   0.328
 2086SOL    HW1 6547   0.554   5.783   0.253
 2086SOL    HW2 6548   0.527   5.937   0.297
 2087SOL     OW 6549   0.915   5.675   1.402
 2087SOL    HW1 6550   0.940   5.655   1.307
 2087SOL    HW2 6551   0.987   5.731   1.444
 2088SOL     OW 6552   1.013   5.691   1.770
 2088SOL    HW1 6553   1.019   5.776   1.718
 2088SOL    HW2 6554   1.045   5.615   1.713
 2089SOL     OW 6555   0.504   5.636   1.740
 2089SOL    HW1 6556   0.462   5.579   1.670
 2089SOL    HW2 6557   0.438   5.705   1.772
 2090SOL     OW 6558   0.307   5.799   1.231
 2090SOL    HW1 6559   0.284   5.836   1.321
 2090SOL    HW2 6560   0.277   5.704   1.225
 2091SOL     OW 6561   0.732   6.220   1.064
 2091SOL    HW1 6562   0.791   6.194   0.988
 2091SOL    HW2 6563   0.704   6.316   1.053
 2092SOL     OW 6564   0.307   5.649   0.618
 2092SOL    HW1 6565   0.296   5.743   0.651
 2092SOL    HW2 6566   0.302   5.586   0.695
 2093SOL     OW 6567   1.540   5.860   0.125
 2093SOL    HW1 6568   1.479   5.785   0.148
 2093SOL    HW2 6569   1.562   5.912   0.208
 2094SOL     OW 6570   0.339   6.095   1.006
 2094SOL    HW1 6571   0.287   6.012   0.989
 2094SOL    HW2 6572   0.416   6.100   0.942
 2095SOL     OW 6573   1.160   5.793   1.477
 2095SOL    HW1 6574   1.160   5.857   1.554
 2095SOL    HW2 6575   1.188   5.841   1.394
 2096SOL     OW 6576   0.040   6.130   1.114
 2096SOL    HW1 6577   0.125   6.097   1.073
 2096SOL    HW2 6578   0.053   6.145   1.212
 2097SOL     OW 6579   0.903   5.672   0.133
 2097SOL    HW1 6580   0.954   5.673   0.047
 2097SOL    HW2 6581   0.959   5.630   0.204
 2098SOL     OW 6582   1.726   5.721   0.523
 2098SOL    HW1 6583   1.799   5.704   0.456
 2098SOL    HW2 6584   1.695   5.634   0.561
 2099SOL     OW 6585   1.841   5.761   0.963
 2099SOL    HW1 6586   1.880   5.676   0.927
 2099SOL    HW2 6587   1.743   5.763   0.944
 2100SOL     OW 6588   1.014   5.822   0.971
 2100SOL    HW1 6589   1.006   5.786   0.878
 2100SOL    HW2 6590   1.012   5.746   1.036
 2101SOL     OW 6591   0.672   5.789   1.489
 2101SOL    HW1 6592   0.762   5.773   1.449
 2101SOL    HW2 6593   0.680   5.794   1.588
 2102SOL     OW 6594   0.075   5.931   0.033
 2102SOL    HW1 6595  -0.017   5.903   0.004
 2102SOL    HW2 6596   0.106   6.008  -0.023
 2103SOL     OW 6597   0.072   5.752   0.318
 2103SOL    HW1 6598   0.055   5.835   0.264
 2103SOL    HW2 6599   0.162   5.715   0.296
 2104SOL     OW 6600   1.225   5.911   0.449
 2104SOL    HW1 6601   1.290   5.837   0.438
 2104SOL    HW2 6602   1.245   5.961   0.533
 2105SOL     OW 6603   1.777   5.928   1.642
 2105SOL    HW1 6604   1.760   5.959   1.548
 2105SOL    HW2 6605   1.693   5.891   1.680
 2106SOL     OW 6606   1.824   5.778   1.227
 2106SOL    HW1 6607   1.820   5.688   1.271
 2106SOL    HW2 6608   1.827   5.767   1.128
 2107SOL     OW 6609   1.424   5.800   1.112
 2107SOL    HW1 6610   1.476   5.735   1.167
 2107SOL    HW2 6611   1.375   5.863   1.173
 2108SOL     OW 6612   1.001   5.620   1.154
 2108SOL    HW1 6613   0.938   5.548   1.123
 2108SOL    HW2 6614   1.094   5.584   1.154
 2109SOL     OW 6615   1.352   5.638   0.168
 2109SOL    HW1 6616   1.387   5.597   0.084
 2109SOL    HW2 6617   1.262   5.600   0.188
 2110SOL     OW 6618   1.300   6.039   0.691
 2110SOL    HW1 6619   1.241   6.119   0.695
 2110SOL    HW2 6620   1.315   6.004   0.784
 2111SOL     OW 6621   1.593   5.807   0.882
 2111SOL    HW1 6622   1.509   5.806   0.936
 2111SOL    HW2 6623   1.595   5.890   0.826
 2112SOL     OW 6624   0.225   5.861   2.858
 2112SOL    HW1 6625   0.260   5.844   2.950
 2112SOL    HW2 6626   0.137   5.816   2.846
 2113SOL     OW 6627   0.019   5.954   2.509
 2113SOL    HW1 6628  -0.063   5.997   2.548
 2113SOL    HW2 6629  -0.009   5.881   2.446
 2114SOL     OW 6630   1.755   6.193   2.093
 2114SOL    HW1 6631   1.743   6.180   1.994
 2114SOL    HW2 6632   1.725   6.112   2.142
 2115SOL     OW 6633   0.438   5.978   3.361
 2115SOL    HW1 6634   0.520   5.922   3.370
 2115SOL    HW2 6635   0.357   5.920   3.365
 2116SOL     OW 6636   1.603   6.033   2.599
 2116SOL    HW1 6637   1.529   6.079   2.549
 2116SOL    HW2 6638   1.654   6.101   2.652
 2117SOL     OW 6639   1.594   5.700   3.342
 2117SOL    HW1 6640   1.576   5.767   3.270
 2117SOL    HW2 6641   1.591   5.746   3.431
 2118SOL     OW 6642   0.809   5.590   2.364
 2118SOL    HW1 6643   0.849   5.681   2.355
 2118SOL    HW2 6644   0.709   5.598   2.370
 2119SOL     OW 6645   0.317   5.837   3.663
 2119SOL    HW1 6646   0.388   5.908   3.669
 2119SOL    HW2 6647   0.229   5.876   3.691
 2120SOL     OW 6648   1.281   5.931   2.806
 2120SOL    HW1 6649   1.195   5.881   2.793
 2120SOL    HW2 6650   1.343   5.877   2.862
 2121SOL     OW 6651   0.865   5.934   2.057
 2121SOL    HW1 6652   0.924   5.997   2.008
 2121SOL    HW2 6653   0.884   5.840   2.028
 2122SOL     OW 6654   0.550   5.782   2.747
 2122SOL    HW1 6655   0.545   5.777   2.847
 2122SOL    HW2 6656   0.552   5.878   2.718
 2123SOL     OW 6657   0.202   5.871   3.360
 2123SOL    HW1 6658   0.122   5.931   3.347
 2123SOL    HW2 6659   0.192   5.822   3.446
 2124SOL     OW 6660   1.400   5.693   2.288
 2124SOL    HW1 6661   1.376   5.656   2.198
 2124SOL    HW2 6662   1.499   5.709   2.292
 2125SOL     OW 6663   1.547   5.808   3.591
 2125SOL    HW1 6664   1.542   5.845   3.683
 2125SOL    HW2 6665   1.475   5.739   3.579
 2126SOL     OW 6666   0.614   5.708   1.979
 2126SOL    HW1 6667   0.712   5.686   1.986
 2126SOL    HW2 6668   0.583   5.691   1.886
 2127SOL     OW 6669   0.781   5.850   3.611
 2127SOL    HW1 6670   0.848   5.789   3.654
 2127SOL    HW2 6671   0.708   5.869   3.676
 2128SOL     OW 6672   1.351   6.176   3.295
 2128SOL    HW1 6673   1.379   6.133   3.380
 2128SOL    HW2 6674   1.376   6.272   3.296
 2129SOL     OW 6675   0.539   5.650   2.374
 2129SOL    HW1 6676   0.458   5.651   2.432
 2129SOL    HW2 6677   0.542   5.733   2.319
 2130SOL     OW 6678   0.297   5.621   2.033
 2130SOL    HW1 6679   0.346   5.705   2.012
 2130SOL    HW2 6680   0.359   5.556   2.078
 2131SOL     OW 6681   0.935   5.822   2.342
 2131SOL    HW1 6682   0.887   5.863   2.264
 2131SOL    HW2 6683   1.034   5.820   2.323
 2132SOL     OW 6684   0.561   5.808   3.009
 2132SOL    HW1 6685   0.599   5.724   3.046
 2132SOL    HW2 6686   0.473   5.827   3.053
 2133SOL     OW 6687   1.017   5.625   2.615
 2133SOL    HW1 6688   0.945   5.630   2.546
 2133SOL    HW2 6689   0.993   5.556   2.684
 2134SOL     OW 6690   0.527   5.842   2.190
 2134SOL    HW1 6691   0.554   5.783   2.115
 2134SOL    HW2 6692   0.527   5.937   2.159
 2135SOL     OW 6693   0.915   5.675   3.264
 2135SOL    HW1 6694   0.940   5.655   3.169
 2135SOL    HW2 6695   0.987   5.731   3.306
 2136SOL     OW 6696   1.013   5.691   3.632
 2136SOL    HW1 6697   1.019   5.776   3.580
 2136SOL    HW2 6698   1.045   5.615   3.575
 2137SOL     OW 6699   0.504   5.636   3.602
 2137SOL    HW1 6700   0.462   5.579   3.532
 2137SOL    HW2 6701   0.438   5.705   3.634
 2138SOL     OW 6702   0.307   5.799   3.093
 2138SOL    HW1 6703   0.284   5.836   3.183
 2138SOL    HW2 6704   0.277   5.704   3.087
 2139SOL     OW 6705   0.732   6.220   2.926
 2139SOL    HW1 6706   0.791   6.194   2.850
 2139SOL    HW2 6707   0.704   6.316   2.915
 2140SOL     OW 6708   0.307   5.649   2.480
 2140SOL    HW1 6709   0.296   5.743   2.513
 2140SOL    HW2 6710   0.302   5.586   2.557
 2141SOL     OW 6711   1.540   5.860   1.987
 2141SOL    HW1 6712   1.479   5.785   2.010
 2141SOL    HW2 6713   1.562   5.912   2.070
 2142SOL     OW 6714   0.339   6.095   2.868
 2142SOL    HW1 6715   0.287   6.012   2.851
 2142SOL    HW2 6716   0.416   6.100   2.804
 2143SOL     OW 6717   1.160   5.793   3.339
 2143SOL    HW1 6718   1.160   5.857   3.416
 2143SOL    HW2 6719   1.188   5.841   3.256
 2144SOL     OW 6720   0.040   6.130   2.976
 2144SOL    HW1 6721   0.125   6.097   2.935
 2144SOL    HW2 6722   0.053   6.145   3.074
 2145SOL     OW 6723   1.726   5.721   2.385
 2145SOL    HW1 6724   1.799   5.704   2.318
 2145SOL    HW2 6725   1.695   5.634   2.423
 2146SOL     OW 6726   1.841   5.761   2.825
 2146SOL    HW1 6727   1.880   5.676   2.789
 2146SOL    HW2 6728   1.743   5.763   2.806
 2147SOL     OW 6729   1.014   5.822   2.833
 2147SOL    HW1 6730   1.006   5.786   2.740
 2147SOL    HW2 6731   1.012   5.746   2.898
 2148SOL     OW 6732   0.672   5.789   3.351
 2148SOL    HW1 6733   0.762   5.773   3.311
 2148SOL    HW2 6734   0.680   5.794   3.450
 2149SOL     OW 6735   0.075   5.931   1.895
 2149SOL    HW1 6736  -0.017   5.903   1.866
 2149SOL    HW2 6737   0.106   6.008   1.839
 2150SOL     OW 6738   0.072   5.752   2.180
 2150SOL    HW1 6739   0.055   5.835   2.126
 2150SOL    HW2 6740   0.162   5.715   2.158
 2151SOL     OW 6741   1.225   5.911   2.311
 2151SOL    HW1 6742   1.290   5.837   2.300
 2151SOL    HW2 6743   1.245   5.961   2.395
 2152SOL     OW 6744   1.777   5.928   3.504
 2152SOL    HW1 6745   1.760   5.959   3.410
 2152SOL    HW2 6746   1.693   5.891   3.542
 2153SOL     OW 6747   1.824   5.778   3.089
 2153SOL    HW1 6748   1.820   5.688   3.133
 2153SOL    HW2 6749   1.827   5.767   2.990
 2154SOL     OW 6750   1.424   5.800   2.974
 2154SOL    HW1 6751   1.476   5.735   3.029
 2154SOL    HW2 6752   1.375   5.863   3.035
 2155SOL     OW 6753   1.001   5.620   3.016
 2155SOL    HW1 6754   0.938   5.548   2.985
 2155SOL    HW2 6755   1.094   5.584   3.016
 2156SOL     OW 6756   1.352   5.638   2.030
 2156SOL    HW1 6757   1.387   5.597   1.946
 2156SOL    HW2 6758   1.262   5.600   2.050
 2157SOL     OW 6759   1.300   6.039   2.553
 2157SOL    HW1 6760   1.241   6.119   2.557
 2157SOL    HW2 6761   1.315   6.004   2.646
 2158SOL     OW 6762   1.593   5.807   2.744
 2158SOL    HW1 6763   1.509   5.806   2.798
 2158SOL    HW2 6764   1.595   5.890   2.688
 2159SOL     OW 6765   0.225   5.861   4.720
 2159SOL    HW1 6766   0.260   5.844   4.812
 2159SOL    HW2 6767   0.137   5.816   4.708
 2160SOL     OW 6768   0.019   5.954   4.371
 2160SOL    HW1 6769  -0.063   5.997   4.410
 2160SOL    HW2 6770  -0.009   5.881   4.308
 2161SOL     OW 6771   1.755   6.193   3.955
 2161SOL    HW1 6772   1.743   6.180   3.856
 2161SOL    HW2 6773   1.725   6.112   4.004
 2162SOL     OW 6774   0.438   5.978   5.223
 2162SOL    HW1 6775   0.520   5.922   5.232
 2162SOL    HW2 6776   0.357   5.920   5.227
 2163SOL     OW 6777   1.603   6.033   4.461
 2163SOL    HW1 6778   1.529   6.079   4.411
 2163SOL    HW2 6779   1.654   6.101   4.514
 2164SOL     OW 6780   1.594   5.700   5.204
 2164SOL    HW1 6781   1.576   5.767   5.132
 2164SOL    HW2 6782   1.591   5.746   5.293
 2165SOL     OW 6783   0.809   5.590   4.226
 2165SOL    HW1 6784   0.849   5.681   4.217
 2165SOL    HW2 6785   0.709   5.598   4.232
 2166SOL     OW 6786   0.317   5.837   5.525
 2166SOL    HW1 6787   0.388   5.908   5.531
 2166SOL    HW2 6788   0.229   5.876   5.553
 2167SOL     OW 6789   1.281   5.931   4.668
 2167SOL    HW1 6790   1.195   5.881   4.655
 2167SOL    HW2 6791   1.343   5.877   4.724
 2168SOL     OW 6792   0.865   5.934   3.919
 2168SOL    HW1 6793   0.924   5.997   3.870
 2168SOL    HW2 6794   0.884   5.840   3.890
 2169SOL     OW 6795   0.550   5.782   4.609
 2169SOL    HW1 6796   0.545   5.777   4.709
 2169SOL    HW2 6797   0.552   5.878   4.580
 2170SOL     OW 6798   0.202   5.871   5.222
 2170SOL    HW1 6799   0.122   5.931   5.209
 2170SOL    HW2 6800   0.192   5.822   5.308
 2171SOL     OW 6801   1.400   5.693   4.150
 2171SOL    HW1 6802   1.376   5.656   4.060
 2171SOL    HW2 6803   1.499   5.709   4.154
 2172SOL     OW 6804   1.547   5.808   5.453
 2172SOL    HW1 6805   1.542   5.845   5.545
 2172SOL    HW2 6806   1.475   5.739   5.441
 2173SOL     OW 6807   0.614   5.708   3.841
 2173SOL    HW1 6808   0.712   5.686   3.848
 2173SOL    HW2 6809   0.583   5.691   3.748
 2174SOL     OW 6810   0.781   5.850   5.473
 2174SOL    HW1 6811   0.848   5.789   5.516
 2174SOL    HW2 6812   0.708   5.869   5.538
 2175SOL     OW 6813   1.351   6.176   5.157
 2175SOL    HW1 6814   1.379   6.133   5.242
 2175SOL    HW2 6815   1.376   6.272   5.158
 2176SOL     OW 6816   0.539   5.650   4.236
 2176SOL    HW1 6817   0.458   5.651   4.294
 2176SOL    HW2 6818   0.542   5.733   4.181
 2177SOL     OW 6819   0.297   5.621   3.895
 2177SOL    HW1 6820   0.346   5.705   3.874
 2177SOL    HW2 6821   0.359   5.556   3.940
 2178SOL     OW 6822   0.935   5.822   4.204
 2178SOL    HW1 6823   0.887   5.863   4.126
 2178SOL    HW2 6824   1.034   5.820   4.185
 2179SOL     OW 6825   0.561   5.808   4.871
 2179SOL    HW1 6826   0.599   5.724   4.908
 2179SOL    HW2 6827   0.473   5.827   4.915
 2180SOL     OW 6828   1.017   5.625   4.477
 2180SOL    HW1 6829   0.945   5.630   4.408
 2180SOL    HW2 6830   0.993   5.556   4.546
 2181SOL     OW 6831   0.527   5.842   4.052
 2181SOL    HW1 6832   0.554   5.783   3.977
 2181SOL    HW2 6833   0.527   5.937   4.021
 2182SOL     OW 6834   0.915   5.675   5.126
 2182SOL    HW1 6835   0.940   5.655   5.031
 2182SOL    HW2 6836   0.987   5.731   5.168
 2183SOL     OW 6837   1.013   5.691   5.494
 2183SOL    HW1 6838   1.019   5.776   5.442
 2183SOL    HW2 6839   1.045   5.615   5.437
 2184SOL     OW 6840   0.504   5.636   5.464
 2184SOL    HW1 6841   0.462   5.579   5.394
 2184SOL    HW2 6842   0.438   5.705   5.496
 2185SOL     OW 6843   0.307   5.799   4.955
 2185SOL    HW1 6844   0.284   5.836   5.045
 2185SOL    HW2 6845   0.277   5.704   4.949
 2186SOL     OW 6846   0.732   6.220   4.788
 2186SOL    HW1 6847   0.791   6.194   4.712
 2186SOL    HW2 6848   0.704   6.316   4.777
 2187SOL     OW 6849   0.307   5.649   4.342
 2187SOL    HW1 6850   0.296   5.743   4.375
 2187SOL    HW2 6851   0.302   5.586   4.419
 2188SOL     OW 6852   1.540   5.860   3.849
 2188SOL    HW1 6853   1.479   5.785   3.872
 2188SOL    HW2 6854   1.562   5.912   3.932
 2189SOL     OW 6855   0.339   6.095   4.730
 2189SOL    HW1 6856   0.287   6.012   4.713
 2189SOL    HW2 6857   0.416   6.100   4.666
 2190SOL     OW 6858   1.160   5.793   5.201
 2190SOL    HW1 6859   1.160   5.857   5.278
 2190SOL    HW2 6860   1.188   5.841   5.118
 2191SOL     OW 6861   0.040   6.130   4.838
 2191SOL    HW1 6862   0.125   6.097   4.797
 2191SOL    HW2 6863   0.053   6.145   4.936
 2192SOL     OW 6864   1.726   5.721   4.247
 2192SOL    HW1 6865   1.799   5.704   4.180
 2192SOL    HW2 6866   1.695   5.634   4.285
 2193SOL     OW 6867   1.841   5.761   4.687
 2193SOL    HW1 6868   1.880   5.676   4.651
 2193SOL    HW2 6869   1.743   5.763   4.668
 2194SOL     OW 6870   1.014   5.822   4.695
 2194SOL    HW1 6871   1.006   5.786   4.602
 2194SOL    HW2 6872   1.012   5.746   4.760
 2195SOL     OW 6873   0.672   5.789   5.213
 2195SOL    HW1 6874   0.762   5.773   5.173
 2195SOL    HW2 6875   0.680   5.794   5.312
 2196SOL     OW 6876   0.075   5.931   3.757
 2196SOL    HW1 6877  -0.017   5.903   3.728
 2196SOL    HW2 6878   0.106   6.008   3.701
 2197SOL     OW 6879   0.072   5.752   4.042
 2197SOL    HW1 6880   0.055   5.835   3.988
 2197SOL    HW2 6881   0.162   5.715   4.020
 2198SOL     OW 6882   1.225   5.911   4.173
 2198SOL    HW1 6883   1.290   5.837   4.162
 2198SOL    HW2 6884   1.245   5.961   4.257
 2199SOL     OW 6885   1.777   5.928   5.366
 2199SOL    HW1 6886   1.760   5.959   5.272
 2199SOL    HW2 6887   1.693   5.891   5.404
 2200SOL     OW 6888   1.824   5.778   4.951
 2200SOL    HW1 6889   1.820   5.688   4.995
 2200SOL    HW2 6890   1.827   5.767   4.852
 2201SOL     OW 6891   1.424   5.800   4.836
 2201SOL    HW1 6892   1.476   5.735   4.891
 2201SOL    HW2 6893   1.375   5.863   4.897
 2202SOL     OW 6894   1.001   5.620   4.878
 2202SOL    HW1 6895   0.938   5.548   4.847
 2202SOL    HW2 6896   1.094   5.584   4.878
 2203SOL     OW 6897   1.352   5.638   3.892
 2203SOL    HW1 6898   1.387   5.597   3.808
 2203SOL    HW2 6899   1.262   5.600   3.912
 2204SOL     OW 6900   1.300   6.039   4.415
 2204SOL    HW1 6901   1.241   6.119   4.419
 2204SOL    HW2 6902   1.315   6.004   4.508
 2205SOL     OW 6903   1.593   5.807   4.606
 2205SOL    HW1 6904   1.509   5.806   4.660
 2205SOL    HW2 6905   1.595   5.890   4.550
 2206SOL     OW 6906   1.755   6.193   5.817
 2206SOL    HW1 6907   1.743   6.180   5.718
 2206SOL    HW2 6908   1.725   6.112   5.866
 2207SOL     OW 6909   1.041   6.287   6.015
 2207SOL    HW1 6910   1.067   6.283   6.111
 2207SOL    HW2 6911   0.956   6.236   6.001
 2208SOL     OW 6912   0.865   5.934   5.781
 2208SOL    HW1 6913   0.924   5.997   5.732
 2208SOL    HW2 6914   0.884   5.840   5.752
 2209SOL     OW 6915   0.614   5.708   5.703
 2209SOL    HW1 6916   0.712   5.686   5.710
 2209SOL    HW2 6917   0.583   5.691   5.610
 2210SOL     OW 6918   0.297   5.621   5.757
 2210SOL    HW1 6919   0.346   5.705   5.736
 2210SOL    HW2 6920   0.359   5.556   5.802
 2211SOL     OW 6921   0.527   5.842   5.914
 2211SOL    HW1 6922   0.554   5.783   5.839
 2211SOL    HW2 6923   0.527   5.937   5.883
 2212SOL     OW 6924   0.307   5.649   6.204
 2212SOL    HW1 6925   0.296   5.743   6.237
 2212SOL    HW2 6926   0.302   5.586   6.281
 2213SOL     OW 6927   1.540   5.860   5.711
 2213SOL    HW1 6928   1.479   5.785   5.734
 2213SOL    HW2 6929   1.562   5.912   5.794
 2214SOL     OW 6930   0.815   6.158   5.911
 2214SOL    HW1 6931   0.822   6.069   5.865
 2214SOL    HW2 6932   0.721   6.192   5.903
 2215SOL     OW 6933   1.726   5.721   6.109
 2215SOL    HW1 6934   1.799   5.704   6.042
 2215SOL    HW2 6935   1.695   5.634   6.147
 2216SOL     OW 6936   0.075   5.931   5.619
 2216SOL    HW1 6937  -0.017   5.903   5.590
 2216SOL    HW2 6938   0.106   6.008   5.563
 2217SOL     OW 6939   0.072   5.752   5.904
 2217SOL    HW1 6940   0.055   5.835   5.850
 2217SOL    HW2 6941   0.162   5.715   5.882
 2218SOL     OW 6942   1.352   5.638   5.754
 2218SOL    HW1 6943   1.387   5.597   5.670
 2218SOL    HW2 6944   1.262   5.600   5.774
 2219SOL     OW 6945   2.092   0.628   0.113
 2219SOL    HW1 6946   1.999   0.626   0.150
 2219SOL    HW2 6947   2.093   0.589   0.021
 2220SOL     OW 6948   2.087   0.275   0.996
 2220SOL    HW1 6949   2.122   0.258   1.088
 2220SOL    HW2 6950   1.999   0.230   0.984
 2221SOL     OW 6951   1.881   0.368   0.647
 2221SOL    HW1 6952   1.799   0.411   0.686
 2221SOL    HW2 6953   1.853   0.295   0.584
 2222SOL     OW 6954   2.431   1.275   1.165
 2222SOL    HW1 6955   2.338   1.268   1.128
 2222SOL    HW2 6956   2.442   1.364   1.209
 2223SOL     OW 6957   3.417   1.511   0.703
 2223SOL    HW1 6958   3.360   1.495   0.784
 2223SOL    HW2 6959   3.358   1.521   0.623
 2224SOL     OW 6960   2.997   0.703   0.717
 2224SOL    HW1 6961   3.054   0.781   0.692
 2224SOL    HW2 6962   2.937   0.729   0.793
 2225SOL     OW 6963   3.617   0.607   0.231
 2225SOL    HW1 6964   3.605   0.594   0.132
 2225SOL    HW2 6965   3.587   0.526   0.280
 2226SOL     OW 6966   2.630   1.144   1.023
 2226SOL    HW1 6967   2.552   1.161   1.083
 2226SOL    HW2 6968   2.664   1.231   0.987
 2227SOL     OW 6969   2.712   0.798   1.823
 2227SOL    HW1 6970   2.708   0.874   1.888
 2227SOL    HW2 6971   2.734   0.834   1.732
 2228SOL     OW 6972   2.547   1.012   0.665
 2228SOL    HW1 6973   2.616   0.996   0.735
 2228SOL    HW2 6974   2.474   1.069   0.703
 2229SOL     OW 6975   2.548   1.161   1.803
 2229SOL    HW1 6976   2.608   1.240   1.817
 2229SOL    HW2 6977   2.462   1.192   1.762
 2230SOL     OW 6978   2.197   1.435   1.061
 2230SOL    HW1 6979   2.119   1.404   1.008
 2230SOL    HW2 6980   2.255   1.493   1.004
 2231SOL     OW 6981   3.322   1.505   1.339
 2231SOL    HW1 6982   3.346   1.599   1.365
 2231SOL    HW2 6983   3.306   1.451   1.421
 2232SOL     OW 6984   2.300   0.392   1.499
 2232SOL    HW1 6985   2.382   0.336   1.508
 2232SOL    HW2 6986   2.219   0.334   1.503
 2233SOL     OW 6987   3.465   0.447   0.737
 2233SOL    HW1 6988   3.391   0.493   0.687
 2233SOL    HW2 6989   3.516   0.515   0.790
 2234SOL     OW 6990   2.093   1.713   0.483
 2234SOL    HW1 6991   2.127   1.790   0.537
 2234SOL    HW2 6992   2.137   1.713   0.393
 2235SOL     OW 6993   2.989   1.341   1.690
 2235SOL    HW1 6994   3.036   1.341   1.778
 2235SOL    HW2 6995   2.941   1.254   1.679
 2236SOL     OW 6996   2.092   1.434   0.538
 2236SOL    HW1 6997   2.066   1.530   0.538
 2236SOL    HW2 6998   2.021   1.380   0.583
 2237SOL     OW 6999   2.102   1.091   0.886
 2237SOL    HW1 7000   2.116   1.007   0.938
 2237SOL    HW2 7001   2.047   1.155   0.941
 2238SOL     OW 7002   2.482   1.786   1.439
 2238SOL    HW1 7003   2.390   1.769   1.474
 2238SOL    HW2 7004   2.510   1.878   1.465
 2239SOL     OW 7005   2.468   0.964   0.123
 2239SOL    HW1 7006   2.475   1.048   0.069
 2239SOL    HW2 7007   2.514   0.977   0.211
 2240SOL     OW 7008   3.456   0.114   1.480
 2240SOL    HW1 7009   3.438   0.181   1.408
 2240SOL    HW2 7010   3.453   0.160   1.569
 2241SOL     OW 7011   1.984   0.643   0.563
 2241SOL    HW1 7012   1.939   0.555   0.580
 2241SOL    HW2 7013   1.983   0.697   0.647
 2242SOL     OW 7014   3.704   1.767   0.359
 2242SOL    HW1 7015   3.758   1.738   0.439
 2242SOL    HW2 7016   3.734   1.857   0.330
 2243SOL     OW 7017   1.889   1.596   0.117
 2243SOL    HW1 7018   1.870   1.500   0.138
 2243SOL    HW2 7019   1.856   1.654   0.192
 2244SOL     OW 7020   3.551   0.922   0.612
 2244SOL    HW1 7021   3.646   0.893   0.620
 2244SOL    HW2 7022   3.543   0.987   0.537
 2245SOL     OW 7023   3.503   1.108   0.432
 2245SOL    HW1 7024   3.589   1.110   0.380
 2245SOL    HW2 7025   3.517   1.155   0.520
 2246SOL     OW 7026   1.975   0.737   1.597
 2246SOL    HW1 7027   2.063   0.724   1.642
 2246SOL    HW2 7028   1.962   0.834   1.575
 2247SOL     OW 7029   2.475   1.365   0.726
 2247SOL    HW1 7030   2.426   1.278   0.735
 2247SOL    HW2 7031   2.452   1.408   0.639
 2248SOL     OW 7032   3.155   1.228   1.423
 2248SOL    HW1 7033   3.192   1.155   1.365
 2248SOL    HW2 7034   3.207   1.233   1.508
 2249SOL     OW 7035   2.671   0.004   0.502
 2249SOL    HW1 7036   2.711   0.095   0.493
 2249SOL    HW2 7037   2.571   0.012   0.508
 2250SOL     OW 7038   2.059   0.976   1.264
 2250SOL    HW1 7039   2.148   0.931   1.250
 2250SOL    HW2 7040   1.986   0.911   1.245
 2251SOL     OW 7041   3.387   0.999   0.190
 2251SOL    HW1 7042   3.324   0.923   0.203
 2251SOL    HW2 7043   3.435   1.017   0.276
 2252SOL     OW 7044   3.049   1.792   1.616
 2252SOL    HW1 7045   3.073   1.852   1.540
 2252SOL    HW2 7046   3.056   1.697   1.586
 2253SOL     OW 7047   2.179   0.251   1.801
 2253SOL    HW1 7048   2.250   0.322   1.807
 2253SOL    HW2 7049   2.091   0.290   1.829
 2254SOL     OW 7050   3.328   1.417   0.953
 2254SOL    HW1 7051   3.269   1.423   1.033
 2254SOL    HW2 7052   3.313   1.329   0.907
 2255SOL     OW 7053   3.529   1.714   0.572
 2255SOL    HW1 7054   3.488   1.691   0.484
 2255SOL    HW2 7055   3.511   1.640   0.637
 2256SOL     OW 7056   2.460   0.729   0.270
 2256SOL    HW1 7057   2.484   0.798   0.202
 2256SOL    HW2 7058   2.382   0.762   0.324
 2257SOL     OW 7059   3.143   0.345   0.944
 2257SOL    HW1 7060   3.057   0.295   0.931
 2257SOL    HW2 7061   3.205   0.291   1.000
 2258SOL     OW 7062   3.438   1.662   0.307
 2258SOL    HW1 7063   3.527   1.708   0.310
 2258SOL    HW2 7064   3.417   1.638   0.212
 2259SOL     OW 7065   2.669   0.605   1.465
 2259SOL    HW1 7066   2.622   0.602   1.554
 2259SOL    HW2 7067   2.618   0.550   1.399
 2260SOL     OW 7068   3.256   0.469   1.674
 2260SOL    HW1 7069   3.236   0.512   1.762
 2260SOL    HW2 7070   3.334   0.407   1.683
 2261SOL     OW 7071   2.835   0.890   1.572
 2261SOL    HW1 7072   2.881   0.806   1.543
 2261SOL    HW2 7073   2.779   0.924   1.497
 2262SOL     OW 7074   2.853   0.410   1.242
 2262SOL    HW1 7075   2.776   0.444   1.296
 2262SOL    HW2 7076   2.819   0.359   1.163
 2263SOL     OW 7077   2.903   0.701   0.429
 2263SOL    HW1 7078   2.929   0.697   0.525
 2263SOL    HW2 7079   2.818   0.650   0.415
 2264SOL     OW 7080   1.938   0.811   0.789
 2264SOL    HW1 7081   2.037   0.799   0.798
 2264SOL    HW2 7082   1.914   0.906   0.810
 2265SOL     OW 7083   1.992   1.821   1.571
 2265SOL    HW1 7084   1.982   1.806   1.670
 2265SOL    HW2 7085   1.906   1.857   1.535
 2266SOL     OW 7086   2.727   0.348   0.195
 2266SOL    HW1 7087   2.786   0.411   0.146
 2266SOL    HW2 7088   2.746   0.254   0.166
 2267SOL     OW 7089   3.581   0.585   1.831
 2267SOL    HW1 7090   3.555   0.674   1.795
 2267SOL    HW2 7091   3.579   0.517   1.758
 2268SOL     OW 7092   3.224   1.144   0.545
 2268SOL    HW1 7093   3.307   1.115   0.497
 2268SOL    HW2 7094   3.175   1.211   0.489
 2269SOL     OW 7095   2.412   0.196   0.885
 2269SOL    HW1 7096   2.407   0.191   0.985
 2269SOL    HW2 7097   2.414   0.292   0.856
 2270SOL     OW 7098   2.870   1.456   0.477
 2270SOL    HW1 7099   2.824   1.528   0.425
 2270SOL    HW2 7100   2.866   1.476   0.575
 2271SOL     OW 7101   2.213   1.801   0.853
 2271SOL    HW1 7102   2.263   1.715   0.859
 2271SOL    HW2 7103   2.278   1.878   0.850
 2272SOL     OW 7104   3.657   1.066   0.873
 2272SOL    HW1 7105   3.595   1.051   0.797
 2272SOL    HW2 7106   3.605   1.077   0.958
 2273SOL     OW 7107   3.089   1.550   1.506
 2273SOL    HW1 7108   3.095   1.473   1.570
 2273SOL    HW2 7109   3.037   1.524   1.426
 2274SOL     OW 7110   2.183   0.943   0.242
 2274SOL    HW1 7111   2.265   0.982   0.200
 2274SOL    HW2 7112   2.156   0.861   0.193
 2275SOL     OW 7113   3.320   0.735   0.728
 2275SOL    HW1 7114   3.315   0.670   0.803
 2275SOL    HW2 7115   3.400   0.794   0.741
 2276SOL     OW 7116   2.323   1.266   1.727
 2276SOL    HW1 7117   2.273   1.267   1.641
 2276SOL    HW2 7118   2.260   1.248   1.803
 2277SOL     OW 7119   2.973   1.776   0.237
 2277SOL    HW1 7120   2.913   1.714   0.287
 2277SOL    HW2 7121   3.004   1.732   0.152
 2278SOL     OW 7122   2.064   0.285   1.498
 2278SOL    HW1 7123   1.984   0.345   1.485
 2278SOL    HW2 7124   2.054   0.236   1.584
 2279SOL     OW 7125   3.494   1.377   0.081
 2279SOL    HW1 7126   3.462   1.471   0.071
 2279SOL    HW2 7127   3.418   1.314   0.069
 2280SOL     OW 7128   2.326   1.743   0.323
 2280SOL    HW1 7129   2.359   1.782   0.409
 2280SOL    HW2 7130   2.402   1.736   0.258
 2281SOL     OW 7131   3.262   0.107   0.426
 2281SOL    HW1 7132   3.238   0.070   0.336
 2281SOL    HW2 7133   3.361   0.123   0.430
 2282SOL     OW 7134   2.111   1.785   1.241
 2282SOL    HW1 7135   2.168   1.720   1.291
 2282SOL    HW2 7136   2.095   1.752   1.148
 2283SOL     OW 7137   2.802   1.698   0.904
 2283SOL    HW1 7138   2.882   1.641   0.925
 2283SOL    HW2 7139   2.753   1.658   0.827
 2284SOL     OW 7140   2.244   0.700   0.480
 2284SOL    HW1 7141   2.289   0.610   0.477
 2284SOL    HW2 7142   2.150   0.689   0.513
 2285SOL     OW 7143   3.409   0.222   1.729
 2285SOL    HW1 7144   3.404   0.259   1.821
 2285SOL    HW2 7145   3.337   0.153   1.717
 2286SOL     OW 7146   2.476   0.122   0.117
 2286SOL    HW1 7147   2.574   0.100   0.124
 2286SOL    HW2 7148   2.445   0.105   0.024
 2287SOL     OW 7149   2.643   0.264   1.749
 2287SOL    HW1 7150   2.710   0.203   1.792
 2287SOL    HW2 7151   2.570   0.283   1.814
 2288SOL     OW 7152   2.750   1.514   1.195
 2288SOL    HW1 7153   2.727   1.489   1.101
 2288SOL    HW2 7154   2.811   1.445   1.234
 2289SOL     OW 7155   3.213   0.590   1.433
 2289SOL    HW1 7156   3.241   0.547   1.518
 2289SOL    HW2 7157   3.238   0.686   1.434
 2290SOL     OW 7158   2.665   1.402   0.924
 2290SOL    HW1 7159   2.755   1.416   0.882
 2290SOL    HW2 7160   2.594   1.404   0.853
 2291SOL     OW 7161   2.784   0.503   0.899
 2291SOL    HW1 7162   2.759   0.494   0.803
 2291SOL    HW2 7163   2.832   0.421   0.930
 2292SOL     OW 7164   2.401   0.064   0.512
 2292SOL    HW1 7165   2.320   0.065   0.570
 2292SOL    HW2 7166   2.404   0.147   0.457
 2293SOL     OW 7167   3.296   1.188   0.041
 2293SOL    HW1 7168   3.328   1.112   0.098
 2293SOL    HW2 7169   3.204   1.215   0.071
 2294SOL     OW 7170   2.159   0.035   0.171
 2294SOL    HW1 7171   2.208   0.119   0.150
 2294SOL    HW2 7172   2.221  -0.030   0.216
 2295SOL     OW 7173   2.797   0.236   0.480
 2295SOL    HW1 7174   2.749   0.277   0.402
 2295SOL    HW2 7175   2.896   0.234   0.461
 2296SOL     OW 7176   2.938   0.683   1.464
 2296SOL    HW1 7177   2.858   0.622   1.467
 2296SOL    HW2 7178   3.019   0.630   1.440
 2297SOL     OW 7179   3.089   1.570   0.793
 2297SOL    HW1 7180   3.110   1.644   0.728
 2297SOL    HW2 7181   3.157   1.570   0.866
 2298SOL     OW 7182   2.321   1.152   0.741
 2298SOL    HW1 7183   2.250   1.125   0.806
 2298SOL    HW2 7184   2.295   1.124   0.648
 2299SOL     OW 7185   3.133   1.797   0.591
 2299SOL    HW1 7186   3.177   1.861   0.527
 2299SOL    HW2 7187   3.083   1.849   0.661
 2300SOL     OW 7188   2.894   0.549   0.016
 2300SOL    HW1 7189   2.853   0.631  -0.023
 2300SOL    HW2 7190   2.958   0.575   0.089
 2301SOL     OW 7191   1.940   0.556   1.386
 2301SOL    HW1 7192   2.032   0.555   1.345
 2301SOL    HW2 7193   1.934   0.630   1.453
 2302SOL     OW 7194   2.423   0.222   1.147
 2302SOL    HW1 7195   2.461   0.138   1.184
 2302SOL    HW2 7196   2.335   0.241   1.191
 2303SOL     OW 7197   2.728   0.454   0.642
 2303SOL    HW1 7198   2.696   0.526   0.580
 2303SOL    HW2 7199   2.752   0.373   0.589
 2304SOL     OW 7200   2.879   0.039   0.753
 2304SOL    HW1 7201   2.807   0.044   0.684
 2304SOL    HW2 7202   2.855  -0.030   0.822
 2305SOL     OW 7203   3.291   1.173   0.867
 2305SOL    HW1 7204   3.236   1.089   0.860
 2305SOL    HW2 7205   3.317   1.202   0.775
 2306SOL     OW 7206   3.328   0.590   0.992
 2306SOL    HW1 7207   3.298   0.495   0.999
 2306SOL    HW2 7208   3.401   0.606   1.058
 2307SOL     OW 7209   3.719   0.833   0.377
 2307SOL    HW1 7210   3.761   0.769   0.441
 2307SOL    HW2 7211   3.681   0.782   0.299
 2308SOL     OW 7212   2.350   1.385   0.174
 2308SOL    HW1 7213   2.263   1.370   0.221
 2308SOL    HW2 7214   2.333   1.411   0.079
 2309SOL     OW 7215   3.526   1.280   0.657
 2309SOL    HW1 7216   3.625   1.288   0.671
 2309SOL    HW2 7217   3.481   1.364   0.688
 2310SOL     OW 7218   3.252   0.575   0.078
 2310SOL    HW1 7219   3.198   0.554   0.159
 2310SOL    HW2 7220   3.343   0.534   0.087
 2311SOL     OW 7221   2.389   0.256   0.328
 2311SOL    HW1 7222   2.416   0.197   0.253
 2311SOL    HW2 7223   2.389   0.351   0.297
 2312SOL     OW 7224   3.616   1.223   1.588
 2312SOL    HW1 7225   3.707   1.184   1.575
 2312SOL    HW2 7226   3.624   1.319   1.612
 2313SOL     OW 7227   2.926   1.347   1.340
 2313SOL    HW1 7228   2.846   1.324   1.395
 2313SOL    HW2 7229   3.009   1.321   1.389
 2314SOL     OW 7230   3.454   1.629   1.625
 2314SOL    HW1 7231   3.481   1.663   1.535
 2314SOL    HW2 7232   3.533   1.591   1.671
 2315SOL     OW 7233   2.973   1.195   1.100
 2315SOL    HW1 7234   2.933   1.239   1.181
 2315SOL    HW2 7235   2.932   1.232   1.017
 2316SOL     OW 7236   3.500   1.099   1.079
 2316SOL    HW1 7237   3.505   1.180   1.138
 2316SOL    HW2 7238   3.414   1.101   1.028
 2317SOL     OW 7239   2.777   0.089   1.402
 2317SOL    HW1 7240   2.802   0.069   1.307
 2317SOL    HW2 7241   2.849   0.145   1.444
 2318SOL     OW 7242   2.842   1.116   1.719
 2318SOL    HW1 7243   2.743   1.122   1.729
 2318SOL    HW2 7244   2.865   1.036   1.663
 2319SOL     OW 7245   2.567   1.050   0.368
 2319SOL    HW1 7246   2.553   1.057   0.467
 2319SOL    HW2 7247   2.651   0.999   0.350
 2320SOL     OW 7248   2.272   0.813   1.251
 2320SOL    HW1 7249   2.358   0.825   1.301
 2320SOL    HW2 7250   2.230   0.726   1.278
 2321SOL     OW 7251   3.136   0.386   1.262
 2321SOL    HW1 7252   3.157   0.460   1.326
 2321SOL    HW2 7253   3.047   0.403   1.219
 2322SOL     OW 7254   1.926   1.564   1.331
 2322SOL    HW1 7255   1.880   1.646   1.297
 2322SOL    HW2 7256   2.024   1.583   1.340
 2323SOL     OW 7257   2.229   1.100   0.501
 2323SOL    HW1 7258   2.222   1.183   0.445
 2323SOL    HW2 7259   2.233   1.020   0.441
 2324SOL     OW 7260   2.428   0.537   0.865
 2324SOL    HW1 7261   2.440   0.603   0.791
 2324SOL    HW2 7262   2.474   0.571   0.948
 2325SOL     OW 7263   3.114   1.348   0.388
 2325SOL    HW1 7264   3.164   1.425   0.428
 2325SOL    HW2 7265   3.019   1.350   0.420
 2326SOL     OW 7266   3.134   1.445   1.142
 2326SOL    HW1 7267   3.181   1.458   1.229
 2326SOL    HW2 7268   3.068   1.371   1.151
 2327SOL     OW 7269   3.444   0.639   0.472
 2327SOL    HW1 7270   3.413   0.700   0.545
 2327SOL    HW2 7271   3.494   0.691   0.403
 2328SOL     OW 7272   2.216   1.510   1.329
 2328SOL    HW1 7273   2.195   1.466   1.242
 2328SOL    HW2 7274   2.313   1.536   1.332
 2329SOL     OW 7275   2.264   0.751   1.598
 2329SOL    HW1 7276   2.332   0.806   1.551
 2329SOL    HW2 7277   2.304   0.663   1.625
 2330SOL     OW 7278   3.449   0.779   1.670
 2330SOL    HW1 7279   3.357   0.817   1.665
 2330SOL    HW2 7280   3.509   0.826   1.605
 2331SOL     OW 7281   2.875   0.105   1.770
 2331SOL    HW1 7282   2.881   0.190   1.718
 2331SOL    HW2 7283   2.907   0.029   1.713
 2332SOL     OW 7284   2.366   0.050   1.740
 2332SOL    HW1 7285   2.324  -0.007   1.670
 2332SOL    HW2 7286   2.300   0.119   1.772
 2333SOL     OW 7287   2.435   0.870   1.029
 2333SOL    HW1 7288   2.479   0.959   1.020
 2333SOL    HW2 7289   2.372   0.870   1.106
 2334SOL     OW 7290   3.222   0.862   1.045
 2334SOL    HW1 7291   3.147   0.862   0.979
 2334SOL    HW2 7292   3.259   0.770   1.054
 2335SOL     OW 7293   3.071   0.525   0.275
 2335SOL    HW1 7294   3.084   0.441   0.329
 2335SOL    HW2 7295   3.042   0.599   0.335
 2336SOL     OW 7296   2.169   0.213   1.231
 2336SOL    HW1 7297   2.146   0.250   1.321
 2336SOL    HW2 7298   2.139   0.118   1.225
 2337SOL     OW 7299   1.899   1.310   1.282
 2337SOL    HW1 7300   1.952   1.261   1.350
 2337SOL    HW2 7301   1.921   1.408   1.287
 2338SOL     OW 7302   2.594   0.634   1.064
 2338SOL    HW1 7303   2.653   0.608   0.988
 2338SOL    HW2 7304   2.566   0.730   1.053
 2339SOL     OW 7305   3.590   0.935   1.854
 2339SOL    HW1 7306   3.544   0.928   1.765
 2339SOL    HW2 7307   3.528   0.979   1.920
 2340SOL     OW 7308   2.169   0.063   0.618
 2340SOL    HW1 7309   2.158   0.157   0.651
 2340SOL    HW2 7310   2.164   0.000   0.695
 2341SOL     OW 7311   3.484   0.367   0.374
 2341SOL    HW1 7312   3.486   0.291   0.438
 2341SOL    HW2 7313   3.436   0.444   0.414
 2342SOL     OW 7314   2.885   0.766   0.966
 2342SOL    HW1 7315   2.900   0.787   1.062
 2342SOL    HW2 7316   2.855   0.671   0.957
 2343SOL     OW 7317   2.842   1.573   1.700
 2343SOL    HW1 7318   2.822   1.617   1.612
 2343SOL    HW2 7319   2.881   1.482   1.684
 2344SOL     OW 7320   3.721   1.518   1.605
 2344SOL    HW1 7321   3.735   1.545   1.510
 2344SOL    HW2 7322   3.804   1.540   1.658
 2345SOL     OW 7323   2.212   0.898   1.804
 2345SOL    HW1 7324   2.288   0.942   1.852
 2345SOL    HW2 7325   2.247   0.851   1.722
 2346SOL     OW 7326   3.402   0.274   0.125
 2346SOL    HW1 7327   3.341   0.199   0.148
 2346SOL    HW2 7328   3.424   0.326   0.208
 2347SOL     OW 7329   3.165   0.838   0.042
 2347SOL    HW1 7330   3.199   0.745   0.057
 2347SOL    HW2 7331   3.183   0.865  -0.053
 2348SOL     OW 7332   2.930   1.333   0.849
 2348SOL    HW1 7333   2.937   1.249   0.794
 2348SOL    HW2 7334   2.992   1.402   0.813
 2349SOL     OW 7335   2.181   0.810   0.949
 2349SOL    HW1 7336   2.274   0.846   0.954
 2349SOL    HW2 7337   2.175   0.725   1.001
 2350SOL     OW 7338   2.201   0.509   1.006
 2350SOL    HW1 7339   2.149   0.426   0.989
 2350SOL    HW2 7340   2.278   0.514   0.942
 2351SOL     OW 7341   3.000   0.380   1.678
 2351SOL    HW1 7342   2.955   0.443   1.742
 2351SOL    HW2 7343   3.093   0.411   1.661
 2352SOL     OW 7344   3.022   0.207   1.477
 2352SOL    HW1 7345   3.022   0.271   1.554
 2352SOL    HW2 7346   3.050   0.255   1.394
 2353SOL     OW 7347   1.950   1.801   0.927
 2353SOL    HW1 7348   1.908   1.715   0.900
 2353SOL    HW2 7349   2.044   1.804   0.893
 2354SOL     OW 7350   2.366   1.568   0.910
 2354SOL    HW1 7351   2.432   1.642   0.919
 2354SOL    HW2 7352   2.410   1.489   0.868
 2355SOL     OW 7353   2.864   0.796   1.238
 2355SOL    HW1 7354   2.905   0.764   1.324
 2355SOL    HW2 7355   2.768   0.769   1.235
 2356SOL     OW 7356   1.902   0.544   1.114
 2356SOL    HW1 7357   1.987   0.511   1.073
 2356SOL    HW2 7358   1.915   0.559   1.212
 2357SOL     OW 7359   2.051   0.520   1.722
 2357SOL    HW1 7360   2.110   0.480   1.652
 2357SOL    HW2 7361   1.993   0.591   1.681
 2358SOL     OW 7362   3.231   0.950   1.660
 2358SOL    HW1 7363   3.270   1.039   1.680
 2358SOL    HW2 7364   3.241   0.930   1.563
 2359SOL     OW 7365   2.677   0.572   0.325
 2359SOL    HW1 7366   2.684   0.483   0.279
 2359SOL    HW2 7367   2.583   0.606   0.317
 2360SOL     OW 7368   3.519   0.604   1.206
 2360SOL    HW1 7369   3.481   0.535   1.268
 2360SOL    HW2 7370   3.601   0.568   1.162
 2361SOL     OW 7371   2.114   1.564   1.744
 2361SOL    HW1 7372   2.084   1.621   1.820
 2361SOL    HW2 7373   2.107   1.467   1.770
 2362SOL     OW 7374   2.533   0.464   1.269
 2362SOL    HW1 7375   2.499   0.375   1.239
 2362SOL    HW2 7376   2.559   0.518   1.189
 2363SOL     OW 7377   2.792   1.678   1.465
 2363SOL    HW1 7378   2.768   1.660   1.370
 2363SOL    HW2 7379   2.822   1.772   1.475
 2364SOL     OW 7380   2.335   0.500   0.191
 2364SOL    HW1 7381   2.396   0.580   0.195
 2364SOL    HW2 7382   2.240   0.531   0.198
 2365SOL     OW 7383   2.021   1.137   1.466
 2365SOL    HW1 7384   2.043   1.076   1.542
 2365SOL    HW2 7385   2.031   1.088   1.380
 2366SOL     OW 7386   3.209   1.059   1.234
 2366SOL    HW1 7387   3.233   0.996   1.160
 2366SOL    HW2 7388   3.119   1.099   1.216
 2367SOL     OW 7389   3.164   0.855   0.309
 2367SOL    HW1 7390   3.078   0.824   0.351
 2367SOL    HW2 7391   3.160   0.841   0.210
 2368SOL     OW 7392   3.621   1.747   1.154
 2368SOL    HW1 7393   3.682   1.777   1.081
 2368SOL    HW2 7394   3.583   1.658   1.132
 2369SOL     OW 7395   3.114   1.731   1.128
 2369SOL    HW1 7396   3.198   1.736   1.074
 2369SOL    HW2 7397   3.091   1.635   1.146
 2370SOL     OW 7398   1.945   1.258   1.022
 2370SOL    HW1 7399   1.940   1.257   1.122
 2370SOL    HW2 7400   1.862   1.217   0.984
 2371SOL     OW 7401   2.550   1.662   1.716
 2371SOL    HW1 7402   2.494   1.743   1.725
 2371SOL    HW2 7403   2.602   1.666   1.630
 2372SOL     OW 7404   2.765   0.086   0.133
 2372SOL    HW1 7405   2.816   0.087   0.047
 2372SOL    HW2 7406   2.821   0.044   0.204
 2373SOL     OW 7407   3.588   0.135   0.523
 2373SOL    HW1 7408   3.661   0.118   0.456
 2373SOL    HW2 7409   3.557   0.048   0.561
 2374SOL     OW 7410   3.250   1.573   0.477
 2374SOL    HW1 7411   3.317   1.585   0.403
 2374SOL    HW2 7412   3.210   1.662   0.500
 2375SOL     OW 7413   1.992   1.794   1.851
 2375SOL    HW1 7414   1.951   1.720   1.904
 2375SOL    HW2 7415   2.056   1.845   1.909
 2376SOL     OW 7416   3.142   0.927   0.672
 2376SOL    HW1 7417   3.202   0.846   0.674
 2376SOL    HW2 7418   3.182   0.996   0.612
 2377SOL     OW 7419   2.692   1.273   1.422
 2377SOL    HW1 7420   2.687   1.306   1.517
 2377SOL    HW2 7421   2.606   1.292   1.376
 2378SOL     OW 7422   2.534   1.616   0.154
 2378SOL    HW1 7423   2.543   1.626   0.055
 2378SOL    HW2 7424   2.494   1.527   0.175
 2379SOL     OW 7425   3.512   1.720   1.394
 2379SOL    HW1 7426   3.565   1.730   1.310
 2379SOL    HW2 7427   3.485   1.810   1.428
 2380SOL     OW 7428   3.703   0.175   0.963
 2380SOL    HW1 7429   3.742   0.090   0.927
 2380SOL    HW2 7430   3.605   0.177   0.944
 2381SOL     OW 7431   2.125   0.326   0.720
 2381SOL    HW1 7432   2.046   0.377   0.686
 2381SOL    HW2 7433   2.116   0.311   0.818
 2382SOL     OW 7434   3.056   1.612   0.031
 2382SOL    HW1 7435   3.062   1.519   0.068
 2382SOL    HW2 7436   2.997   1.612  -0.049
 2383SOL     OW 7437   2.684   1.002   1.372
 2383SOL    HW1 7438   2.724   1.001   1.280
 2383SOL    HW2 7439   2.694   1.094   1.412
 2384SOL     OW 7440   2.778   0.910   0.291
 2384SOL    HW1 7441   2.841   0.948   0.223
 2384SOL    HW2 7442   2.818   0.827   0.330
 2385SOL     OW 7443   3.366   1.607   0.044
 2385SOL    HW1 7444   3.274   1.644   0.051
 2385SOL    HW2 7445   3.404   1.627  -0.046
 2386SOL     OW 7446   2.234   1.288   1.490
 2386SOL    HW1 7447   2.221   1.381   1.456
 2386SOL    HW2 7448   2.150   1.236   1.477
 2387SOL     OW 7449   3.476   1.292   1.289
 2387SOL    HW1 7450   3.536   1.295   1.369
 2387SOL    HW2 7451   3.401   1.356   1.302
 2388SOL     OW 7452   2.901   1.098   0.696
 2388SOL    HW1 7453   2.831   1.051   0.750
 2388SOL    HW2 7454   2.960   1.030   0.653
 2389SOL     OW 7455   2.876   0.236   0.971
 2389SOL    HW1 7456   2.868   0.200   0.878
 2389SOL    HW2 7457   2.874   0.160   1.036
 2390SOL     OW 7458   2.452   1.487   0.491
 2390SOL    HW1 7459   2.494   1.429   0.421
 2390SOL    HW2 7460   2.408   1.566   0.447
 2391SOL     OW 7461   3.571   0.385   1.381
 2391SOL    HW1 7462   3.644   0.454   1.385
 2391SOL    HW2 7463   3.599   0.310   1.322
 2392SOL     OW 7464   2.117   1.348   0.290
 2392SOL    HW1 7465   2.021   1.349   0.263
 2392SOL    HW2 7466   2.129   1.401   0.374
 2393SOL     OW 7467   1.967   1.013   1.726
 2393SOL    HW1 7468   1.890   0.980   1.780
 2393SOL    HW2 7469   2.052   0.983   1.768
 2394SOL     OW 7470   2.534   0.203   1.489
 2394SOL    HW1 7471   2.624   0.187   1.449
 2394SOL    HW2 7472   2.542   0.208   1.588
 2395SOL     OW 7473   1.937   0.345   0.033
 2395SOL    HW1 7474   1.845   0.317   0.004
 2395SOL    HW2 7475   1.968   0.422  -0.023
 2396SOL     OW 7476   3.302   0.856   1.398
 2396SOL    HW1 7477   3.245   0.908   1.335
 2396SOL    HW2 7478   3.398   0.868   1.374
 2397SOL     OW 7479   1.934   0.166   0.318
 2397SOL    HW1 7480   1.917   0.249   0.264
 2397SOL    HW2 7481   2.024   0.129   0.296
 2398SOL     OW 7482   3.045   1.335   0.119
 2398SOL    HW1 7483   2.946   1.324   0.121
 2398SOL    HW2 7484   3.079   1.350   0.212
 2399SOL     OW 7485   2.475   0.842   1.431
 2399SOL    HW1 7486   2.531   0.923   1.414
 2399SOL    HW2 7487   2.534   0.762   1.434
 2400SOL     OW 7488   3.355   1.767   0.959
 2400SOL    HW1 7489   3.388   1.831   0.890
 2400SOL    HW2 7490   3.421   1.761   1.034
 2401SOL     OW 7491   2.578   0.565   1.708
 2401SOL    HW1 7492   2.597   0.630   1.782
 2401SOL    HW2 7493   2.638   0.485   1.717
 2402SOL     OW 7494   3.312   1.220   1.633
 2402SOL    HW1 7495   3.303   1.210   1.732
 2402SOL    HW2 7496   3.408   1.213   1.607
 2403SOL     OW 7497   2.252   1.741   1.560
 2403SOL    HW1 7498   2.161   1.782   1.558
 2403SOL    HW2 7499   2.245   1.647   1.592
 2404SOL     OW 7500   3.536   0.883   1.254
 2404SOL    HW1 7501   3.509   0.794   1.217
 2404SOL    HW2 7502   3.537   0.951   1.181
 2405SOL     OW 7503   3.087   0.325   0.449
 2405SOL    HW1 7504   3.152   0.251   0.438
 2405SOL    HW2 7505   3.107   0.375   0.533
 2406SOL     OW 7506   2.456   0.745   0.652
 2406SOL    HW1 7507   2.506   0.830   0.633
 2406SOL    HW2 7508   2.368   0.747   0.604
 2407SOL     OW 7509   3.639   0.342   1.642
 2407SOL    HW1 7510   3.622   0.373   1.548
 2407SOL    HW2 7511   3.555   0.305   1.680
 2408SOL     OW 7512   3.592   0.934   1.517
 2408SOL    HW1 7513   3.630   1.025   1.532
 2408SOL    HW2 7514   3.584   0.917   1.418
 2409SOL     OW 7515   2.721   1.374   0.016
 2409SOL    HW1 7516   2.675   1.389   0.104
 2409SOL    HW2 7517   2.765   1.459  -0.014
 2410SOL     OW 7518   2.523   1.790   0.953
 2410SOL    HW1 7519   2.477   1.878   0.940
 2410SOL    HW2 7520   2.622   1.802   0.946
 2411SOL     OW 7521   2.721   0.956   0.861
 2411SOL    HW1 7522   2.775   0.887   0.909
 2411SOL    HW2 7523   2.689   1.025   0.927
 2412SOL     OW 7524   2.945   0.984   0.087
 2412SOL    HW1 7525   2.922   1.037   0.005
 2412SOL    HW2 7526   3.026   0.928   0.068
 2413SOL     OW 7527   3.723   1.569   0.851
 2413SOL    HW1 7528   3.652   1.557   0.781
 2413SOL    HW2 7529   3.724   1.490   0.911
 2414SOL     OW 7530   2.083   1.314   1.844
 2414SOL    HW1 7531   2.018   1.241   1.823
 2414SOL    HW2 7532   2.087   1.328   1.942
 2415SOL     OW 7533   1.941   1.240   0.653
 2415SOL    HW1 7534   1.940   1.193   0.741
 2415SOL    HW2 7535   2.023   1.212   0.602
 2416SOL     OW 7536   2.534   1.391   1.624
 2416SOL    HW1 7537   2.456   1.341   1.662
 2416SOL    HW2 7538   2.531   1.486   1.655
 2417SOL     OW 7539   3.686   0.192   1.227
 2417SOL    HW1 7540   3.682   0.102   1.271
 2417SOL    HW2 7541   3.689   0.181   1.128
 2418SOL     OW 7542   2.290   0.424   0.520
 2418SOL    HW1 7543   2.320   0.352   0.458
 2418SOL    HW2 7544   2.251   0.384   0.603
 2419SOL     OW 7545   3.567   1.487   1.104
 2419SOL    HW1 7546   3.474   1.462   1.077
 2419SOL    HW2 7547   3.593   1.437   1.186
 2420SOL     OW 7548   2.179   0.547   1.280
 2420SOL    HW1 7549   2.217   0.488   1.352
 2420SOL    HW2 7550   2.219   0.521   1.192
 2421SOL     OW 7551   2.674   1.586   0.687
 2421SOL    HW1 7552   2.706   1.596   0.593
 2421SOL    HW2 7553   2.595   1.524   0.689
 2422SOL     OW 7554   3.286   0.214   1.112
 2422SOL    HW1 7555   3.338   0.149   1.167
 2422SOL    HW2 7556   3.237   0.277   1.173
 2423SOL     OW 7557   2.863   0.034   1.154
 2423SOL    HW1 7558   2.800  -0.038   1.123
 2423SOL    HW2 7559   2.956  -0.002   1.154
 2424SOL     OW 7560   2.632   1.330   0.301
 2424SOL    HW1 7561   2.586   1.243   0.318
 2424SOL    HW2 7562   2.723   1.327   0.342
 2425SOL     OW 7563   2.480   1.567   1.284
 2425SOL    HW1 7564   2.475   1.649   1.341
 2425SOL    HW2 7565   2.569   1.564   1.239
 2426SOL     OW 7566   3.214   0.052   0.168
 2426SOL    HW1 7567   3.249   0.011   0.084
 2426SOL    HW2 7568   3.124   0.014   0.188
 2427SOL     OW 7569   3.162   0.453   0.691
 2427SOL    HW1 7570   3.103   0.533   0.695
 2427SOL    HW2 7571   3.177   0.418   0.784
 2428SOL     OW 7572   3.455   0.221   0.882
 2428SOL    HW1 7573   3.371   0.220   0.936
 2428SOL    HW2 7574   3.457   0.304   0.826
 2429SOL     OW 7575   1.901   1.077   0.300
 2429SOL    HW1 7576   2.000   1.066   0.291
 2429SOL    HW2 7577   1.861   0.991   0.332
 2430SOL     OW 7578   2.737   1.646   0.337
 2430SOL    HW1 7579   2.660   1.611   0.283
 2430SOL    HW2 7580   2.705   1.717   0.399
 2431SOL     OW 7581   2.092   0.628   1.975
 2431SOL    HW1 7582   1.999   0.626   2.012
 2431SOL    HW2 7583   2.093   0.589   1.883
 2432SOL     OW 7584   2.087   0.275   2.858
 2432SOL    HW1 7585   2.122   0.258   2.950
 2432SOL    HW2 7586   1.999   0.230   2.846
 2433SOL     OW 7587   1.881   0.368   2.509
 2433SOL    HW1 7588   1.799   0.411   2.548
 2433SOL    HW2 7589   1.853   0.295   2.446
 2434SOL     OW 7590   2.431   1.275   3.027
 2434SOL    HW1 7591   2.338   1.268   2.990
 2434SOL    HW2 7592   2.442   1.364   3.071
 2435SOL     OW 7593   3.417   1.511   2.565
 2435SOL    HW1 7594   3.360   1.495   2.646
 2435SOL    HW2 7595   3.358   1.521   2.485
 2436SOL     OW 7596   2.997   0.703   2.579
 2436SOL    HW1 7597   3.054   0.781   2.554
 2436SOL    HW2 7598   2.937   0.729   2.655
 2437SOL     OW 7599   3.617   0.607   2.093
 2437SOL    HW1 7600   3.605   0.594   1.994
 2437SOL    HW2 7601   3.587   0.526   2.142
 2438SOL     OW 7602   2.630   1.144   2.885
 2438SOL    HW1 7603   2.552   1.161   2.945
 2438SOL    HW2 7604   2.664   1.231   2.849
 2439SOL     OW 7605   2.712   0.798   3.685
 2439SOL    HW1 7606   2.708   0.874   3.750
 2439SOL    HW2 7607   2.734   0.834   3.594
 2440SOL     OW 7608   2.547   1.012   2.527
 2440SOL    HW1 7609   2.616   0.996   2.597
 2440SOL    HW2 7610   2.474   1.069   2.565
 2441SOL     OW 7611   2.548   1.161   3.665
 2441SOL    HW1 7612   2.608   1.240   3.679
 2441SOL    HW2 7613   2.462   1.192   3.624
 2442SOL     OW 7614   2.197   1.435   2.923
 2442SOL    HW1 7615   2.119   1.404   2.870
 2442SOL    HW2 7616   2.255   1.493   2.866
 2443SOL     OW 7617   3.322   1.505   3.201
 2443SOL    HW1 7618   3.346   1.599   3.227
 2443SOL    HW2 7619   3.306   1.451   3.283
 2444SOL     OW 7620   2.300   0.392   3.361
 2444SOL    HW1 7621   2.382   0.336   3.370
 2444SOL    HW2 7622   2.219   0.334   3.365
 2445SOL     OW 7623   3.465   0.447   2.599
 2445SOL    HW1 7624   3.391   0.493   2.549
 2445SOL    HW2 7625   3.516   0.515   2.652
 2446SOL     OW 7626   2.093   1.713   2.345
 2446SOL    HW1 7627   2.127   1.790   2.399
 2446SOL    HW2 7628   2.137   1.713   2.255
 2447SOL     OW 7629   2.989   1.341   3.552
 2447SOL    HW1 7630   3.036   1.341   3.640
 2447SOL    HW2 7631   2.941   1.254   3.541
 2448SOL     OW 7632   2.092   1.434   2.400
 2448SOL    HW1 7633   2.066   1.530   2.400
 2448SOL    HW2 7634   2.021   1.380   2.445
 2449SOL     OW 7635   2.102   1.091   2.748
 2449SOL    HW1 7636   2.116   1.007   2.800
 2449SOL    HW2 7637   2.047   1.155   2.803
 2450SOL     OW 7638   2.482   1.786   3.301
 2450SOL    HW1 7639   2.390   1.769   3.336
 2450SOL    HW2 7640   2.510   1.878   3.327
 2451SOL     OW 7641   2.468   0.964   1.985
 2451SOL    HW1 7642   2.475   1.048   1.931
 2451SOL    HW2 7643   2.514   0.977   2.073
 2452SOL     OW 7644   3.456   0.114   3.342
 2452SOL    HW1 7645   3.438   0.181   3.270
 2452SOL    HW2 7646   3.453   0.160   3.431
 2453SOL     OW 7647   1.984   0.643   2.425
 2453SOL    HW1 7648   1.939   0.555   2.442
 2453SOL    HW2 7649   1.983   0.697   2.509
 2454SOL     OW 7650   3.704   1.767   2.221
 2454SOL    HW1 7651   3.758   1.738   2.301
 2454SOL    HW2 7652   3.734   1.857   2.192
 2455SOL     OW 7653   1.889   1.596   1.979
 2455SOL    HW1 7654   1.870   1.500   2.000
 2455SOL    HW2 7655   1.856   1.654   2.054
 2456SOL     OW 7656   3.551   0.922   2.474
 2456SOL    HW1 7657   3.646   0.893   2.482
 2456SOL    HW2 7658   3.543   0.987   2.399
 2457SOL     OW 7659   3.503   1.108   2.294
 2457SOL    HW1 7660   3.589   1.110   2.242
 2457SOL    HW2 7661   3.517   1.155   2.382
 2458SOL     OW 7662   1.975   0.737   3.459
 2458SOL    HW1 7663   2.063   0.724   3.504
 2458SOL    HW2 7664   1.962   0.834   3.437
 2459SOL     OW 7665   2.475   1.365   2.588
 2459SOL    HW1 7666   2.426   1.278   2.597
 2459SOL    HW2 7667   2.452   1.408   2.501
 2460SOL     OW 7668   3.155   1.228   3.285
 2460SOL    HW1 7669   3.192   1.155   3.227
 2460SOL    HW2 7670   3.207   1.233   3.370
 2461SOL     OW 7671   2.671   0.004   2.364
 2461SOL    HW1 7672   2.711   0.095   2.355
 2461SOL    HW2 7673   2.571   0.012   2.370
 2462SOL     OW 7674   2.059   0.976   3.126
 2462SOL    HW1 7675   2.148   0.931   3.112
 2462SOL    HW2 7676   1.986   0.911   3.107
 2463SOL     OW 7677   3.387   0.999   2.052
 2463SOL    HW1 7678   3.324   0.923   2.065
 2463SOL    HW2 7679   3.435   1.017   2.138
 2464SOL     OW 7680   3.049   1.792   3.478
 2464SOL    HW1 7681   3.073   1.852   3.402
 2464SOL    HW2 7682   3.056   1.697   3.448
 2465SOL     OW 7683   2.179   0.251   3.663
 2465SOL    HW1 7684   2.250   0.322   3.669
 2465SOL    HW2 7685   2.091   0.290   3.691
 2466SOL     OW 7686   3.328   1.417   2.815
 2466SOL    HW1 7687   3.269   1.423   2.895
 2466SOL    HW2 7688   3.313   1.329   2.769
 2467SOL     OW 7689   3.529   1.714   2.434
 2467SOL    HW1 7690   3.488   1.691   2.346
 2467SOL    HW2 7691   3.511   1.640   2.499
 2468SOL     OW 7692   2.460   0.729   2.132
 2468SOL    HW1 7693   2.484   0.798   2.064
 2468SOL    HW2 7694   2.382   0.762   2.186
 2469SOL     OW 7695   3.143   0.345   2.806
 2469SOL    HW1 7696   3.057   0.295   2.793
 2469SOL    HW2 7697   3.205   0.291   2.862
 2470SOL     OW 7698   3.438   1.662   2.169
 2470SOL    HW1 7699   3.527   1.708   2.172
 2470SOL    HW2 7700   3.417   1.638   2.074
 2471SOL     OW 7701   2.669   0.605   3.327
 2471SOL    HW1 7702   2.622   0.602   3.416
 2471SOL    HW2 7703   2.618   0.550   3.261
 2472SOL     OW 7704   3.256   0.469   3.536
 2472SOL    HW1 7705   3.236   0.512   3.624
 2472SOL    HW2 7706   3.334   0.407   3.545
 2473SOL     OW 7707   2.835   0.890   3.434
 2473SOL    HW1 7708   2.881   0.806   3.405
 2473SOL    HW2 7709   2.779   0.924   3.359
 2474SOL     OW 7710   2.853   0.410   3.104
 2474SOL    HW1 7711   2.776   0.444   3.158
 2474SOL    HW2 7712   2.819   0.359   3.025
 2475SOL     OW 7713   2.903   0.701   2.291
 2475SOL    HW1 7714   2.929   0.697   2.387
 2475SOL    HW2 7715   2.818   0.650   2.277
 2476SOL     OW 7716   1.938   0.811   2.651
 2476SOL    HW1 7717   2.037   0.799   2.660
 2476SOL    HW2 7718   1.914   0.906   2.672
 2477SOL     OW 7719   1.992   1.821   3.433
 2477SOL    HW1 7720   1.982   1.806   3.532
 2477SOL    HW2 7721   1.906   1.857   3.397
 2478SOL     OW 7722   2.727   0.348   2.057
 2478SOL    HW1 7723   2.786   0.411   2.008
 2478SOL    HW2 7724   2.746   0.254   2.028
 2479SOL     OW 7725   3.581   0.585   3.693
 2479SOL    HW1 7726   3.555   0.674   3.657
 2479SOL    HW2 7727   3.579   0.517   3.620
 2480SOL     OW 7728   3.224   1.144   2.407
 2480SOL    HW1 7729   3.307   1.115   2.359
 2480SOL    HW2 7730   3.175   1.211   2.351
 2481SOL     OW 7731   2.412   0.196   2.747
 2481SOL    HW1 7732   2.407   0.191   2.847
 2481SOL    HW2 7733   2.414   0.292   2.718
 2482SOL     OW 7734   2.870   1.456   2.339
 2482SOL    HW1 7735   2.824   1.528   2.287
 2482SOL    HW2 7736   2.866   1.476   2.437
 2483SOL     OW 7737   2.213   1.801   2.715
 2483SOL    HW1 7738   2.263   1.715   2.721
 2483SOL    HW2 7739   2.278   1.878   2.712
 2484SOL     OW 7740   3.657   1.066   2.735
 2484SOL    HW1 7741   3.595   1.051   2.659
 2484SOL    HW2 7742   3.605   1.077   2.820
 2485SOL     OW 7743   3.089   1.550   3.368
 2485SOL    HW1 7744   3.095   1.473   3.432
 2485SOL    HW2 7745   3.037   1.524   3.288
 2486SOL     OW 7746   2.183   0.943   2.104
 2486SOL    HW1 7747   2.265   0.982   2.062
 2486SOL    HW2 7748   2.156   0.861   2.055
 2487SOL     OW 7749   3.320   0.735   2.590
 2487SOL    HW1 7750   3.315   0.670   2.665
 2487SOL    HW2 7751   3.400   0.794   2.603
 2488SOL     OW 7752   2.323   1.266   3.589
 2488SOL    HW1 7753   2.273   1.267   3.503
 2488SOL    HW2 7754   2.260   1.248   3.665
 2489SOL     OW 7755   2.973   1.776   2.099
 2489SOL    HW1 7756   2.913   1.714   2.149
 2489SOL    HW2 7757   3.004   1.732   2.014
 2490SOL     OW 7758   2.064   0.285   3.360
 2490SOL    HW1 7759   1.984   0.345   3.347
 2490SOL    HW2 7760   2.054   0.236   3.446
 2491SOL     OW 7761   3.494   1.377   1.943
 2491SOL    HW1 7762   3.462   1.471   1.933
 2491SOL    HW2 7763   3.418   1.314   1.931
 2492SOL     OW 7764   2.326   1.743   2.185
 2492SOL    HW1 7765   2.359   1.782   2.271
 2492SOL    HW2 7766   2.402   1.736   2.120
 2493SOL     OW 7767   3.262   0.107   2.288
 2493SOL    HW1 7768   3.238   0.070   2.198
 2493SOL    HW2 7769   3.361   0.123   2.292
 2494SOL     OW 7770   2.111   1.785   3.103
 2494SOL    HW1 7771   2.168   1.720   3.153
 2494SOL    HW2 7772   2.095   1.752   3.010
 2495SOL     OW 7773   2.802   1.698   2.766
 2495SOL    HW1 7774   2.882   1.641   2.787
 2495SOL    HW2 7775   2.753   1.658   2.689
 2496SOL     OW 7776   2.244   0.700   2.342
 2496SOL    HW1 7777   2.289   0.610   2.339
 2496SOL    HW2 7778   2.150   0.689   2.375
 2497SOL     OW 7779   3.409   0.222   3.591
 2497SOL    HW1 7780   3.404   0.259   3.683
 2497SOL    HW2 7781   3.337   0.153   3.579
 2498SOL     OW 7782   2.476   0.122   1.979
 2498SOL    HW1 7783   2.574   0.100   1.986
 2498SOL    HW2 7784   2.445   0.105   1.886
 2499SOL     OW 7785   2.643   0.264   3.611
 2499SOL    HW1 7786   2.710   0.203   3.654
 2499SOL    HW2 7787   2.570   0.283   3.676
 2500SOL     OW 7788   2.750   1.514   3.057
 2500SOL    HW1 7789   2.727   1.489   2.963
 2500SOL    HW2 7790   2.811   1.445   3.096
 2501SOL     OW 7791   3.213   0.590   3.295
 2501SOL    HW1 7792   3.241   0.547   3.380
 2501SOL    HW2 7793   3.238   0.686   3.296
 2502SOL     OW 7794   2.665   1.402   2.786
 2502SOL    HW1 7795   2.755   1.416   2.744
 2502SOL    HW2 7796   2.594   1.404   2.715
 2503SOL     OW 7797   2.784   0.503   2.761
 2503SOL    HW1 7798   2.759   0.494   2.665
 2503SOL    HW2 7799   2.832   0.421   2.792
 2504SOL     OW 7800   2.401   0.064   2.374
 2504SOL    HW1 7801   2.320   0.065   2.432
 2504SOL    HW2 7802   2.404   0.147   2.319
 2505SOL     OW 7803   3.296   1.188   1.903
 2505SOL    HW1 7804   3.328   1.112   1.960
 2505SOL    HW2 7805   3.204   1.215   1.933
 2506SOL     OW 7806   2.159   0.035   2.033
 2506SOL    HW1 7807   2.208   0.119   2.012
 2506SOL    HW2 7808   2.221  -0.030   2.078
 2507SOL     OW 7809   2.797   0.236   2.342
 2507SOL    HW1 7810   2.749   0.277   2.264
 2507SOL    HW2 7811   2.896   0.234   2.323
 2508SOL     OW 7812   2.938   0.683   3.326
 2508SOL    HW1 7813   2.858   0.622   3.329
 2508SOL    HW2 7814   3.019   0.630   3.302
 2509SOL     OW 7815   3.089   1.570   2.655
 2509SOL    HW1 7816   3.110   1.644   2.590
 2509SOL    HW2 7817   3.157   1.570   2.728
 2510SOL     OW 7818   2.321   1.152   2.603
 2510SOL    HW1 7819   2.250   1.125   2.668
 2510SOL    HW2 7820   2.295   1.124   2.510
 2511SOL     OW 7821   3.133   1.797   2.453
 2511SOL    HW1 7822   3.177   1.861   2.389
 2511SOL    HW2 7823   3.083   1.849   2.523
 2512SOL     OW 7824   2.894   0.549   1.878
 2512SOL    HW1 7825   2.853   0.631   1.839
 2512SOL    HW2 7826   2.958   0.575   1.951
 2513SOL     OW 7827   1.940   0.556   3.248
 2513SOL    HW1 7828   2.032   0.555   3.207
 2513SOL    HW2 7829   1.934   0.630   3.315
 2514SOL     OW 7830   2.423   0.222   3.009
 2514SOL    HW1 7831   2.461   0.138   3.046
 2514SOL    HW2 7832   2.335   0.241   3.053
 2515SOL     OW 7833   2.728   0.454   2.504
 2515SOL    HW1 7834   2.696   0.526   2.442
 2515SOL    HW2 7835   2.752   0.373   2.451
 2516SOL     OW 7836   2.879   0.039   2.615
 2516SOL    HW1 7837   2.807   0.044   2.546
 2516SOL    HW2 7838   2.855  -0.030   2.684
 2517SOL     OW 7839   3.291   1.173   2.729
 2517SOL    HW1 7840   3.236   1.089   2.722
 2517SOL    HW2 7841   3.317   1.202   2.637
 2518SOL     OW 7842   3.328   0.590   2.854
 2518SOL    HW1 7843   3.298   0.495   2.861
 2518SOL    HW2 7844   3.401   0.606   2.920
 2519SOL     OW 7845   3.719   0.833   2.239
 2519SOL    HW1 7846   3.761   0.769   2.303
 2519SOL    HW2 7847   3.681   0.782   2.161
 2520SOL     OW 7848   2.350   1.385   2.036
 2520SOL    HW1 7849   2.263   1.370   2.083
 2520SOL    HW2 7850   2.333   1.411   1.941
 2521SOL     OW 7851   3.526   1.280   2.519
 2521SOL    HW1 7852   3.625   1.288   2.533
 2521SOL    HW2 7853   3.481   1.364   2.550
 2522SOL     OW 7854   3.252   0.575   1.940
 2522SOL    HW1 7855   3.198   0.554   2.021
 2522SOL    HW2 7856   3.343   0.534   1.949
 2523SOL     OW 7857   2.389   0.256   2.190
 2523SOL    HW1 7858   2.416   0.197   2.115
 2523SOL    HW2 7859   2.389   0.351   2.159
 2524SOL     OW 7860   3.616   1.223   3.450
 2524SOL    HW1 7861   3.707   1.184   3.437
 2524SOL    HW2 7862   3.624   1.319   3.474
 2525SOL     OW 7863   2.926   1.347   3.202
 2525SOL    HW1 7864   2.846   1.324   3.257
 2525SOL    HW2 7865   3.009   1.321   3.251
 2526SOL     OW 7866   3.454   1.629   3.487
 2526SOL    HW1 7867   3.481   1.663   3.397
 2526SOL    HW2 7868   3.533   1.591   3.533
 2527SOL     OW 7869   2.973   1.195   2.962
 2527SOL    HW1 7870   2.933   1.239   3.043
 2527SOL    HW2 7871   2.932   1.232   2.879
 2528SOL     OW 7872   3.500   1.099   2.941
 2528SOL    HW1 7873   3.505   1.180   3.000
 2528SOL    HW2 7874   3.414   1.101   2.890
 2529SOL     OW 7875   2.777   0.089   3.264
 2529SOL    HW1 7876   2.802   0.069   3.169
 2529SOL    HW2 7877   2.849   0.145   3.306
 2530SOL     OW 7878   2.842   1.116   3.581
 2530SOL    HW1 7879   2.743   1.122   3.591
 2530SOL    HW2 7880   2.865   1.036   3.525
 2531SOL     OW 7881   2.567   1.050   2.230
 2531SOL    HW1 7882   2.553   1.057   2.329
 2531SOL    HW2 7883   2.651   0.999   2.212
 2532SOL     OW 7884   2.272   0.813   3.113
 2532SOL    HW1 7885   2.358   0.825   3.163
 2532SOL    HW2 7886   2.230   0.726   3.140
 2533SOL     OW 7887   3.136   0.386   3.124
 2533SOL    HW1 7888   3.157   0.460   3.188
 2533SOL    HW2 7889   3.047   0.403   3.081
 2534SOL     OW 7890   1.926   1.564   3.193
 2534SOL    HW1 7891   1.880   1.646   3.159
 2534SOL    HW2 7892   2.024   1.583   3.202
 2535SOL     OW 7893   2.229   1.100   2.363
 2535SOL    HW1 7894   2.222   1.183   2.307
 2535SOL    HW2 7895   2.233   1.020   2.303
 2536SOL     OW 7896   2.428   0.537   2.727
 2536SOL    HW1 7897   2.440   0.603   2.653
 2536SOL    HW2 7898   2.474   0.571   2.810
 2537SOL     OW 7899   3.114   1.348   2.250
 2537SOL    HW1 7900   3.164   1.425   2.290
 2537SOL    HW2 7901   3.019   1.350   2.282
 2538SOL     OW 7902   3.134   1.445   3.004
 2538SOL    HW1 7903   3.181   1.458   3.091
 2538SOL    HW2 7904   3.068   1.371   3.013
 2539SOL     OW 7905   3.444   0.639   2.334
 2539SOL    HW1 7906   3.413   0.700   2.407
 2539SOL    HW2 7907   3.494   0.691   2.265
 2540SOL     OW 7908   2.216   1.510   3.191
 2540SOL    HW1 7909   2.195   1.466   3.104
 2540SOL    HW2 7910   2.313   1.536   3.194
 2541SOL     OW 7911   2.264   0.751   3.460
 2541SOL    HW1 7912   2.332   0.806   3.413
 2541SOL    HW2 7913   2.304   0.663   3.487
 2542SOL     OW 7914   3.449   0.779   3.532
 2542SOL    HW1 7915   3.357   0.817   3.527
 2542SOL    HW2 7916   3.509   0.826   3.467
 2543SOL     OW 7917   2.875   0.105   3.632
 2543SOL    HW1 7918   2.881   0.190   3.580
 2543SOL    HW2 7919   2.907   0.029   3.575
 2544SOL     OW 7920   2.366   0.050   3.602
 2544SOL    HW1 7921   2.324  -0.007   3.532
 2544SOL    HW2 7922   2.300   0.119   3.634
 2545SOL     OW 7923   2.435   0.870   2.891
 2545SOL    HW1 7924   2.479   0.959   2.882
 2545SOL    HW2 7925   2.372   0.870   2.968
 2546SOL     OW 7926   3.222   0.862   2.907
 2546SOL    HW1 7927   3.147   0.862   2.841
 2546SOL    HW2 7928   3.259   0.770   2.916
 2547SOL     OW 7929   3.071   0.525   2.137
 2547SOL    HW1 7930   3.084   0.441   2.191
 2547SOL    HW2 7931   3.042   0.599   2.197
 2548SOL     OW 7932   2.169   0.213   3.093
 2548SOL    HW1 7933   2.146   0.250   3.183
 2548SOL    HW2 7934   2.139   0.118   3.087
 2549SOL     OW 7935   1.899   1.310   3.144
 2549SOL    HW1 7936   1.952   1.261   3.212
 2549SOL    HW2 7937   1.921   1.408   3.149
 2550SOL     OW 7938   2.594   0.634   2.926
 2550SOL    HW1 7939   2.653   0.608   2.850
 2550SOL    HW2 7940   2.566   0.730   2.915
 2551SOL     OW 7941   3.590   0.935   3.716
 2551SOL    HW1 7942   3.544   0.928   3.627
 2551SOL    HW2 7943   3.528   0.979   3.782
 2552SOL     OW 7944   2.169   0.063   2.480
 2552SOL    HW1 7945   2.158   0.157   2.513
 2552SOL    HW2 7946   2.164   0.000   2.557
 2553SOL     OW 7947   3.484   0.367   2.236
 2553SOL    HW1 7948   3.486   0.291   2.300
 2553SOL    HW2 7949   3.436   0.444   2.276
 2554SOL     OW 7950   2.885   0.766   2.828
 2554SOL    HW1 7951   2.900   0.787   2.924
 2554SOL    HW2 7952   2.855   0.671   2.819
 2555SOL     OW 7953   2.842   1.573   3.562
 2555SOL    HW1 7954   2.822   1.617   3.474
 2555SOL    HW2 7955   2.881   1.482   3.546
 2556SOL     OW 7956   3.721   1.518   3.467
 2556SOL    HW1 7957   3.735   1.545   3.372
 2556SOL    HW2 7958   3.804   1.540   3.520
 2557SOL     OW 7959   2.212   0.898   3.666
 2557SOL    HW1 7960   2.288   0.942   3.714
 2557SOL    HW2 7961   2.247   0.851   3.584
 2558SOL     OW 7962   3.402   0.274   1.987
 2558SOL    HW1 7963   3.341   0.199   2.010
 2558SOL    HW2 7964   3.424   0.326   2.070
 2559SOL     OW 7965   3.165   0.838   1.904
 2559SOL    HW1 7966   3.199   0.745   1.919
 2559SOL    HW2 7967   3.183   0.865   1.809
 2560SOL     OW 7968   2.930   1.333   2.711
 2560SOL    HW1 7969   2.937   1.249   2.656
 2560SOL    HW2 7970   2.992   1.402   2.675
 2561SOL     OW 7971   2.181   0.810   2.811
 2561SOL    HW1 7972   2.274   0.846   2.816
 2561SOL    HW2 7973   2.175   0.725   2.863
 2562SOL     OW 7974   2.201   0.509   2.868
 2562SOL    HW1 7975   2.149   0.426   2.851
 2562SOL    HW2 7976   2.278   0.514   2.804
 2563SOL     OW 7977   3.000   0.380   3.540
 2563SOL    HW1 7978   2.955   0.443   3.604
 2563SOL    HW2 7979   3.093   0.411   3.523
 2564SOL     OW 7980   3.022   0.207   3.339
 2564SOL    HW1 7981   3.022   0.271   3.416
 2564SOL    HW2 7982   3.050   0.255   3.256
 2565SOL     OW 7983   1.870   1.326   2.062
 2565SOL    HW1 7984   1.777   1.347   2.031
 2565SOL    HW2 7985   1.880   1.227   2.075
 2566SOL     OW 7986   1.950   1.801   2.789
 2566SOL    HW1 7987   1.908   1.715   2.762
 2566SOL    HW2 7988   2.044   1.804   2.755
 2567SOL     OW 7989   2.366   1.568   2.772
 2567SOL    HW1 7990   2.432   1.642   2.781
 2567SOL    HW2 7991   2.410   1.489   2.730
 2568SOL     OW 7992   2.864   0.796   3.100
 2568SOL    HW1 7993   2.905   0.764   3.186
 2568SOL    HW2 7994   2.768   0.769   3.097
 2569SOL     OW 7995   1.902   0.544   2.976
 2569SOL    HW1 7996   1.987   0.511   2.935
 2569SOL    HW2 7997   1.915   0.559   3.074
 2570SOL     OW 7998   2.051   0.520   3.584
 2570SOL    HW1 7999   2.110   0.480   3.514
 2570SOL    HW2 8000   1.993   0.591   3.543
 2571SOL     OW 8001   3.231   0.950   3.522
 2571SOL    HW1 8002   3.270   1.039   3.542
 2571SOL    HW2 8003   3.241   0.930   3.425
 2572SOL     OW 8004   2.677   0.572   2.187
 2572SOL    HW1 8005   2.684   0.483   2.141
 2572SOL    HW2 8006   2.583   0.606   2.179
 2573SOL     OW 8007   3.519   0.604   3.068
 2573SOL    HW1 8008   3.481   0.535   3.130
 2573SOL    HW2 8009   3.601   0.568   3.024
 2574SOL     OW 8010   2.114   1.564   3.606
 2574SOL    HW1 8011   2.084   1.621   3.682
 2574SOL    HW2 8012   2.107   1.467   3.632
 2575SOL     OW 8013   2.533   0.464   3.131
 2575SOL    HW1 8014   2.499   0.375   3.101
 2575SOL    HW2 8015   2.559   0.518   3.051
 2576SOL     OW 8016   2.792   1.678   3.327
 2576SOL    HW1 8017   2.768   1.660   3.232
 2576SOL    HW2 8018   2.822   1.772   3.337
 2577SOL     OW 8019   2.335   0.500   2.053
 2577SOL    HW1 8020   2.396   0.580   2.057
 2577SOL    HW2 8021   2.240   0.531   2.060
 2578SOL     OW 8022   2.021   1.137   3.328
 2578SOL    HW1 8023   2.043   1.076   3.404
 2578SOL    HW2 8024   2.031   1.088   3.242
 2579SOL     OW 8025   3.209   1.059   3.096
 2579SOL    HW1 8026   3.233   0.996   3.022
 2579SOL    HW2 8027   3.119   1.099   3.078
 2580SOL     OW 8028   3.164   0.855   2.171
 2580SOL    HW1 8029   3.078   0.824   2.213
 2580SOL    HW2 8030   3.160   0.841   2.072
 2581SOL     OW 8031   3.621   1.747   3.016
 2581SOL    HW1 8032   3.682   1.777   2.943
 2581SOL    HW2 8033   3.583   1.658   2.994
 2582SOL     OW 8034   3.114   1.731   2.990
 2582SOL    HW1 8035   3.198   1.736   2.936
 2582SOL    HW2 8036   3.091   1.635   3.008
 2583SOL     OW 8037   1.945   1.258   2.884
 2583SOL    HW1 8038   1.940   1.257   2.984
 2583SOL    HW2 8039   1.862   1.217   2.846
 2584SOL     OW 8040   2.550   1.662   3.578
 2584SOL    HW1 8041   2.494   1.743   3.587
 2584SOL    HW2 8042   2.602   1.666   3.492
 2585SOL     OW 8043   3.588   0.135   2.385
 2585SOL    HW1 8044   3.661   0.118   2.318
 2585SOL    HW2 8045   3.557   0.048   2.423
 2586SOL     OW 8046   3.250   1.573   2.339
 2586SOL    HW1 8047   3.317   1.585   2.265
 2586SOL    HW2 8048   3.210   1.662   2.362
 2587SOL     OW 8049   1.992   1.794   3.713
 2587SOL    HW1 8050   1.951   1.720   3.766
 2587SOL    HW2 8051   2.056   1.845   3.771
 2588SOL     OW 8052   3.142   0.927   2.534
 2588SOL    HW1 8053   3.202   0.846   2.536
 2588SOL    HW2 8054   3.182   0.996   2.474
 2589SOL     OW 8055   2.692   1.273   3.284
 2589SOL    HW1 8056   2.687   1.306   3.379
 2589SOL    HW2 8057   2.606   1.292   3.238
 2590SOL     OW 8058   2.534   1.616   2.016
 2590SOL    HW1 8059   2.543   1.626   1.917
 2590SOL    HW2 8060   2.494   1.527   2.037
 2591SOL     OW 8061   3.512   1.720   3.256
 2591SOL    HW1 8062   3.565   1.730   3.172
 2591SOL    HW2 8063   3.485   1.810   3.290
 2592SOL     OW 8064   3.703   0.175   2.825
 2592SOL    HW1 8065   3.742   0.090   2.789
 2592SOL    HW2 8066   3.605   0.177   2.806
 2593SOL     OW 8067   2.125   0.326   2.582
 2593SOL    HW1 8068   2.046   0.377   2.548
 2593SOL    HW2 8069   2.116   0.311   2.680
 2594SOL     OW 8070   3.056   1.612   1.893
 2594SOL    HW1 8071   3.062   1.519   1.930
 2594SOL    HW2 8072   2.997   1.612   1.813
 2595SOL     OW 8073   2.684   1.002   3.234
 2595SOL    HW1 8074   2.724   1.001   3.142
 2595SOL    HW2 8075   2.694   1.094   3.274
 2596SOL     OW 8076   2.778   0.910   2.153
 2596SOL    HW1 8077   2.841   0.948   2.085
 2596SOL    HW2 8078   2.818   0.827   2.192
 2597SOL     OW 8079   3.366   1.607   1.906
 2597SOL    HW1 8080   3.274   1.644   1.913
 2597SOL    HW2 8081   3.404   1.627   1.816
 2598SOL     OW 8082   2.234   1.288   3.352
 2598SOL    HW1 8083   2.221   1.381   3.318
 2598SOL    HW2 8084   2.150   1.236   3.339
 2599SOL     OW 8085   3.476   1.292   3.151
 2599SOL    HW1 8086   3.536   1.295   3.231
 2599SOL    HW2 8087   3.401   1.356   3.164
 2600SOL     OW 8088   2.901   1.098   2.558
 2600SOL    HW1 8089   2.831   1.051   2.612
 2600SOL    HW2 8090   2.960   1.030   2.515
 2601SOL     OW 8091   2.876   0.236   2.833
 2601SOL    HW1 8092   2.868   0.200   2.740
 2601SOL    HW2 8093   2.874   0.160   2.898
 2602SOL     OW 8094   2.452   1.487   2.353
 2602SOL    HW1 8095   2.494   1.429   2.283
 2602SOL    HW2 8096   2.408   1.566   2.309
 2603SOL     OW 8097   3.571   0.385   3.243
 2603SOL    HW1 8098   3.644   0.454   3.247
 2603SOL    HW2 8099   3.599   0.310   3.184
 2604SOL     OW 8100   2.117   1.348   2.152
 2604SOL    HW1 8101   2.021   1.349   2.125
 2604SOL    HW2 8102   2.129   1.401   2.236
 2605SOL     OW 8103   1.967   1.013   3.588
 2605SOL    HW1 8104   1.890   0.980   3.642
 2605SOL    HW2 8105   2.052   0.983   3.630
 2606SOL     OW 8106   2.534   0.203   3.351
 2606SOL    HW1 8107   2.624   0.187   3.311
 2606SOL    HW2 8108   2.542   0.208   3.450
 2607SOL     OW 8109   1.937   0.345   1.895
 2607SOL    HW1 8110   1.845   0.317   1.866
 2607SOL    HW2 8111   1.968   0.422   1.839
 2608SOL     OW 8112   3.302   0.856   3.260
 2608SOL    HW1 8113   3.245   0.908   3.197
 2608SOL    HW2 8114   3.398   0.868   3.236
 2609SOL     OW 8115   1.934   0.166   2.180
 2609SOL    HW1 8116   1.917   0.249   2.126
 2609SOL    HW2 8117   2.024   0.129   2.158
 2610SOL     OW 8118   3.045   1.335   1.981
 2610SOL    HW1 8119   2.946   1.324   1.983
 2610SOL    HW2 8120   3.079   1.350   2.074
 2611SOL     OW 8121   2.475   0.842   3.293
 2611SOL    HW1 8122   2.531   0.923   3.276
 2611SOL    HW2 8123   2.534   0.762   3.296
 2612SOL     OW 8124   3.355   1.767   2.821
 2612SOL    HW1 8125   3.388   1.831   2.752
 2612SOL    HW2 8126   3.421   1.761   2.896
 2613SOL     OW 8127   2.578   0.565   3.570
 2613SOL    HW1 8128   2.597   0.630   3.644
 2613SOL    HW2 8129   2.638   0.485   3.579
 2614SOL     OW 8130   3.312   1.220   3.495
 2614SOL    HW1 8131   3.303   1.210   3.594
 2614SOL    HW2 8132   3.408   1.213   3.469
 2615SOL     OW 8133   2.252   1.741   3.422
 2615SOL    HW1 8134   2.161   1.782   3.420
 2615SOL    HW2 8135   2.245   1.647   3.454
 2616SOL     OW 8136   3.536   0.883   3.116
 2616SOL    HW1 8137   3.509   0.794   3.079
 2616SOL    HW2 8138   3.537   0.951   3.043
 2617SOL     OW 8139   3.087   0.325   2.311
 2617SOL    HW1 8140   3.152   0.251   2.300
 2617SOL    HW2 8141   3.107   0.375   2.395
 2618SOL     OW 8142   2.456   0.745   2.514
 2618SOL    HW1 8143   2.506   0.830   2.495
 2618SOL    HW2 8144   2.368   0.747   2.466
 2619SOL     OW 8145   3.639   0.342   3.504
 2619SOL    HW1 8146   3.622   0.373   3.410
 2619SOL    HW2 8147   3.555   0.305   3.542
 2620SOL     OW 8148   3.592   0.934   3.379
 2620SOL    HW1 8149   3.630   1.025   3.394
 2620SOL    HW2 8150   3.584   0.917   3.280
 2621SOL     OW 8151   2.721   1.374   1.878
 2621SOL    HW1 8152   2.675   1.389   1.966
 2621SOL    HW2 8153   2.765   1.459   1.848
 2622SOL     OW 8154   2.523   1.790   2.815
 2622SOL    HW1 8155   2.477   1.878   2.802
 2622SOL    HW2 8156   2.622   1.802   2.808
 2623SOL     OW 8157   2.721   0.956   2.723
 2623SOL    HW1 8158   2.775   0.887   2.771
 2623SOL    HW2 8159   2.689   1.025   2.789
 2624SOL     OW 8160   2.945   0.984   1.949
 2624SOL    HW1 8161   2.922   1.037   1.867
 2624SOL    HW2 8162   3.026   0.928   1.930
 2625SOL     OW 8163   3.723   1.569   2.713
 2625SOL    HW1 8164   3.652   1.557   2.643
 2625SOL    HW2 8165   3.724   1.490   2.773
 2626SOL     OW 8166   2.083   1.314   3.706
 2626SOL    HW1 8167   2.018   1.241   3.685
 2626SOL    HW2 8168   2.087   1.328   3.804
 2627SOL     OW 8169   1.941   1.240   2.515
 2627SOL    HW1 8170   1.940   1.193   2.603
 2627SOL    HW2 8171   2.023   1.212   2.464
 2628SOL     OW 8172   2.534   1.391   3.486
 2628SOL    HW1 8173   2.456   1.341   3.524
 2628SOL    HW2 8174   2.531   1.486   3.517
 2629SOL     OW 8175   3.686   0.192   3.089
 2629SOL    HW1 8176   3.682   0.102   3.133
 2629SOL    HW2 8177   3.689   0.181   2.990
 2630SOL     OW 8178   2.290   0.424   2.382
 2630SOL    HW1 8179   2.320   0.352   2.320
 2630SOL    HW2 8180   2.251   0.384   2.465
 2631SOL     OW 8181   3.567   1.487   2.966
 2631SOL    HW1 8182   3.474   1.462   2.939
 2631SOL    HW2 8183   3.593   1.437   3.048
 2632SOL     OW 8184   2.179   0.547   3.142
 2632SOL    HW1 8185   2.217   0.488   3.214
 2632SOL    HW2 8186   2.219   0.521   3.054
 2633SOL     OW 8187   2.674   1.586   2.549
 2633SOL    HW1 8188   2.706   1.596   2.455
 2633SOL    HW2 8189   2.595   1.524   2.551
 2634SOL     OW 8190   3.286   0.214   2.974
 2634SOL    HW1 8191   3.338   0.149   3.029
 2634SOL    HW2 8192   3.237   0.277   3.035
 2635SOL     OW 8193   2.863   0.034   3.016
 2635SOL    HW1 8194   2.800  -0.038   2.985
 2635SOL    HW2 8195   2.956  -0.002   3.016
 2636SOL     OW 8196   2.632   1.330   2.163
 2636SOL    HW1 8197   2.586   1.243   2.180
 2636SOL    HW2 8198   2.723   1.327   2.204
 2637SOL     OW 8199   2.480   1.567   3.146
 2637SOL    HW1 8200   2.475   1.649   3.203
 2637SOL    HW2 8201   2.569   1.564   3.101
 2638SOL     OW 8202   3.214   0.052   2.030
 2638SOL    HW1 8203   3.249   0.011   1.946
 2638SOL    HW2 8204   3.124   0.014   2.050
 2639SOL     OW 8205   3.162   0.453   2.553
 2639SOL    HW1 8206   3.103   0.533   2.557
 2639SOL    HW2 8207   3.177   0.418   2.646
 2640SOL     OW 8208   3.455   0.221   2.744
 2640SOL    HW1 8209   3.371   0.220   2.798
 2640SOL    HW2 8210   3.457   0.304   2.688
 2641SOL     OW 8211   1.901   1.077   2.162
 2641SOL    HW1 8212   2.000   1.066   2.153
 2641SOL    HW2 8213   1.861   0.991   2.194
 2642SOL     OW 8214   2.737   1.646   2.199
 2642SOL    HW1 8215   2.660   1.611   2.145
 2642SOL    HW2 8216   2.705   1.717   2.261
 2643SOL     OW 8217   2.092   0.628   3.837
 2643SOL    HW1 8218   1.999   0.626   3.874
 2643SOL    HW2 8219   2.093   0.589   3.745
 2644SOL     OW 8220   2.087   0.275   4.720
 2644SOL    HW1 8221   2.122   0.258   4.812
 2644SOL    HW2 8222   1.999   0.230   4.708
 2645SOL     OW 8223   1.881   0.368   4.371
 2645SOL    HW1 8224   1.799   0.411   4.410
 2645SOL    HW2 8225   1.853   0.295   4.308
 2646SOL     OW 8226   2.431   1.275   4.889
 2646SOL    HW1 8227   2.338   1.268   4.852
 2646SOL    HW2 8228   2.442   1.364   4.933
 2647SOL     OW 8229   3.417   1.511   4.427
 2647SOL    HW1 8230   3.360   1.495   4.508
 2647SOL    HW2 8231   3.358   1.521   4.347
 2648SOL     OW 8232   2.997   0.703   4.441
 2648SOL    HW1 8233   3.054   0.781   4.416
 2648SOL    HW2 8234   2.937   0.729   4.517
 2649SOL     OW 8235   3.617   0.607   3.955
 2649SOL    HW1 8236   3.605   0.594   3.856
 2649SOL    HW2 8237   3.587   0.526   4.004
 2650SOL     OW 8238   2.630   1.144   4.747
 2650SOL    HW1 8239   2.552   1.161   4.807
 2650SOL    HW2 8240   2.664   1.231   4.711
 2651SOL     OW 8241   2.712   0.798   5.547
 2651SOL    HW1 8242   2.708   0.874   5.612
 2651SOL    HW2 8243   2.734   0.834   5.456
 2652SOL     OW 8244   2.547   1.012   4.389
 2652SOL    HW1 8245   2.616   0.996   4.459
 2652SOL    HW2 8246   2.474   1.069   4.427
 2653SOL     OW 8247   2.548   1.161   5.527
 2653SOL    HW1 8248   2.608   1.240   5.541
 2653SOL    HW2 8249   2.462   1.192   5.486
 2654SOL     OW 8250   2.197   1.435   4.785
 2654SOL    HW1 8251   2.119   1.404   4.732
 2654SOL    HW2 8252   2.255   1.493   4.728
 2655SOL     OW 8253   3.322   1.505   5.063
 2655SOL    HW1 8254   3.346   1.599   5.089
 2655SOL    HW2 8255   3.306   1.451   5.145
 2656SOL     OW 8256   2.300   0.392   5.223
 2656SOL    HW1 8257   2.382   0.336   5.232
 2656SOL    HW2 8258   2.219   0.334   5.227
 2657SOL     OW 8259   3.465   0.447   4.461
 2657SOL    HW1 8260   3.391   0.493   4.411
 2657SOL    HW2 8261   3.516   0.515   4.514
 2658SOL     OW 8262   2.093   1.713   4.207
 2658SOL    HW1 8263   2.127   1.790   4.261
 2658SOL    HW2 8264   2.137   1.713   4.117
 2659SOL     OW 8265   2.989   1.341   5.414
 2659SOL    HW1 8266   3.036   1.341   5.502
 2659SOL    HW2 8267   2.941   1.254   5.403
 2660SOL     OW 8268   2.092   1.434   4.262
 2660SOL    HW1 8269   2.066   1.530   4.262
 2660SOL    HW2 8270   2.021   1.380   4.307
 2661SOL     OW 8271   2.102   1.091   4.610
 2661SOL    HW1 8272   2.116   1.007   4.662
 2661SOL    HW2 8273   2.047   1.155   4.665
 2662SOL     OW 8274   2.482   1.786   5.163
 2662SOL    HW1 8275   2.390   1.769   5.198
 2662SOL    HW2 8276   2.510   1.878   5.189
 2663SOL     OW 8277   2.468   0.964   3.847
 2663SOL    HW1 8278   2.475   1.048   3.793
 2663SOL    HW2 8279   2.514   0.977   3.935
 2664SOL     OW 8280   3.456   0.114   5.204
 2664SOL    HW1 8281   3.438   0.181   5.132
 2664SOL    HW2 8282   3.453   0.160   5.293
 2665SOL     OW 8283   1.984   0.643   4.287
 2665SOL    HW1 8284   1.939   0.555   4.304
 2665SOL    HW2 8285   1.983   0.697   4.371
 2666SOL     OW 8286   3.704   1.767   4.083
 2666SOL    HW1 8287   3.758   1.738   4.163
 2666SOL    HW2 8288   3.734   1.857   4.054
 2667SOL     OW 8289   1.889   1.596   3.841
 2667SOL    HW1 8290   1.870   1.500   3.862
 2667SOL    HW2 8291   1.856   1.654   3.916
 2668SOL     OW 8292   3.551   0.922   4.336
 2668SOL    HW1 8293   3.646   0.893   4.344
 2668SOL    HW2 8294   3.543   0.987   4.261
 2669SOL     OW 8295   3.503   1.108   4.156
 2669SOL    HW1 8296   3.589   1.110   4.104
 2669SOL    HW2 8297   3.517   1.155   4.244
 2670SOL     OW 8298   1.975   0.737   5.321
 2670SOL    HW1 8299   2.063   0.724   5.366
 2670SOL    HW2 8300   1.962   0.834   5.299
 2671SOL     OW 8301   2.475   1.365   4.450
 2671SOL    HW1 8302   2.426   1.278   4.459
 2671SOL    HW2 8303   2.452   1.408   4.363
 2672SOL     OW 8304   3.155   1.228   5.147
 2672SOL    HW1 8305   3.192   1.155   5.089
 2672SOL    HW2 8306   3.207   1.233   5.232
 2673SOL     OW 8307   2.671   0.004   4.226
 2673SOL    HW1 8308   2.711   0.095   4.217
 2673SOL    HW2 8309   2.571   0.012   4.232
 2674SOL     OW 8310   2.059   0.976   4.988
 2674SOL    HW1 8311   2.148   0.931   4.974
 2674SOL    HW2 8312   1.986   0.911   4.969
 2675SOL     OW 8313   3.387   0.999   3.914
 2675SOL    HW1 8314   3.324   0.923   3.927
 2675SOL    HW2 8315   3.435   1.017   4.000
 2676SOL     OW 8316   3.049   1.792   5.340
 2676SOL    HW1 8317   3.073   1.852   5.264
 2676SOL    HW2 8318   3.056   1.697   5.310
 2677SOL     OW 8319   2.179   0.251   5.525
 2677SOL    HW1 8320   2.250   0.322   5.531
 2677SOL    HW2 8321   2.091   0.290   5.553
 2678SOL     OW 8322   3.328   1.417   4.677
 2678SOL    HW1 8323   3.269   1.423   4.757
 2678SOL    HW2 8324   3.313   1.329   4.631
 2679SOL     OW 8325   3.529   1.714   4.296
 2679SOL    HW1 8326   3.488   1.691   4.208
 2679SOL    HW2 8327   3.511   1.640   4.361
 2680SOL     OW 8328   2.460   0.729   3.994
 2680SOL    HW1 8329   2.484   0.798   3.926
 2680SOL    HW2 8330   2.382   0.762   4.048
 2681SOL     OW 8331   3.143   0.345   4.668
 2681SOL    HW1 8332   3.057   0.295   4.655
 2681SOL    HW2 8333   3.205   0.291   4.724
 2682SOL     OW 8334   3.438   1.662   4.031
 2682SOL    HW1 8335   3.527   1.708   4.034
 2682SOL    HW2 8336   3.417   1.638   3.936
 2683SOL     OW 8337   2.669   0.605   5.189
 2683SOL    HW1 8338   2.622   0.602   5.278
 2683SOL    HW2 8339   2.618   0.550   5.123
 2684SOL     OW 8340   3.256   0.469   5.398
 2684SOL    HW1 8341   3.236   0.512   5.486
 2684SOL    HW2 8342   3.334   0.407   5.407
 2685SOL     OW 8343   2.835   0.890   5.296
 2685SOL    HW1 8344   2.881   0.806   5.267
 2685SOL    HW2 8345   2.779   0.924   5.221
 2686SOL     OW 8346   2.853   0.410   4.966
 2686SOL    HW1 8347   2.776   0.444   5.020
 2686SOL    HW2 8348   2.819   0.359   4.887
 2687SOL     OW 8349   2.903   0.701   4.153
 2687SOL    HW1 8350   2.929   0.697   4.249
 2687SOL    HW2 8351   2.818   0.650   4.139
 2688SOL     OW 8352   1.938   0.811   4.513
 2688SOL    HW1 8353   2.037   0.799   4.522
 2688SOL    HW2 8354   1.914   0.906   4.534
 2689SOL     OW 8355   1.992   1.821   5.295
 2689SOL    HW1 8356   1.982   1.806   5.394
 2689SOL    HW2 8357   1.906   1.857   5.259
 2690SOL     OW 8358   2.727   0.348   3.919
 2690SOL    HW1 8359   2.786   0.411   3.870
 2690SOL    HW2 8360   2.746   0.254   3.890
 2691SOL     OW 8361   3.581   0.585   5.555
 2691SOL    HW1 8362   3.555   0.674   5.519
 2691SOL    HW2 8363   3.579   0.517   5.482
 2692SOL     OW 8364   3.224   1.144   4.269
 2692SOL    HW1 8365   3.307   1.115   4.221
 2692SOL    HW2 8366   3.175   1.211   4.213
 2693SOL     OW 8367   2.412   0.196   4.609
 2693SOL    HW1 8368   2.407   0.191   4.709
 2693SOL    HW2 8369   2.414   0.292   4.580
 2694SOL     OW 8370   2.870   1.456   4.201
 2694SOL    HW1 8371   2.824   1.528   4.149
 2694SOL    HW2 8372   2.866   1.476   4.299
 2695SOL     OW 8373   2.213   1.801   4.577
 2695SOL    HW1 8374   2.263   1.715   4.583
 2695SOL    HW2 8375   2.278   1.878   4.574
 2696SOL     OW 8376   3.657   1.066   4.597
 2696SOL    HW1 8377   3.595   1.051   4.521
 2696SOL    HW2 8378   3.605   1.077   4.682
 2697SOL     OW 8379   3.089   1.550   5.230
 2697SOL    HW1 8380   3.095   1.473   5.294
 2697SOL    HW2 8381   3.037   1.524   5.150
 2698SOL     OW 8382   2.183   0.943   3.966
 2698SOL    HW1 8383   2.265   0.982   3.924
 2698SOL    HW2 8384   2.156   0.861   3.917
 2699SOL     OW 8385   3.320   0.735   4.452
 2699SOL    HW1 8386   3.315   0.670   4.527
 2699SOL    HW2 8387   3.400   0.794   4.465
 2700SOL     OW 8388   2.323   1.266   5.451
 2700SOL    HW1 8389   2.273   1.267   5.365
 2700SOL    HW2 8390   2.260   1.248   5.527
 2701SOL     OW 8391   2.973   1.776   3.961
 2701SOL    HW1 8392   2.913   1.714   4.011
 2701SOL    HW2 8393   3.004   1.732   3.876
 2702SOL     OW 8394   2.064   0.285   5.222
 2702SOL    HW1 8395   1.984   0.345   5.209
 2702SOL    HW2 8396   2.054   0.236   5.308
 2703SOL     OW 8397   3.494   1.377   3.805
 2703SOL    HW1 8398   3.462   1.471   3.795
 2703SOL    HW2 8399   3.418   1.314   3.793
 2704SOL     OW 8400   2.326   1.743   4.047
 2704SOL    HW1 8401   2.359   1.782   4.133
 2704SOL    HW2 8402   2.402   1.736   3.982
 2705SOL     OW 8403   3.262   0.107   4.150
 2705SOL    HW1 8404   3.238   0.070   4.060
 2705SOL    HW2 8405   3.361   0.123   4.154
 2706SOL     OW 8406   2.111   1.785   4.965
 2706SOL    HW1 8407   2.168   1.720   5.015
 2706SOL    HW2 8408   2.095   1.752   4.872
 2707SOL     OW 8409   2.802   1.698   4.628
 2707SOL    HW1 8410   2.882   1.641   4.649
 2707SOL    HW2 8411   2.753   1.658   4.551
 2708SOL     OW 8412   2.244   0.700   4.204
 2708SOL    HW1 8413   2.289   0.610   4.201
 2708SOL    HW2 8414   2.150   0.689   4.237
 2709SOL     OW 8415   3.409   0.222   5.453
 2709SOL    HW1 8416   3.404   0.259   5.545
 2709SOL    HW2 8417   3.337   0.153   5.441
 2710SOL     OW 8418   2.476   0.122   3.841
 2710SOL    HW1 8419   2.574   0.100   3.848
 2710SOL    HW2 8420   2.445   0.105   3.748
 2711SOL     OW 8421   2.643   0.264   5.473
 2711SOL    HW1 8422   2.710   0.203   5.516
 2711SOL    HW2 8423   2.570   0.283   5.538
 2712SOL     OW 8424   2.750   1.514   4.919
 2712SOL    HW1 8425   2.727   1.489   4.825
 2712SOL    HW2 8426   2.811   1.445   4.958
 2713SOL     OW 8427   3.213   0.590   5.157
 2713SOL    HW1 8428   3.241   0.547   5.242
 2713SOL    HW2 8429   3.238   0.686   5.158
 2714SOL     OW 8430   2.665   1.402   4.648
 2714SOL    HW1 8431   2.755   1.416   4.606
 2714SOL    HW2 8432   2.594   1.404   4.577
 2715SOL     OW 8433   2.784   0.503   4.623
 2715SOL    HW1 8434   2.759   0.494   4.527
 2715SOL    HW2 8435   2.832   0.421   4.654
 2716SOL     OW 8436   2.401   0.064   4.236
 2716SOL    HW1 8437   2.320   0.065   4.294
 2716SOL    HW2 8438   2.404   0.147   4.181
 2717SOL     OW 8439   3.296   1.188   3.765
 2717SOL    HW1 8440   3.328   1.112   3.822
 2717SOL    HW2 8441   3.204   1.215   3.795
 2718SOL     OW 8442   2.159   0.035   3.895
 2718SOL    HW1 8443   2.208   0.119   3.874
 2718SOL    HW2 8444   2.221  -0.030   3.940
 2719SOL     OW 8445   2.797   0.236   4.204
 2719SOL    HW1 8446   2.749   0.277   4.126
 2719SOL    HW2 8447   2.896   0.234   4.185
 2720SOL     OW 8448   2.938   0.683   5.188
 2720SOL    HW1 8449   2.858   0.622   5.191
 2720SOL    HW2 8450   3.019   0.630   5.164
 2721SOL     OW 8451   3.089   1.570   4.517
 2721SOL    HW1 8452   3.110   1.644   4.452
 2721SOL    HW2 8453   3.157   1.570   4.590
 2722SOL     OW 8454   2.321   1.152   4.465
 2722SOL    HW1 8455   2.250   1.125   4.530
 2722SOL    HW2 8456   2.295   1.124   4.372
 2723SOL     OW 8457   3.133   1.797   4.315
 2723SOL    HW1 8458   3.177   1.861   4.251
 2723SOL    HW2 8459   3.083   1.849   4.385
 2724SOL     OW 8460   2.894   0.549   3.740
 2724SOL    HW1 8461   2.853   0.631   3.701
 2724SOL    HW2 8462   2.958   0.575   3.813
 2725SOL     OW 8463   1.940   0.556   5.110
 2725SOL    HW1 8464   2.032   0.555   5.069
 2725SOL    HW2 8465   1.934   0.630   5.177
 2726SOL     OW 8466   2.423   0.222   4.871
 2726SOL    HW1 8467   2.461   0.138   4.908
 2726SOL    HW2 8468   2.335   0.241   4.915
 2727SOL     OW 8469   2.728   0.454   4.366
 2727SOL    HW1 8470   2.696   0.526   4.304
 2727SOL    HW2 8471   2.752   0.373   4.313
 2728SOL     OW 8472   2.879   0.039   4.477
 2728SOL    HW1 8473   2.807   0.044   4.408
 2728SOL    HW2 8474   2.855  -0.030   4.546
 2729SOL     OW 8475   3.291   1.173   4.591
 2729SOL    HW1 8476   3.236   1.089   4.584
 2729SOL    HW2 8477   3.317   1.202   4.499
 2730SOL     OW 8478   3.328   0.590   4.716
 2730SOL    HW1 8479   3.298   0.495   4.723
 2730SOL    HW2 8480   3.401   0.606   4.782
 2731SOL     OW 8481   3.719   0.833   4.101
 2731SOL    HW1 8482   3.761   0.769   4.165
 2731SOL    HW2 8483   3.681   0.782   4.023
 2732SOL     OW 8484   2.350   1.385   3.898
 2732SOL    HW1 8485   2.263   1.370   3.945
 2732SOL    HW2 8486   2.333   1.411   3.803
 2733SOL     OW 8487   3.526   1.280   4.381
 2733SOL    HW1 8488   3.625   1.288   4.395
 2733SOL    HW2 8489   3.481   1.364   4.412
 2734SOL     OW 8490   3.252   0.575   3.802
 2734SOL    HW1 8491   3.198   0.554   3.883
 2734SOL    HW2 8492   3.343   0.534   3.811
 2735SOL     OW 8493   2.389   0.256   4.052
 2735SOL    HW1 8494   2.416   0.197   3.977
 2735SOL    HW2 8495   2.389   0.351   4.021
 2736SOL     OW 8496   3.616   1.223   5.312
 2736SOL    HW1 8497   3.707   1.184   5.299
 2736SOL    HW2 8498   3.624   1.319   5.336
 2737SOL     OW 8499   2.926   1.347   5.064
 2737SOL    HW1 8500   2.846   1.324   5.119
 2737SOL    HW2 8501   3.009   1.321   5.113
 2738SOL     OW 8502   3.454   1.629   5.349
 2738SOL    HW1 8503   3.481   1.663   5.259
 2738SOL    HW2 8504   3.533   1.591   5.395
 2739SOL     OW 8505   2.973   1.195   4.824
 2739SOL    HW1 8506   2.933   1.239   4.905
 2739SOL    HW2 8507   2.932   1.232   4.741
 2740SOL     OW 8508   3.500   1.099   4.803
 2740SOL    HW1 8509   3.505   1.180   4.862
 2740SOL    HW2 8510   3.414   1.101   4.752
 2741SOL     OW 8511   2.777   0.089   5.126
 2741SOL    HW1 8512   2.802   0.069   5.031
 2741SOL    HW2 8513   2.849   0.145   5.168
 2742SOL     OW 8514   2.842   1.116   5.443
 2742SOL    HW1 8515   2.743   1.122   5.453
 2742SOL    HW2 8516   2.865   1.036   5.387
 2743SOL     OW 8517   2.567   1.050   4.092
 2743SOL    HW1 8518   2.553   1.057   4.191
 2743SOL    HW2 8519   2.651   0.999   4.074
 2744SOL     OW 8520   2.272   0.813   4.975
 2744SOL    HW1 8521   2.358   0.825   5.025
 2744SOL    HW2 8522   2.230   0.726   5.002
 2745SOL     OW 8523   3.136   0.386   4.986
 2745SOL    HW1 8524   3.157   0.460   5.050
 2745SOL    HW2 8525   3.047   0.403   4.943
 2746SOL     OW 8526   1.926   1.564   5.055
 2746SOL    HW1 8527   1.880   1.646   5.021
 2746SOL    HW2 8528   2.024   1.583   5.064
 2747SOL     OW 8529   2.229   1.100   4.225
 2747SOL    HW1 8530   2.222   1.183   4.169
 2747SOL    HW2 8531   2.233   1.020   4.165
 2748SOL     OW 8532   2.428   0.537   4.589
 2748SOL    HW1 8533   2.440   0.603   4.515
 2748SOL    HW2 8534   2.474   0.571   4.672
 2749SOL     OW 8535   3.114   1.348   4.112
 2749SOL    HW1 8536   3.164   1.425   4.152
 2749SOL    HW2 8537   3.019   1.350   4.144
 2750SOL     OW 8538   3.134   1.445   4.866
 2750SOL    HW1 8539   3.181   1.458   4.953
 2750SOL    HW2 8540   3.068   1.371   4.875
 2751SOL     OW 8541   3.444   0.639   4.196
 2751SOL    HW1 8542   3.413   0.700   4.269
 2751SOL    HW2 8543   3.494   0.691   4.127
 2752SOL     OW 8544   2.216   1.510   5.053
 2752SOL    HW1 8545   2.195   1.466   4.966
 2752SOL    HW2 8546   2.313   1.536   5.056
 2753SOL     OW 8547   2.264   0.751   5.322
 2753SOL    HW1 8548   2.332   0.806   5.275
 2753SOL    HW2 8549   2.304   0.663   5.349
 2754SOL     OW 8550   3.449   0.779   5.394
 2754SOL    HW1 8551   3.357   0.817   5.389
 2754SOL    HW2 8552   3.509   0.826   5.329
 2755SOL     OW 8553   2.875   0.105   5.494
 2755SOL    HW1 8554   2.881   0.190   5.442
 2755SOL    HW2 8555   2.907   0.029   5.437
 2756SOL     OW 8556   2.366   0.050   5.464
 2756SOL    HW1 8557   2.324  -0.007   5.394
 2756SOL    HW2 8558   2.300   0.119   5.496
 2757SOL     OW 8559   2.435   0.870   4.753
 2757SOL    HW1 8560   2.479   0.959   4.744
 2757SOL    HW2 8561   2.372   0.870   4.830
 2758SOL     OW 8562   3.222   0.862   4.769
 2758SOL    HW1 8563   3.147   0.862   4.703
 2758SOL    HW2 8564   3.259   0.770   4.778
 2759SOL     OW 8565   3.071   0.525   3.999
 2759SOL    HW1 8566   3.084   0.441   4.053
 2759SOL    HW2 8567   3.042   0.599   4.059
 2760SOL     OW 8568   2.169   0.213   4.955
 2760SOL    HW1 8569   2.146   0.250   5.045
 2760SOL    HW2 8570   2.139   0.118   4.949
 2761SOL     OW 8571   1.899   1.310   5.006
 2761SOL    HW1 8572   1.952   1.261   5.074
 2761SOL    HW2 8573   1.921   1.408   5.011
 2762SOL     OW 8574   2.594   0.634   4.788
 2762SOL    HW1 8575   2.653   0.608   4.712
 2762SOL    HW2 8576   2.566   0.730   4.777
 2763SOL     OW 8577   3.590   0.935   5.578
 2763SOL    HW1 8578   3.544   0.928   5.489
 2763SOL    HW2 8579   3.528   0.979   5.644
 2764SOL     OW 8580   2.169   0.063   4.342
 2764SOL    HW1 8581   2.158   0.157   4.375
 2764SOL    HW2 8582   2.164   0.000   4.419
 2765SOL     OW 8583   3.484   0.367   4.098
 2765SOL    HW1 8584   3.486   0.291   4.162
 2765SOL    HW2 8585   3.436   0.444   4.138
 2766SOL     OW 8586   2.885   0.766   4.690
 2766SOL    HW1 8587   2.900   0.787   4.786
 2766SOL    HW2 8588   2.855   0.671   4.681
 2767SOL     OW 8589   2.842   1.573   5.424
 2767SOL    HW1 8590   2.822   1.617   5.336
 2767SOL    HW2 8591   2.881   1.482   5.408
 2768SOL     OW 8592   3.721   1.518   5.329
 2768SOL    HW1 8593   3.735   1.545   5.234
 2768SOL    HW2 8594   3.804   1.540   5.382
 2769SOL     OW 8595   2.212   0.898   5.528
 2769SOL    HW1 8596   2.288   0.942   5.576
 2769SOL    HW2 8597   2.247   0.851   5.446
 2770SOL     OW 8598   3.402   0.274   3.849
 2770SOL    HW1 8599   3.341   0.199   3.872
 2770SOL    HW2 8600   3.424   0.326   3.932
 2771SOL     OW 8601   3.165   0.838   3.766
 2771SOL    HW1 8602   3.199   0.745   3.781
 2771SOL    HW2 8603   3.183   0.865   3.671
 2772SOL     OW 8604   2.930   1.333   4.573
 2772SOL    HW1 8605   2.937   1.249   4.518
 2772SOL    HW2 8606   2.992   1.402   4.537
 2773SOL     OW 8607   2.181   0.810   4.673
 2773SOL    HW1 8608   2.274   0.846   4.678
 2773SOL    HW2 8609   2.175   0.725   4.725
 2774SOL     OW 8610   2.201   0.509   4.730
 2774SOL    HW1 8611   2.149   0.426   4.713
 2774SOL    HW2 8612   2.278   0.514   4.666
 2775SOL     OW 8613   3.000   0.380   5.402
 2775SOL    HW1 8614   2.955   0.443   5.466
 2775SOL    HW2 8615   3.093   0.411   5.385
 2776SOL     OW 8616   3.022   0.207   5.201
 2776SOL    HW1 8617   3.022   0.271   5.278
 2776SOL    HW2 8618   3.050   0.255   5.118
 2777SOL     OW 8619   1.870   1.326   3.924
 2777SOL    HW1 8620   1.777   1.347   3.893
 2777SOL    HW2 8621   1.880   1.227   3.937
 2778SOL     OW 8622   1.950   1.801   4.651
 2778SOL    HW1 8623   1.908   1.715   4.624
 2778SOL    HW2 8624   2.044   1.804   4.617
 2779SOL     OW 8625   2.366   1.568   4.634
 2779SOL    HW1 8626   2.432   1.642   4.643
 2779SOL    HW2 8627   2.410   1.489   4.592
 2780SOL     OW 8628   2.864   0.796   4.962
 2780SOL    HW1 8629   2.905   0.764   5.048
 2780SOL    HW2 8630   2.768   0.769   4.959
 2781SOL     OW 8631   1.902   0.544   4.838
 2781SOL    HW1 8632   1.987   0.511   4.797
 2781SOL    HW2 8633   1.915   0.559   4.936
 2782SOL     OW 8634   2.051   0.520   5.446
 2782SOL    HW1 8635   2.110   0.480   5.376
 2782SOL    HW2 8636   1.993   0.591   5.405
 2783SOL     OW 8637   3.231   0.950   5.384
 2783SOL    HW1 8638   3.270   1.039   5.404
 2783SOL    HW2 8639   3.241   0.930   5.287
 2784SOL     OW 8640   2.677   0.572   4.049
 2784SOL    HW1 8641   2.684   0.483   4.003
 2784SOL    HW2 8642   2.583   0.606   4.041
 2785SOL     OW 8643   3.519   0.604   4.930
 2785SOL    HW1 8644   3.481   0.535   4.992
 2785SOL    HW2 8645   3.601   0.568   4.886
 2786SOL     OW 8646   2.114   1.564   5.468
 2786SOL    HW1 8647   2.084   1.621   5.544
 2786SOL    HW2 8648   2.107   1.467   5.494
 2787SOL     OW 8649   2.533   0.464   4.993
 2787SOL    HW1 8650   2.499   0.375   4.963
 2787SOL    HW2 8651   2.559   0.518   4.913
 2788SOL     OW 8652   2.792   1.678   5.189
 2788SOL    HW1 8653   2.768   1.660   5.094
 2788SOL    HW2 8654   2.822   1.772   5.199
 2789SOL     OW 8655   2.335   0.500   3.915
 2789SOL    HW1 8656   2.396   0.580   3.919
 2789SOL    HW2 8657   2.240   0.531   3.922
 2790SOL     OW 8658   2.021   1.137   5.190
 2790SOL    HW1 8659   2.043   1.076   5.266
 2790SOL    HW2 8660   2.031   1.088   5.104
 2791SOL     OW 8661   3.209   1.059   4.958
 2791SOL    HW1 8662   3.233   0.996   4.884
 2791SOL    HW2 8663   3.119   1.099   4.940
 2792SOL     OW 8664   3.164   0.855   4.033
 2792SOL    HW1 8665   3.078   0.824   4.075
 2792SOL    HW2 8666   3.160   0.841   3.934
 2793SOL     OW 8667   3.621   1.747   4.878
 2793SOL    HW1 8668   3.682   1.777   4.805
 2793SOL    HW2 8669   3.583   1.658   4.856
 2794SOL     OW 8670   3.114   1.731   4.852
 2794SOL    HW1 8671   3.198   1.736   4.798
 2794SOL    HW2 8672   3.091   1.635   4.870
 2795SOL     OW 8673   1.945   1.258   4.746
 2795SOL    HW1 8674   1.940   1.257   4.846
 2795SOL    HW2 8675   1.862   1.217   4.708
 2796SOL     OW 8676   2.550   1.662   5.440
 2796SOL    HW1 8677   2.494   1.743   5.449
 2796SOL    HW2 8678   2.602   1.666   5.354
 2797SOL     OW 8679   3.588   0.135   4.247
 2797SOL    HW1 8680   3.661   0.118   4.180
 2797SOL    HW2 8681   3.557   0.048   4.285
 2798SOL     OW 8682   3.250   1.573   4.201
 2798SOL    HW1 8683   3.317   1.585   4.127
 2798SOL    HW2 8684   3.210   1.662   4.224
 2799SOL     OW 8685   1.992   1.794   5.575
 2799SOL    HW1 8686   1.951   1.720   5.628
 2799SOL    HW2 8687   2.056   1.845   5.633
 2800SOL     OW 8688   3.142   0.927   4.396
 2800SOL    HW1 8689   3.202   0.846   4.398
 2800SOL    HW2 8690   3.182   0.996   4.336
 2801SOL     OW 8691   2.692   1.273   5.146
 2801SOL    HW1 8692   2.687   1.306   5.241
 2801SOL    HW2 8693   2.606   1.292   5.100
 2802SOL     OW 8694   2.534   1.616   3.878
 2802SOL    HW1 8695   2.543   1.626   3.779
 2802SOL    HW2 8696   2.494   1.527   3.899
 2803SOL     OW 8697   3.512   1.720   5.118
 2803SOL    HW1 8698   3.565   1.730   5.034
 2803SOL    HW2 8699   3.485   1.810   5.152
 2804SOL     OW 8700   3.703   0.175   4.687
 2804SOL    HW1 8701   3.742   0.090   4.651
 2804SOL    HW2 8702   3.605   0.177   4.668
 2805SOL     OW 8703   2.125   0.326   4.444
 2805SOL    HW1 8704   2.046   0.377   4.410
 2805SOL    HW2 8705   2.116   0.311   4.542
 2806SOL     OW 8706   3.056   1.612   3.755
 2806SOL    HW1 8707   3.062   1.519   3.792
 2806SOL    HW2 8708   2.997   1.612   3.675
 2807SOL     OW 8709   2.684   1.002   5.096
 2807SOL    HW1 8710   2.724   1.001   5.004
 2807SOL    HW2 8711   2.694   1.094   5.136
 2808SOL     OW 8712   2.778   0.910   4.015
 2808SOL    HW1 8713   2.841   0.948   3.947
 2808SOL    HW2 8714   2.818   0.827   4.054
 2809SOL     OW 8715   3.366   1.607   3.768
 2809SOL    HW1 8716   3.274   1.644   3.775
 2809SOL    HW2 8717   3.404   1.627   3.678
 2810SOL     OW 8718   2.234   1.288   5.214
 2810SOL    HW1 8719   2.221   1.381   5.180
 2810SOL    HW2 8720   2.150   1.236   5.201
 2811SOL     OW 8721   3.476   1.292   5.013
 2811SOL    HW1 8722   3.536   1.295   5.093
 2811SOL    HW2 8723   3.401   1.356   5.026
 2812SOL     OW 8724   2.901   1.098   4.420
 2812SOL    HW1 8725   2.831   1.051   4.474
 2812SOL    HW2 8726   2.960   1.030   4.377
 2813SOL     OW 8727   2.876   0.236   4.695
 2813SOL    HW1 8728   2.868   0.200   4.602
 2813SOL    HW2 8729   2.874   0.160   4.760
 2814SOL     OW 8730   2.452   1.487   4.215
 2814SOL    HW1 8731   2.494   1.429   4.145
 2814SOL    HW2 8732   2.408   1.566   4.171
 2815SOL     OW 8733   3.571   0.385   5.105
 2815SOL    HW1 8734   3.644   0.454   5.109
 2815SOL    HW2 8735   3.599   0.310   5.046
 2816SOL     OW 8736   2.117   1.348   4.014
 2816SOL    HW1 8737   2.021   1.349   3.987
 2816SOL    HW2 8738   2.129   1.401   4.098
 2817SOL     OW 8739   1.967   1.013   5.450
 2817SOL    HW1 8740   1.890   0.980   5.504
 2817SOL    HW2 8741   2.052   0.983   5.492
 2818SOL     OW 8742   2.534   0.203   5.213
 2818SOL    HW1 8743   2.624   0.187   5.173
 2818SOL    HW2 8744   2.542   0.208   5.312
 2819SOL     OW 8745   1.937   0.345   3.757
 2819SOL    HW1 8746   1.845   0.317   3.728
 2819SOL    HW2 8747   1.968   0.422   3.701
 2820SOL     OW 8748   3.302   0.856   5.122
 2820SOL    HW1 8749   3.245   0.908   5.059
 2820SOL    HW2 8750   3.398   0.868   5.098
 2821SOL     OW 8751   1.934   0.166   4.042
 2821SOL    HW1 8752   1.917   0.249   3.988
 2821SOL    HW2 8753   2.024   0.129   4.020
 2822SOL     OW 8754   3.045   1.335   3.843
 2822SOL    HW1 8755   2.946   1.324   3.845
 2822SOL    HW2 8756   3.079   1.350   3.936
 2823SOL     OW 8757   2.475   0.842   5.155
 2823SOL    HW1 8758   2.531   0.923   5.138
 2823SOL    HW2 8759   2.534   0.762   5.158
 2824SOL     OW 8760   3.355   1.767   4.683
 2824SOL    HW1 8761   3.388   1.831   4.614
 2824SOL    HW2 8762   3.421   1.761   4.758
 2825SOL     OW 8763   2.578   0.565   5.432
 2825SOL    HW1 8764   2.597   0.630   5.506
 2825SOL    HW2 8765   2.638   0.485   5.441
 2826SOL     OW 8766   3.312   1.220   5.357
 2826SOL    HW1 8767   3.303   1.210   5.456
 2826SOL    HW2 8768   3.408   1.213   5.331
 2827SOL     OW 8769   2.252   1.741   5.284
 2827SOL    HW1 8770   2.161   1.782   5.282
 2827SOL    HW2 8771   2.245   1.647   5.316
 2828SOL     OW 8772   3.536   0.883   4.978
 2828SOL    HW1 8773   3.509   0.794   4.941
 2828SOL    HW2 8774   3.537   0.951   4.905
 2829SOL     OW 8775   3.087   0.325   4.173
 2829SOL    HW1 8776   3.152   0.251   4.162
 2829SOL    HW2 8777   3.107   0.375   4.257
 2830SOL     OW 8778   2.456   0.745   4.376
 2830SOL    HW1 8779   2.506   0.830   4.357
 2830SOL    HW2 8780   2.368   0.747   4.328
 2831SOL     OW 8781   3.639   0.342   5.366
 2831SOL    HW1 8782   3.622   0.373   5.272
 2831SOL    HW2 8783   3.555   0.305   5.404
 2832SOL     OW 8784   3.592   0.934   5.241
 2832SOL    HW1 8785   3.630   1.025   5.256
 2832SOL    HW2 8786   3.584   0.917   5.142
 2833SOL     OW 8787   2.721   1.374   3.740
 2833SOL    HW1 8788   2.675   1.389   3.828
 2833SOL    HW2 8789   2.765   1.459   3.710
 2834SOL     OW 8790   2.523   1.790   4.677
 2834SOL    HW1 8791   2.477   1.878   4.664
 2834SOL    HW2 8792   2.622   1.802   4.670
 2835SOL     OW 8793   2.721   0.956   4.585
 2835SOL    HW1 8794   2.775   0.887   4.633
 2835SOL    HW2 8795   2.689   1.025   4.651
 2836SOL     OW 8796   2.945   0.984   3.811
 2836SOL    HW1 8797   2.922   1.037   3.729
 2836SOL    HW2 8798   3.026   0.928   3.792
 2837SOL     OW 8799   3.723   1.569   4.575
 2837SOL    HW1 8800   3.652   1.557   4.505
 2837SOL    HW2 8801   3.724   1.490   4.635
 2838SOL     OW 8802   2.083   1.314   5.568
 2838SOL    HW1 8803   2.018   1.241   5.547
 2838SOL    HW2 8804   2.087   1.328   5.666
 2839SOL     OW 8805   1.941   1.240   4.377
 2839SOL    HW1 8806   1.940   1.193   4.465
 2839SOL    HW2 8807   2.023   1.212   4.326
 2840SOL     OW 8808   2.534   1.391   5.348
 2840SOL    HW1 8809   2.456   1.341   5.386
 2840SOL    HW2 8810   2.531   1.486   5.379
 2841SOL     OW 8811   3.686   0.192   4.951
 2841SOL    HW1 8812   3.682   0.102   4.995
 2841SOL    HW2 8813   3.689   0.181   4.852
 2842SOL     OW 8814   2.290   0.424   4.244
 2842SOL    HW1 8815   2.320   0.352   4.182
 2842SOL    HW2 8816   2.251   0.384   4.327
 2843SOL     OW 8817   3.567   1.487   4.828
 2843SOL    HW1 8818   3.474   1.462   4.801
 2843SOL    HW2 8819   3.593   1.437   4.910
 2844SOL     OW 8820   2.179   0.547   5.004
 2844SOL    HW1 8821   2.217   0.488   5.076
 2844SOL    HW2 8822   2.219   0.521   4.916
 2845SOL     OW 8823   2.674   1.586   4.411
 2845SOL    HW1 8824   2.706   1.596   4.317
 2845SOL    HW2 8825   2.595   1.524   4.413
 2846SOL     OW 8826   3.286   0.214   4.836
 2846SOL    HW1 8827   3.338   0.149   4.891
 2846SOL    HW2 8828   3.237   0.277   4.897
 2847SOL     OW 8829   2.863   0.034   4.878
 2847SOL    HW1 8830   2.800  -0.038   4.847
 2847SOL    HW2 8831   2.956  -0.002   4.878
 2848SOL     OW 8832   2.632   1.330   4.025
 2848SOL    HW1 8833   2.586   1.243   4.042
 2848SOL    HW2 8834   2.723   1.327   4.066
 2849SOL     OW 8835   2.480   1.567   5.008
 2849SOL    HW1 8836   2.475   1.649   5.065
 2849SOL    HW2 8837   2.569   1.564   4.963
 2850SOL     OW 8838   3.214   0.052   3.892
 2850SOL    HW1 8839   3.249   0.011   3.808
 2850SOL    HW2 8840   3.124   0.014   3.912
 2851SOL     OW 8841   3.162   0.453   4.415
 2851SOL    HW1 8842   3.103   0.533   4.419
 2851SOL    HW2 8843   3.177   0.418   4.508
 2852SOL     OW 8844   3.455   0.221   4.606
 2852SOL    HW1 8845   3.371   0.220   4.660
 2852SOL    HW2 8846   3.457   0.304   4.550
 2853SOL     OW 8847   1.901   1.077   4.024
 2853SOL    HW1 8848   2.000   1.066   4.015
 2853SOL    HW2 8849   1.861   0.991   4.056
 2854SOL     OW 8850   2.737   1.646   4.061
 2854SOL    HW1 8851   2.660   1.611   4.007
 2854SOL    HW2 8852   2.705   1.717   4.123
 2855SOL     OW 8853   2.092   0.628   5.699
 2855SOL    HW1 8854   1.999   0.626   5.736
 2855SOL    HW2 8855   2.093   0.589   5.607
 2856SOL     OW 8856   3.617   0.607   5.817
 2856SOL    HW1 8857   3.605   0.594   5.718
 2856SOL    HW2 8858   3.587   0.526   5.866
 2857SOL     OW 8859   2.093   1.713   6.069
 2857SOL    HW1 8860   2.127   1.790   6.123
 2857SOL    HW2 8861   2.137   1.713   5.979
 2858SOL     OW 8862   2.468   0.964   5.709
 2858SOL    HW1 8863   2.475   1.048   5.655
 2858SOL    HW2 8864   2.514   0.977   5.797
 2859SOL     OW 8865   3.704   1.767   5.945
 2859SOL    HW1 8866   3.758   1.738   6.025
 2859SOL    HW2 8867   3.734   1.857   5.916
 2860SOL     OW 8868   1.889   1.596   5.703
 2860SOL    HW1 8869   1.870   1.500   5.724
 2860SOL    HW2 8870   1.856   1.654   5.778
 2861SOL     OW 8871   3.551   0.922   6.198
 2861SOL    HW1 8872   3.646   0.893   6.206
 2861SOL    HW2 8873   3.543   0.987   6.123
 2862SOL     OW 8874   3.503   1.108   6.018
 2862SOL    HW1 8875   3.589   1.110   5.966
 2862SOL    HW2 8876   3.517   1.155   6.106
 2863SOL     OW 8877   3.387   0.999   5.776
 2863SOL    HW1 8878   3.324   0.923   5.789
 2863SOL    HW2 8879   3.435   1.017   5.862
 2864SOL     OW 8880   2.460   0.729   5.856
 2864SOL    HW1 8881   2.484   0.798   5.788
 2864SOL    HW2 8882   2.382   0.762   5.910
 2865SOL     OW 8883   2.727   0.348   5.781
 2865SOL    HW1 8884   2.786   0.411   5.732
 2865SOL    HW2 8885   2.746   0.254   5.752
 2866SOL     OW 8886   2.183   0.943   5.828
 2866SOL    HW1 8887   2.265   0.982   5.786
 2866SOL    HW2 8888   2.156   0.861   5.779
 2867SOL     OW 8889   2.973   1.776   5.823
 2867SOL    HW1 8890   2.913   1.714   5.873
 2867SOL    HW2 8891   3.004   1.732   5.738
 2868SOL     OW 8892   3.494   1.377   5.667
 2868SOL    HW1 8893   3.462   1.471   5.657
 2868SOL    HW2 8894   3.418   1.314   5.655
 2869SOL     OW 8895   2.326   1.743   5.909
 2869SOL    HW1 8896   2.359   1.782   5.995
 2869SOL    HW2 8897   2.402   1.736   5.844
 2870SOL     OW 8898   2.476   0.122   5.703
 2870SOL    HW1 8899   2.574   0.100   5.710
 2870SOL    HW2 8900   2.445   0.105   5.610
 2871SOL     OW 8901   3.296   1.188   5.627
 2871SOL    HW1 8902   3.328   1.112   5.684
 2871SOL    HW2 8903   3.204   1.215   5.657
 2872SOL     OW 8904   2.159   0.035   5.757
 2872SOL    HW1 8905   2.208   0.119   5.736
 2872SOL    HW2 8906   2.221  -0.030   5.802
 2873SOL     OW 8907   2.894   0.549   5.602
 2873SOL    HW1 8908   2.853   0.631   5.563
 2873SOL    HW2 8909   2.958   0.575   5.675
 2874SOL     OW 8910   3.719   0.833   5.963
 2874SOL    HW1 8911   3.761   0.769   6.027
 2874SOL    HW2 8912   3.681   0.782   5.885
 2875SOL     OW 8913   2.350   1.385   5.760
 2875SOL    HW1 8914   2.263   1.370   5.807
 2875SOL    HW2 8915   2.333   1.411   5.665
 2876SOL     OW 8916   3.526   1.280   6.243
 2876SOL    HW1 8917   3.625   1.288   6.257
 2876SOL    HW2 8918   3.481   1.364   6.274
 2877SOL     OW 8919   3.252   0.575   5.664
 2877SOL    HW1 8920   3.198   0.554   5.745
 2877SOL    HW2 8921   3.343   0.534   5.673
 2878SOL     OW 8922   2.389   0.256   5.914
 2878SOL    HW1 8923   2.416   0.197   5.839
 2878SOL    HW2 8924   2.389   0.351   5.883
 2879SOL     OW 8925   2.229   1.100   6.087
 2879SOL    HW1 8926   2.222   1.183   6.031
 2879SOL    HW2 8927   2.233   1.020   6.027
 2880SOL     OW 8928   3.071   0.525   5.861
 2880SOL    HW1 8929   3.084   0.441   5.915
 2880SOL    HW2 8930   3.042   0.599   5.921
 2881SOL     OW 8931   3.402   0.274   5.711
 2881SOL    HW1 8932   3.341   0.199   5.734
 2881SOL    HW2 8933   3.424   0.326   5.794
 2882SOL     OW 8934   3.165   0.838   5.628
 2882SOL    HW1 8935   3.199   0.745   5.643
 2882SOL    HW2 8936   3.183   0.865   5.533
 2883SOL     OW 8937   1.870   1.326   5.786
 2883SOL    HW1 8938   1.777   1.347   5.755
 2883SOL    HW2 8939   1.880   1.227   5.799
 2884SOL     OW 8940   2.677   0.572   5.911
 2884SOL    HW1 8941   2.684   0.483   5.865
 2884SOL    HW2 8942   2.583   0.606   5.903
 2885SOL     OW 8943   2.335   0.500   5.777
 2885SOL    HW1 8944   2.396   0.580   5.781
 2885SOL    HW2 8945   2.240   0.531   5.784
 2886SOL     OW 8946   3.588   0.135   6.109
 2886SOL    HW1 8947   3.661   0.118   6.042
 2886SOL    HW2 8948   3.557   0.048   6.147
 2887SOL     OW 8949   2.534   1.616   5.740
 2887SOL    HW1 8950   2.543   1.626   5.641
 2887SOL    HW2 8951   2.494   1.527   5.761
 2888SOL     OW 8952   3.056   1.612   5.617
 2888SOL    HW1 8953   3.062   1.519   5.654
 2888SOL    HW2 8954   2.997   1.612   5.537
 2889SOL     OW 8955   2.778   0.910   5.877
 2889SOL    HW1 8956   2.841   0.948   5.809
 2889SOL    HW2 8957   2.818   0.827   5.916
 2890SOL     OW 8958   3.366   1.607   5.630
 2890SOL    HW1 8959   3.274   1.644   5.637
 2890SOL    HW2 8960   3.404   1.627   5.540
 2891SOL     OW 8961   2.901   1.098   6.282
 2891SOL    HW1 8962   2.831   1.051   6.336
 2891SOL    HW2 8963   2.960   1.030   6.239
 2892SOL     OW 8964   2.117   1.348   5.876
 2892SOL    HW1 8965   2.021   1.349   5.849
 2892SOL    HW2 8966   2.129   1.401   5.960
 2893SOL     OW 8967   1.937   0.345   5.619
 2893SOL    HW1 8968   1.845   0.317   5.590
 2893SOL    HW2 8969   1.968   0.422   5.563
 2894SOL     OW 8970   1.934   0.166   5.904
 2894SOL    HW1 8971   1.917   0.249   5.850
 2894SOL    HW2 8972   2.024   0.129   5.882
 2895SOL     OW 8973   3.045   1.335   5.705
 2895SOL    HW1 8974   2.946   1.324   5.707
 2895SOL    HW2 8975   3.079   1.350   5.798
 2896SOL     OW 8976   3.087   0.325   6.035
 2896SOL    HW1 8977   3.152   0.251   6.024
 2896SOL    HW2 8978   3.107   0.375   6.119
 2897SOL     OW 8979   2.721   1.374   5.602
 2897SOL    HW1 8980   2.675   1.389   5.690
 2897SOL    HW2 8981   2.765   1.459   5.572
 2898SOL     OW 8982   2.945   0.984   5.673
 2898SOL    HW1 8983   2.922   1.037   5.591
 2898SOL    HW2 8984   3.026   0.928   5.654
 2899SOL     OW 8985   3.214   0.052   5.754
 2899SOL    HW1 8986   3.249   0.011   5.670
 2899SOL    HW2 8987   3.124   0.014   5.774
 2900SOL     OW 8988   1.901   1.077   5.886
 2900SOL    HW1 8989   2.000   1.066   5.877
 2900SOL    HW2 8990   1.861   0.991   5.918
 2901SOL     OW 8991   2.737   1.646   5.923
 2901SOL    HW1 8992   2.660   1.611   5.869
 2901SOL    HW2 8993   2.705   1.717   5.985
 2902SOL     OW 8994   2.092   2.490   0.113
 2902SOL    HW1 8995   1.999   2.488   0.150
 2902SOL    HW2 8996   2.093   2.451   0.021
 2903SOL     OW 8997   2.087   2.137   0.996
 2903SOL    HW1 8998   2.122   2.120   1.088
 2903SOL    HW2 8999   1.999   2.092   0.984
 2904SOL     OW 9000   1.881   2.230   0.647
 2904SOL    HW1 9001   1.799   2.273   0.686
 2904SOL    HW2 9002   1.853   2.157   0.584
 2905SOL     OW 9003   2.431   3.137   1.165
 2905SOL    HW1 9004   2.338   3.130   1.128
 2905SOL    HW2 9005   2.442   3.226   1.209
 2906SOL     OW 9006   3.417   3.373   0.703
 2906SOL    HW1 9007   3.360   3.357   0.784
 2906SOL    HW2 9008   3.358   3.383   0.623
 2907SOL     OW 9009   2.997   2.565   0.717
 2907SOL    HW1 9010   3.054   2.643   0.692
 2907SOL    HW2 9011   2.937   2.591   0.793
 2908SOL     OW 9012   3.617   2.469   0.231
 2908SOL    HW1 9013   3.605   2.456   0.132
 2908SOL    HW2 9014   3.587   2.388   0.280
 2909SOL     OW 9015   2.630   3.006   1.023
 2909SOL    HW1 9016   2.552   3.023   1.083
 2909SOL    HW2 9017   2.664   3.093   0.987
 2910SOL     OW 9018   2.712   2.660   1.823
 2910SOL    HW1 9019   2.708   2.736   1.888
 2910SOL    HW2 9020   2.734   2.696   1.732
 2911SOL     OW 9021   2.547   2.874   0.665
 2911SOL    HW1 9022   2.616   2.858   0.735
 2911SOL    HW2 9023   2.474   2.931   0.703
 2912SOL     OW 9024   2.548   3.023   1.803
 2912SOL    HW1 9025   2.608   3.102   1.817
 2912SOL    HW2 9026   2.462   3.054   1.762
 2913SOL     OW 9027   2.197   3.297   1.061
 2913SOL    HW1 9028   2.119   3.266   1.008
 2913SOL    HW2 9029   2.255   3.355   1.004
 2914SOL     OW 9030   3.322   3.367   1.339
 2914SOL    HW1 9031   3.346   3.461   1.365
 2914SOL    HW2 9032   3.306   3.313   1.421
 2915SOL     OW 9033   2.300   2.254   1.499
 2915SOL    HW1 9034   2.382   2.198   1.508
 2915SOL    HW2 9035   2.219   2.196   1.503
 2916SOL     OW 9036   3.465   2.309   0.737
 2916SOL    HW1 9037   3.391   2.355   0.687
 2916SOL    HW2 9038   3.516   2.377   0.790
 2917SOL     OW 9039   2.093   3.575   0.483
 2917SOL    HW1 9040   2.127   3.652   0.537
 2917SOL    HW2 9041   2.137   3.575   0.393
 2918SOL     OW 9042   2.989   3.203   1.690
 2918SOL    HW1 9043   3.036   3.203   1.778
 2918SOL    HW2 9044   2.941   3.116   1.679
 2919SOL     OW 9045   2.092   3.296   0.538
 2919SOL    HW1 9046   2.066   3.392   0.538
 2919SOL    HW2 9047   2.021   3.242   0.583
 2920SOL     OW 9048   2.102   2.953   0.886
 2920SOL    HW1 9049   2.116   2.869   0.938
 2920SOL    HW2 9050   2.047   3.017   0.941
 2921SOL     OW 9051   2.482   3.648   1.439
 2921SOL    HW1 9052   2.390   3.631   1.474
 2921SOL    HW2 9053   2.510   3.740   1.465
 2922SOL     OW 9054   2.468   2.826   0.123
 2922SOL    HW1 9055   2.475   2.910   0.069
 2922SOL    HW2 9056   2.514   2.839   0.211
 2923SOL     OW 9057   3.456   1.976   1.480
 2923SOL    HW1 9058   3.438   2.043   1.408
 2923SOL    HW2 9059   3.453   2.022   1.569
 2924SOL     OW 9060   1.984   2.505   0.563
 2924SOL    HW1 9061   1.939   2.417   0.580
 2924SOL    HW2 9062   1.983   2.559   0.647
 2925SOL     OW 9063   3.704   3.629   0.359
 2925SOL    HW1 9064   3.758   3.600   0.439
 2925SOL    HW2 9065   3.734   3.719   0.330
 2926SOL     OW 9066   1.889   3.458   0.117
 2926SOL    HW1 9067   1.870   3.362   0.138
 2926SOL    HW2 9068   1.856   3.516   0.192
 2927SOL     OW 9069   3.551   2.784   0.612
 2927SOL    HW1 9070   3.646   2.755   0.620
 2927SOL    HW2 9071   3.543   2.849   0.537
 2928SOL     OW 9072   3.503   2.970   0.432
 2928SOL    HW1 9073   3.589   2.972   0.380
 2928SOL    HW2 9074   3.517   3.017   0.520
 2929SOL     OW 9075   1.975   2.599   1.597
 2929SOL    HW1 9076   2.063   2.586   1.642
 2929SOL    HW2 9077   1.962   2.696   1.575
 2930SOL     OW 9078   2.475   3.227   0.726
 2930SOL    HW1 9079   2.426   3.140   0.735
 2930SOL    HW2 9080   2.452   3.270   0.639
 2931SOL     OW 9081   3.155   3.090   1.423
 2931SOL    HW1 9082   3.192   3.017   1.365
 2931SOL    HW2 9083   3.207   3.095   1.508
 2932SOL     OW 9084   2.671   1.866   0.502
 2932SOL    HW1 9085   2.711   1.957   0.493
 2932SOL    HW2 9086   2.571   1.874   0.508
 2933SOL     OW 9087   2.059   2.838   1.264
 2933SOL    HW1 9088   2.148   2.793   1.250
 2933SOL    HW2 9089   1.986   2.773   1.245
 2934SOL     OW 9090   3.387   2.861   0.190
 2934SOL    HW1 9091   3.324   2.785   0.203
 2934SOL    HW2 9092   3.435   2.879   0.276
 2935SOL     OW 9093   3.049   3.654   1.616
 2935SOL    HW1 9094   3.073   3.714   1.540
 2935SOL    HW2 9095   3.056   3.559   1.586
 2936SOL     OW 9096   2.179   2.113   1.801
 2936SOL    HW1 9097   2.250   2.184   1.807
 2936SOL    HW2 9098   2.091   2.152   1.829
 2937SOL     OW 9099   3.328   3.279   0.953
 2937SOL    HW1 9100   3.269   3.285   1.033
 2937SOL    HW2 9101   3.313   3.191   0.907
 2938SOL     OW 9102   3.529   3.576   0.572
 2938SOL    HW1 9103   3.488   3.553   0.484
 2938SOL    HW2 9104   3.511   3.502   0.637
 2939SOL     OW 9105   2.460   2.591   0.270
 2939SOL    HW1 9106   2.484   2.660   0.202
 2939SOL    HW2 9107   2.382   2.624   0.324
 2940SOL     OW 9108   3.143   2.207   0.944
 2940SOL    HW1 9109   3.057   2.157   0.931
 2940SOL    HW2 9110   3.205   2.153   1.000
 2941SOL     OW 9111   3.438   3.524   0.307
 2941SOL    HW1 9112   3.527   3.570   0.310
 2941SOL    HW2 9113   3.417   3.500   0.212
 2942SOL     OW 9114   2.669   2.467   1.465
 2942SOL    HW1 9115   2.622   2.464   1.554
 2942SOL    HW2 9116   2.618   2.412   1.399
 2943SOL     OW 9117   3.256   2.331   1.674
 2943SOL    HW1 9118   3.236   2.374   1.762
 2943SOL    HW2 9119   3.334   2.269   1.683
 2944SOL     OW 9120   2.835   2.752   1.572
 2944SOL    HW1 9121   2.881   2.668   1.543
 2944SOL    HW2 9122   2.779   2.786   1.497
 2945SOL     OW 9123   2.853   2.272   1.242
 2945SOL    HW1 9124   2.776   2.306   1.296
 2945SOL    HW2 9125   2.819   2.221   1.163
 2946SOL     OW 9126   2.903   2.563   0.429
 2946SOL    HW1 9127   2.929   2.559   0.525
 2946SOL    HW2 9128   2.818   2.512   0.415
 2947SOL     OW 9129   1.938   2.673   0.789
 2947SOL    HW1 9130   2.037   2.661   0.798
 2947SOL    HW2 9131   1.914   2.768   0.810
 2948SOL     OW 9132   1.992   3.683   1.571
 2948SOL    HW1 9133   1.982   3.668   1.670
 2948SOL    HW2 9134   1.906   3.719   1.535
 2949SOL     OW 9135   2.727   2.210   0.195
 2949SOL    HW1 9136   2.786   2.273   0.146
 2949SOL    HW2 9137   2.746   2.116   0.166
 2950SOL     OW 9138   3.581   2.447   1.831
 2950SOL    HW1 9139   3.555   2.536   1.795
 2950SOL    HW2 9140   3.579   2.379   1.758
 2951SOL     OW 9141   3.224   3.006   0.545
 2951SOL    HW1 9142   3.307   2.977   0.497
 2951SOL    HW2 9143   3.175   3.073   0.489
 2952SOL     OW 9144   2.412   2.058   0.885
 2952SOL    HW1 9145   2.407   2.053   0.985
 2952SOL    HW2 9146   2.414   2.154   0.856
 2953SOL     OW 9147   2.870   3.318   0.477
 2953SOL    HW1 9148   2.824   3.390   0.425
 2953SOL    HW2 9149   2.866   3.338   0.575
 2954SOL     OW 9150   2.213   3.663   0.853
 2954SOL    HW1 9151   2.263   3.577   0.859
 2954SOL    HW2 9152   2.278   3.740   0.850
 2955SOL     OW 9153   3.657   2.928   0.873
 2955SOL    HW1 9154   3.595   2.913   0.797
 2955SOL    HW2 9155   3.605   2.939   0.958
 2956SOL     OW 9156   3.089   3.412   1.506
 2956SOL    HW1 9157   3.095   3.335   1.570
 2956SOL    HW2 9158   3.037   3.386   1.426
 2957SOL     OW 9159   2.183   2.805   0.242
 2957SOL    HW1 9160   2.265   2.844   0.200
 2957SOL    HW2 9161   2.156   2.723   0.193
 2958SOL     OW 9162   3.320   2.597   0.728
 2958SOL    HW1 9163   3.315   2.532   0.803
 2958SOL    HW2 9164   3.400   2.656   0.741
 2959SOL     OW 9165   2.323   3.128   1.727
 2959SOL    HW1 9166   2.273   3.129   1.641
 2959SOL    HW2 9167   2.260   3.110   1.803
 2960SOL     OW 9168   2.973   3.638   0.237
 2960SOL    HW1 9169   2.913   3.576   0.287
 2960SOL    HW2 9170   3.004   3.594   0.152
 2961SOL     OW 9171   2.064   2.147   1.498
 2961SOL    HW1 9172   1.984   2.207   1.485
 2961SOL    HW2 9173   2.054   2.098   1.584
 2962SOL     OW 9174   3.494   3.239   0.081
 2962SOL    HW1 9175   3.462   3.333   0.071
 2962SOL    HW2 9176   3.418   3.176   0.069
 2963SOL     OW 9177   2.326   3.605   0.323
 2963SOL    HW1 9178   2.359   3.644   0.409
 2963SOL    HW2 9179   2.402   3.598   0.258
 2964SOL     OW 9180   3.262   1.969   0.426
 2964SOL    HW1 9181   3.238   1.932   0.336
 2964SOL    HW2 9182   3.361   1.985   0.430
 2965SOL     OW 9183   2.111   3.647   1.241
 2965SOL    HW1 9184   2.168   3.582   1.291
 2965SOL    HW2 9185   2.095   3.614   1.148
 2966SOL     OW 9186   2.802   3.560   0.904
 2966SOL    HW1 9187   2.882   3.503   0.925
 2966SOL    HW2 9188   2.753   3.520   0.827
 2967SOL     OW 9189   2.244   2.562   0.480
 2967SOL    HW1 9190   2.289   2.472   0.477
 2967SOL    HW2 9191   2.150   2.551   0.513
 2968SOL     OW 9192   3.409   2.084   1.729
 2968SOL    HW1 9193   3.404   2.121   1.821
 2968SOL    HW2 9194   3.337   2.015   1.717
 2969SOL     OW 9195   2.476   1.984   0.117
 2969SOL    HW1 9196   2.574   1.962   0.124
 2969SOL    HW2 9197   2.445   1.967   0.024
 2970SOL     OW 9198   2.643   2.126   1.749
 2970SOL    HW1 9199   2.710   2.065   1.792
 2970SOL    HW2 9200   2.570   2.145   1.814
 2971SOL     OW 9201   2.750   3.376   1.195
 2971SOL    HW1 9202   2.727   3.351   1.101
 2971SOL    HW2 9203   2.811   3.307   1.234
 2972SOL     OW 9204   3.213   2.452   1.433
 2972SOL    HW1 9205   3.241   2.409   1.518
 2972SOL    HW2 9206   3.238   2.548   1.434
 2973SOL     OW 9207   2.665   3.264   0.924
 2973SOL    HW1 9208   2.755   3.278   0.882
 2973SOL    HW2 9209   2.594   3.266   0.853
 2974SOL     OW 9210   2.784   2.365   0.899
 2974SOL    HW1 9211   2.759   2.356   0.803
 2974SOL    HW2 9212   2.832   2.283   0.930
 2975SOL     OW 9213   2.401   1.926   0.512
 2975SOL    HW1 9214   2.320   1.927   0.570
 2975SOL    HW2 9215   2.404   2.009   0.457
 2976SOL     OW 9216   3.296   3.050   0.041
 2976SOL    HW1 9217   3.328   2.974   0.098
 2976SOL    HW2 9218   3.204   3.077   0.071
 2977SOL     OW 9219   2.797   2.098   0.480
 2977SOL    HW1 9220   2.749   2.139   0.402
 2977SOL    HW2 9221   2.896   2.096   0.461
 2978SOL     OW 9222   2.938   2.545   1.464
 2978SOL    HW1 9223   2.858   2.484   1.467
 2978SOL    HW2 9224   3.019   2.492   1.440
 2979SOL     OW 9225   3.089   3.432   0.793
 2979SOL    HW1 9226   3.110   3.506   0.728
 2979SOL    HW2 9227   3.157   3.432   0.866
 2980SOL     OW 9228   2.321   3.014   0.741
 2980SOL    HW1 9229   2.250   2.987   0.806
 2980SOL    HW2 9230   2.295   2.986   0.648
 2981SOL     OW 9231   3.133   3.659   0.591
 2981SOL    HW1 9232   3.177   3.723   0.527
 2981SOL    HW2 9233   3.083   3.711   0.661
 2982SOL     OW 9234   2.894   2.411   0.016
 2982SOL    HW1 9235   2.853   2.493  -0.023
 2982SOL    HW2 9236   2.958   2.437   0.089
 2983SOL     OW 9237   1.940   2.418   1.386
 2983SOL    HW1 9238   2.032   2.417   1.345
 2983SOL    HW2 9239   1.934   2.492   1.453
 2984SOL     OW 9240   2.423   2.084   1.147
 2984SOL    HW1 9241   2.461   2.000   1.184
 2984SOL    HW2 9242   2.335   2.103   1.191
 2985SOL     OW 9243   2.728   2.316   0.642
 2985SOL    HW1 9244   2.696   2.388   0.580
 2985SOL    HW2 9245   2.752   2.235   0.589
 2986SOL     OW 9246   2.879   1.901   0.753
 2986SOL    HW1 9247   2.807   1.906   0.684
 2986SOL    HW2 9248   2.855   1.832   0.822
 2987SOL     OW 9249   3.291   3.035   0.867
 2987SOL    HW1 9250   3.236   2.951   0.860
 2987SOL    HW2 9251   3.317   3.064   0.775
 2988SOL     OW 9252   3.328   2.452   0.992
 2988SOL    HW1 9253   3.298   2.357   0.999
 2988SOL    HW2 9254   3.401   2.468   1.058
 2989SOL     OW 9255   3.719   2.695   0.377
 2989SOL    HW1 9256   3.761   2.631   0.441
 2989SOL    HW2 9257   3.681   2.644   0.299
 2990SOL     OW 9258   2.350   3.247   0.174
 2990SOL    HW1 9259   2.263   3.232   0.221
 2990SOL    HW2 9260   2.333   3.273   0.079
 2991SOL     OW 9261   3.526   3.142   0.657
 2991SOL    HW1 9262   3.625   3.150   0.671
 2991SOL    HW2 9263   3.481   3.226   0.688
 2992SOL     OW 9264   3.252   2.437   0.078
 2992SOL    HW1 9265   3.198   2.416   0.159
 2992SOL    HW2 9266   3.343   2.396   0.087
 2993SOL     OW 9267   2.389   2.118   0.328
 2993SOL    HW1 9268   2.416   2.059   0.253
 2993SOL    HW2 9269   2.389   2.213   0.297
 2994SOL     OW 9270   3.616   3.085   1.588
 2994SOL    HW1 9271   3.707   3.046   1.575
 2994SOL    HW2 9272   3.624   3.181   1.612
 2995SOL     OW 9273   2.926   3.209   1.340
 2995SOL    HW1 9274   2.846   3.186   1.395
 2995SOL    HW2 9275   3.009   3.183   1.389
 2996SOL     OW 9276   3.454   3.491   1.625
 2996SOL    HW1 9277   3.481   3.525   1.535
 2996SOL    HW2 9278   3.533   3.453   1.671
 2997SOL     OW 9279   2.973   3.057   1.100
 2997SOL    HW1 9280   2.933   3.101   1.181
 2997SOL    HW2 9281   2.932   3.094   1.017
 2998SOL     OW 9282   3.500   2.961   1.079
 2998SOL    HW1 9283   3.505   3.042   1.138
 2998SOL    HW2 9284   3.414   2.963   1.028
 2999SOL     OW 9285   2.777   1.951   1.402
 2999SOL    HW1 9286   2.802   1.931   1.307
 2999SOL    HW2 9287   2.849   2.007   1.444
 3000SOL     OW 9288   2.842   2.978   1.719
 3000SOL    HW1 9289   2.743   2.984   1.729
 3000SOL    HW2 9290   2.865   2.898   1.663
 3001SOL     OW 9291   2.567   2.912   0.368
 3001SOL    HW1 9292   2.553   2.919   0.467
 3001SOL    HW2 9293   2.651   2.861   0.350
 3002SOL     OW 9294   2.272   2.675   1.251
 3002SOL    HW1 9295   2.358   2.687   1.301
 3002SOL    HW2 9296   2.230   2.588   1.278
 3003SOL     OW 9297   3.136   2.248   1.262
 3003SOL    HW1 9298   3.157   2.322   1.326
 3003SOL    HW2 9299   3.047   2.265   1.219
 3004SOL     OW 9300   1.926   3.426   1.331
 3004SOL    HW1 9301   1.880   3.508   1.297
 3004SOL    HW2 9302   2.024   3.445   1.340
 3005SOL     OW 9303   2.229   2.962   0.501
 3005SOL    HW1 9304   2.222   3.045   0.445
 3005SOL    HW2 9305   2.233   2.882   0.441
 3006SOL     OW 9306   2.428   2.399   0.865
 3006SOL    HW1 9307   2.440   2.465   0.791
 3006SOL    HW2 9308   2.474   2.433   0.948
 3007SOL     OW 9309   3.114   3.210   0.388
 3007SOL    HW1 9310   3.164   3.287   0.428
 3007SOL    HW2 9311   3.019   3.212   0.420
 3008SOL     OW 9312   3.134   3.307   1.142
 3008SOL    HW1 9313   3.181   3.320   1.229
 3008SOL    HW2 9314   3.068   3.233   1.151
 3009SOL     OW 9315   3.444   2.501   0.472
 3009SOL    HW1 9316   3.413   2.562   0.545
 3009SOL    HW2 9317   3.494   2.553   0.403
 3010SOL     OW 9318   2.216   3.372   1.329
 3010SOL    HW1 9319   2.195   3.328   1.242
 3010SOL    HW2 9320   2.313   3.398   1.332
 3011SOL     OW 9321   2.264   2.613   1.598
 3011SOL    HW1 9322   2.332   2.668   1.551
 3011SOL    HW2 9323   2.304   2.525   1.625
 3012SOL     OW 9324   3.449   2.641   1.670
 3012SOL    HW1 9325   3.357   2.679   1.665
 3012SOL    HW2 9326   3.509   2.688   1.605
 3013SOL     OW 9327   2.875   1.967   1.770
 3013SOL    HW1 9328   2.881   2.052   1.718
 3013SOL    HW2 9329   2.907   1.891   1.713
 3014SOL     OW 9330   2.366   1.912   1.740
 3014SOL    HW1 9331   2.324   1.855   1.670
 3014SOL    HW2 9332   2.300   1.981   1.772
 3015SOL     OW 9333   2.435   2.732   1.029
 3015SOL    HW1 9334   2.479   2.821   1.020
 3015SOL    HW2 9335   2.372   2.732   1.106
 3016SOL     OW 9336   3.222   2.724   1.045
 3016SOL    HW1 9337   3.147   2.724   0.979
 3016SOL    HW2 9338   3.259   2.632   1.054
 3017SOL     OW 9339   3.071   2.387   0.275
 3017SOL    HW1 9340   3.084   2.303   0.329
 3017SOL    HW2 9341   3.042   2.461   0.335
 3018SOL     OW 9342   2.169   2.075   1.231
 3018SOL    HW1 9343   2.146   2.112   1.321
 3018SOL    HW2 9344   2.139   1.980   1.225
 3019SOL     OW 9345   1.899   3.172   1.282
 3019SOL    HW1 9346   1.952   3.123   1.350
 3019SOL    HW2 9347   1.921   3.270   1.287
 3020SOL     OW 9348   2.594   2.496   1.064
 3020SOL    HW1 9349   2.653   2.470   0.988
 3020SOL    HW2 9350   2.566   2.592   1.053
 3021SOL     OW 9351   3.590   2.797   1.854
 3021SOL    HW1 9352   3.544   2.790   1.765
 3021SOL    HW2 9353   3.528   2.841   1.920
 3022SOL     OW 9354   2.169   1.925   0.618
 3022SOL    HW1 9355   2.158   2.019   0.651
 3022SOL    HW2 9356   2.164   1.862   0.695
 3023SOL     OW 9357   3.484   2.229   0.374
 3023SOL    HW1 9358   3.486   2.153   0.438
 3023SOL    HW2 9359   3.436   2.306   0.414
 3024SOL     OW 9360   2.885   2.628   0.966
 3024SOL    HW1 9361   2.900   2.649   1.062
 3024SOL    HW2 9362   2.855   2.533   0.957
 3025SOL     OW 9363   2.842   3.435   1.700
 3025SOL    HW1 9364   2.822   3.479   1.612
 3025SOL    HW2 9365   2.881   3.344   1.684
 3026SOL     OW 9366   3.721   3.380   1.605
 3026SOL    HW1 9367   3.735   3.407   1.510
 3026SOL    HW2 9368   3.804   3.402   1.658
 3027SOL     OW 9369   2.212   2.760   1.804
 3027SOL    HW1 9370   2.288   2.804   1.852
 3027SOL    HW2 9371   2.247   2.713   1.722
 3028SOL     OW 9372   3.402   2.136   0.125
 3028SOL    HW1 9373   3.341   2.061   0.148
 3028SOL    HW2 9374   3.424   2.188   0.208
 3029SOL     OW 9375   3.165   2.700   0.042
 3029SOL    HW1 9376   3.199   2.607   0.057
 3029SOL    HW2 9377   3.183   2.727  -0.053
 3030SOL     OW 9378   2.930   3.195   0.849
 3030SOL    HW1 9379   2.937   3.111   0.794
 3030SOL    HW2 9380   2.992   3.264   0.813
 3031SOL     OW 9381   2.181   2.672   0.949
 3031SOL    HW1 9382   2.274   2.708   0.954
 3031SOL    HW2 9383   2.175   2.587   1.001
 3032SOL     OW 9384   2.201   2.371   1.006
 3032SOL    HW1 9385   2.149   2.288   0.989
 3032SOL    HW2 9386   2.278   2.376   0.942
 3033SOL     OW 9387   3.000   2.242   1.678
 3033SOL    HW1 9388   2.955   2.305   1.742
 3033SOL    HW2 9389   3.093   2.273   1.661
 3034SOL     OW 9390   3.022   2.069   1.477
 3034SOL    HW1 9391   3.022   2.133   1.554
 3034SOL    HW2 9392   3.050   2.117   1.394
 3035SOL     OW 9393   1.950   3.663   0.927
 3035SOL    HW1 9394   1.908   3.577   0.900
 3035SOL    HW2 9395   2.044   3.666   0.893
 3036SOL     OW 9396   2.366   3.430   0.910
 3036SOL    HW1 9397   2.432   3.504   0.919
 3036SOL    HW2 9398   2.410   3.351   0.868
 3037SOL     OW 9399   2.864   2.658   1.238
 3037SOL    HW1 9400   2.905   2.626   1.324
 3037SOL    HW2 9401   2.768   2.631   1.235
 3038SOL     OW 9402   1.902   2.406   1.114
 3038SOL    HW1 9403   1.987   2.373   1.073
 3038SOL    HW2 9404   1.915   2.421   1.212
 3039SOL     OW 9405   2.051   2.382   1.722
 3039SOL    HW1 9406   2.110   2.342   1.652
 3039SOL    HW2 9407   1.993   2.453   1.681
 3040SOL     OW 9408   3.231   2.812   1.660
 3040SOL    HW1 9409   3.270   2.901   1.680
 3040SOL    HW2 9410   3.241   2.792   1.563
 3041SOL     OW 9411   2.677   2.434   0.325
 3041SOL    HW1 9412   2.684   2.345   0.279
 3041SOL    HW2 9413   2.583   2.468   0.317
 3042SOL     OW 9414   3.519   2.466   1.206
 3042SOL    HW1 9415   3.481   2.397   1.268
 3042SOL    HW2 9416   3.601   2.430   1.162
 3043SOL     OW 9417   2.114   3.426   1.744
 3043SOL    HW1 9418   2.084   3.483   1.820
 3043SOL    HW2 9419   2.107   3.329   1.770
 3044SOL     OW 9420   2.533   2.326   1.269
 3044SOL    HW1 9421   2.499   2.237   1.239
 3044SOL    HW2 9422   2.559   2.380   1.189
 3045SOL     OW 9423   2.792   3.540   1.465
 3045SOL    HW1 9424   2.768   3.522   1.370
 3045SOL    HW2 9425   2.822   3.634   1.475
 3046SOL     OW 9426   2.335   2.362   0.191
 3046SOL    HW1 9427   2.396   2.442   0.195
 3046SOL    HW2 9428   2.240   2.393   0.198
 3047SOL     OW 9429   2.021   2.999   1.466
 3047SOL    HW1 9430   2.043   2.938   1.542
 3047SOL    HW2 9431   2.031   2.950   1.380
 3048SOL     OW 9432   3.209   2.921   1.234
 3048SOL    HW1 9433   3.233   2.858   1.160
 3048SOL    HW2 9434   3.119   2.961   1.216
 3049SOL     OW 9435   3.164   2.717   0.309
 3049SOL    HW1 9436   3.078   2.686   0.351
 3049SOL    HW2 9437   3.160   2.703   0.210
 3050SOL     OW 9438   3.621   3.609   1.154
 3050SOL    HW1 9439   3.682   3.639   1.081
 3050SOL    HW2 9440   3.583   3.520   1.132
 3051SOL     OW 9441   3.114   3.593   1.128
 3051SOL    HW1 9442   3.198   3.598   1.074
 3051SOL    HW2 9443   3.091   3.497   1.146
 3052SOL     OW 9444   1.945   3.120   1.022
 3052SOL    HW1 9445   1.940   3.119   1.122
 3052SOL    HW2 9446   1.862   3.079   0.984
 3053SOL     OW 9447   2.550   3.524   1.716
 3053SOL    HW1 9448   2.494   3.605   1.725
 3053SOL    HW2 9449   2.602   3.528   1.630
 3054SOL     OW 9450   2.765   1.948   0.133
 3054SOL    HW1 9451   2.816   1.949   0.047
 3054SOL    HW2 9452   2.821   1.906   0.204
 3055SOL     OW 9453   3.588   1.997   0.523
 3055SOL    HW1 9454   3.661   1.980   0.456
 3055SOL    HW2 9455   3.557   1.910   0.561
 3056SOL     OW 9456   3.250   3.435   0.477
 3056SOL    HW1 9457   3.317   3.447   0.403
 3056SOL    HW2 9458   3.210   3.524   0.500
 3057SOL     OW 9459   1.992   3.656   1.851
 3057SOL    HW1 9460   1.951   3.582   1.904
 3057SOL    HW2 9461   2.056   3.707   1.909
 3058SOL     OW 9462   3.142   2.789   0.672
 3058SOL    HW1 9463   3.202   2.708   0.674
 3058SOL    HW2 9464   3.182   2.858   0.612
 3059SOL     OW 9465   2.692   3.135   1.422
 3059SOL    HW1 9466   2.687   3.168   1.517
 3059SOL    HW2 9467   2.606   3.154   1.376
 3060SOL     OW 9468   2.534   3.478   0.154
 3060SOL    HW1 9469   2.543   3.488   0.055
 3060SOL    HW2 9470   2.494   3.389   0.175
 3061SOL     OW 9471   3.512   3.582   1.394
 3061SOL    HW1 9472   3.565   3.592   1.310
 3061SOL    HW2 9473   3.485   3.672   1.428
 3062SOL     OW 9474   3.703   2.037   0.963
 3062SOL    HW1 9475   3.742   1.952   0.927
 3062SOL    HW2 9476   3.605   2.039   0.944
 3063SOL     OW 9477   2.125   2.188   0.720
 3063SOL    HW1 9478   2.046   2.239   0.686
 3063SOL    HW2 9479   2.116   2.173   0.818
 3064SOL     OW 9480   3.056   3.474   0.031
 3064SOL    HW1 9481   3.062   3.381   0.068
 3064SOL    HW2 9482   2.997   3.474  -0.049
 3065SOL     OW 9483   2.684   2.864   1.372
 3065SOL    HW1 9484   2.724   2.863   1.280
 3065SOL    HW2 9485   2.694   2.956   1.412
 3066SOL     OW 9486   2.778   2.772   0.291
 3066SOL    HW1 9487   2.841   2.810   0.223
 3066SOL    HW2 9488   2.818   2.689   0.330
 3067SOL     OW 9489   3.366   3.469   0.044
 3067SOL    HW1 9490   3.274   3.506   0.051
 3067SOL    HW2 9491   3.404   3.489  -0.046
 3068SOL     OW 9492   2.234   3.150   1.490
 3068SOL    HW1 9493   2.221   3.243   1.456
 3068SOL    HW2 9494   2.150   3.098   1.477
 3069SOL     OW 9495   3.476   3.154   1.289
 3069SOL    HW1 9496   3.536   3.157   1.369
 3069SOL    HW2 9497   3.401   3.218   1.302
 3070SOL     OW 9498   2.901   2.960   0.696
 3070SOL    HW1 9499   2.831   2.913   0.750
 3070SOL    HW2 9500   2.960   2.892   0.653
 3071SOL     OW 9501   2.876   2.098   0.971
 3071SOL    HW1 9502   2.868   2.062   0.878
 3071SOL    HW2 9503   2.874   2.022   1.036
 3072SOL     OW 9504   2.452   3.349   0.491
 3072SOL    HW1 9505   2.494   3.291   0.421
 3072SOL    HW2 9506   2.408   3.428   0.447
 3073SOL     OW 9507   3.571   2.247   1.381
 3073SOL    HW1 9508   3.644   2.316   1.385
 3073SOL    HW2 9509   3.599   2.172   1.322
 3074SOL     OW 9510   2.117   3.210   0.290
 3074SOL    HW1 9511   2.021   3.211   0.263
 3074SOL    HW2 9512   2.129   3.263   0.374
 3075SOL     OW 9513   1.967   2.875   1.726
 3075SOL    HW1 9514   1.890   2.842   1.780
 3075SOL    HW2 9515   2.052   2.845   1.768
 3076SOL     OW 9516   2.534   2.065   1.489
 3076SOL    HW1 9517   2.624   2.049   1.449
 3076SOL    HW2 9518   2.542   2.070   1.588
 3077SOL     OW 9519   1.937   2.207   0.033
 3077SOL    HW1 9520   1.845   2.179   0.004
 3077SOL    HW2 9521   1.968   2.284  -0.023
 3078SOL     OW 9522   3.302   2.718   1.398
 3078SOL    HW1 9523   3.245   2.770   1.335
 3078SOL    HW2 9524   3.398   2.730   1.374
 3079SOL     OW 9525   1.934   2.028   0.318
 3079SOL    HW1 9526   1.917   2.111   0.264
 3079SOL    HW2 9527   2.024   1.991   0.296
 3080SOL     OW 9528   3.045   3.197   0.119
 3080SOL    HW1 9529   2.946   3.186   0.121
 3080SOL    HW2 9530   3.079   3.212   0.212
 3081SOL     OW 9531   2.475   2.704   1.431
 3081SOL    HW1 9532   2.531   2.785   1.414
 3081SOL    HW2 9533   2.534   2.624   1.434
 3082SOL     OW 9534   3.355   3.629   0.959
 3082SOL    HW1 9535   3.388   3.693   0.890
 3082SOL    HW2 9536   3.421   3.623   1.034
 3083SOL     OW 9537   2.578   2.427   1.708
 3083SOL    HW1 9538   2.597   2.492   1.782
 3083SOL    HW2 9539   2.638   2.347   1.717
 3084SOL     OW 9540   3.312   3.082   1.633
 3084SOL    HW1 9541   3.303   3.072   1.732
 3084SOL    HW2 9542   3.408   3.075   1.607
 3085SOL     OW 9543   2.252   3.603   1.560
 3085SOL    HW1 9544   2.161   3.644   1.558
 3085SOL    HW2 9545   2.245   3.509   1.592
 3086SOL     OW 9546   3.536   2.745   1.254
 3086SOL    HW1 9547   3.509   2.656   1.217
 3086SOL    HW2 9548   3.537   2.813   1.181
 3087SOL     OW 9549   3.087   2.187   0.449
 3087SOL    HW1 9550   3.152   2.113   0.438
 3087SOL    HW2 9551   3.107   2.237   0.533
 3088SOL     OW 9552   2.456   2.607   0.652
 3088SOL    HW1 9553   2.506   2.692   0.633
 3088SOL    HW2 9554   2.368   2.609   0.604
 3089SOL     OW 9555   3.639   2.204   1.642
 3089SOL    HW1 9556   3.622   2.235   1.548
 3089SOL    HW2 9557   3.555   2.167   1.680
 3090SOL     OW 9558   3.592   2.796   1.517
 3090SOL    HW1 9559   3.630   2.887   1.532
 3090SOL    HW2 9560   3.584   2.779   1.418
 3091SOL     OW 9561   2.721   3.236   0.016
 3091SOL    HW1 9562   2.675   3.251   0.104
 3091SOL    HW2 9563   2.765   3.321  -0.014
 3092SOL     OW 9564   2.523   3.652   0.953
 3092SOL    HW1 9565   2.477   3.740   0.940
 3092SOL    HW2 9566   2.622   3.664   0.946
 3093SOL     OW 9567   2.721   2.818   0.861
 3093SOL    HW1 9568   2.775   2.749   0.909
 3093SOL    HW2 9569   2.689   2.887   0.927
 3094SOL     OW 9570   2.945   2.846   0.087
 3094SOL    HW1 9571   2.922   2.899   0.005
 3094SOL    HW2 9572   3.026   2.790   0.068
 3095SOL     OW 9573   3.723   3.431   0.851
 3095SOL    HW1 9574   3.652   3.419   0.781
 3095SOL    HW2 9575   3.724   3.352   0.911
 3096SOL     OW 9576   2.083   3.176   1.844
 3096SOL    HW1 9577   2.018   3.103   1.823
 3096SOL    HW2 9578   2.087   3.190   1.942
 3097SOL     OW 9579   1.941   3.102   0.653
 3097SOL    HW1 9580   1.940   3.055   0.741
 3097SOL    HW2 9581   2.023   3.074   0.602
 3098SOL     OW 9582   2.534   3.253   1.624
 3098SOL    HW1 9583   2.456   3.203   1.662
 3098SOL    HW2 9584   2.531   3.348   1.655
 3099SOL     OW 9585   3.686   2.054   1.227
 3099SOL    HW1 9586   3.682   1.964   1.271
 3099SOL    HW2 9587   3.689   2.043   1.128
 3100SOL     OW 9588   2.290   2.286   0.520
 3100SOL    HW1 9589   2.320   2.214   0.458
 3100SOL    HW2 9590   2.251   2.246   0.603
 3101SOL     OW 9591   3.567   3.349   1.104
 3101SOL    HW1 9592   3.474   3.324   1.077
 3101SOL    HW2 9593   3.593   3.299   1.186
 3102SOL     OW 9594   2.179   2.409   1.280
 3102SOL    HW1 9595   2.217   2.350   1.352
 3102SOL    HW2 9596   2.219   2.383   1.192
 3103SOL     OW 9597   2.674   3.448   0.687
 3103SOL    HW1 9598   2.706   3.458   0.593
 3103SOL    HW2 9599   2.595   3.386   0.689
 3104SOL     OW 9600   3.286   2.076   1.112
 3104SOL    HW1 9601   3.338   2.011   1.167
 3104SOL    HW2 9602   3.237   2.139   1.173
 3105SOL     OW 9603   2.863   1.896   1.154
 3105SOL    HW1 9604   2.800   1.824   1.123
 3105SOL    HW2 9605   2.956   1.860   1.154
 3106SOL     OW 9606   2.632   3.192   0.301
 3106SOL    HW1 9607   2.586   3.105   0.318
 3106SOL    HW2 9608   2.723   3.189   0.342
 3107SOL     OW 9609   2.480   3.429   1.284
 3107SOL    HW1 9610   2.475   3.511   1.341
 3107SOL    HW2 9611   2.569   3.426   1.239
 3108SOL     OW 9612   3.214   1.914   0.168
 3108SOL    HW1 9613   3.249   1.873   0.084
 3108SOL    HW2 9614   3.124   1.876   0.188
 3109SOL     OW 9615   3.162   2.315   0.691
 3109SOL    HW1 9616   3.103   2.395   0.695
 3109SOL    HW2 9617   3.177   2.280   0.784
 3110SOL     OW 9618   3.455   2.083   0.882
 3110SOL    HW1 9619   3.371   2.082   0.936
 3110SOL    HW2 9620   3.457   2.166   0.826
 3111SOL     OW 9621   1.901   2.939   0.300
 3111SOL    HW1 9622   2.000   2.928   0.291
 3111SOL    HW2 9623   1.861   2.853   0.332
 3112SOL     OW 9624   2.737   3.508   0.337
 3112SOL    HW1 9625   2.660   3.473   0.283
 3112SOL    HW2 9626   2.705   3.579   0.399
 3113SOL     OW 9627   2.092   2.490   1.975
 3113SOL    HW1 9628   1.999   2.488   2.012
 3113SOL    HW2 9629   2.093   2.451   1.883
 3114SOL     OW 9630   2.087   2.137   2.858
 3114SOL    HW1 9631   2.122   2.120   2.950
 3114SOL    HW2 9632   1.999   2.092   2.846
 3115SOL     OW 9633   1.881   2.230   2.509
 3115SOL    HW1 9634   1.799   2.273   2.548
 3115SOL    HW2 9635   1.853   2.157   2.446
 3116SOL     OW 9636   2.997   2.565   2.579
 3116SOL    HW1 9637   3.054   2.643   2.554
 3116SOL    HW2 9638   2.937   2.591   2.655
 3117SOL     OW 9639   3.617   2.469   2.093
 3117SOL    HW1 9640   3.605   2.456   1.994
 3117SOL    HW2 9641   3.587   2.388   2.142
 3118SOL     OW 9642   2.547   2.874   2.527
 3118SOL    HW1 9643   2.616   2.858   2.597
 3118SOL    HW2 9644   2.474   2.931   2.565
 3119SOL     OW 9645   2.197   3.297   2.923
 3119SOL    HW1 9646   2.119   3.266   2.870
 3119SOL    HW2 9647   2.255   3.355   2.866
 3120SOL     OW 9648   3.322   3.367   3.201
 3120SOL    HW1 9649   3.346   3.461   3.227
 3120SOL    HW2 9650   3.306   3.313   3.283
 3121SOL     OW 9651   3.465   2.309   2.599
 3121SOL    HW1 9652   3.391   2.355   2.549
 3121SOL    HW2 9653   3.516   2.377   2.652
 3122SOL     OW 9654   2.093   3.575   2.345
 3122SOL    HW1 9655   2.127   3.652   2.399
 3122SOL    HW2 9656   2.137   3.575   2.255
 3123SOL     OW 9657   2.092   3.296   2.400
 3123SOL    HW1 9658   2.066   3.392   2.400
 3123SOL    HW2 9659   2.021   3.242   2.445
 3124SOL     OW 9660   2.102   2.953   2.748
 3124SOL    HW1 9661   2.116   2.869   2.800
 3124SOL    HW2 9662   2.047   3.017   2.803
 3125SOL     OW 9663   2.482   3.648   3.301
 3125SOL    HW1 9664   2.390   3.631   3.336
 3125SOL    HW2 9665   2.510   3.740   3.327
 3126SOL     OW 9666   2.468   2.826   1.985
 3126SOL    HW1 9667   2.475   2.910   1.931
 3126SOL    HW2 9668   2.514   2.839   2.073
 3127SOL     OW 9669   3.456   1.976   3.342
 3127SOL    HW1 9670   3.438   2.043   3.270
 3127SOL    HW2 9671   3.453   2.022   3.431
 3128SOL     OW 9672   1.984   2.505   2.425
 3128SOL    HW1 9673   1.939   2.417   2.442
 3128SOL    HW2 9674   1.983   2.559   2.509
 3129SOL     OW 9675   1.889   3.458   1.979
 3129SOL    HW1 9676   1.870   3.362   2.000
 3129SOL    HW2 9677   1.856   3.516   2.054
 3130SOL     OW 9678   2.475   3.227   2.588
 3130SOL    HW1 9679   2.426   3.140   2.597
 3130SOL    HW2 9680   2.452   3.270   2.501
 3131SOL     OW 9681   2.671   1.866   2.364
 3131SOL    HW1 9682   2.711   1.957   2.355
 3131SOL    HW2 9683   2.571   1.874   2.370
 3132SOL     OW 9684   3.387   2.861   2.052
 3132SOL    HW1 9685   3.324   2.785   2.065
 3132SOL    HW2 9686   3.435   2.879   2.138
 3133SOL     OW 9687   3.049   3.654   3.478
 3133SOL    HW1 9688   3.073   3.714   3.402
 3133SOL    HW2 9689   3.056   3.559   3.448
 3134SOL     OW 9690   2.460   2.591   2.132
 3134SOL    HW1 9691   2.484   2.660   2.064
 3134SOL    HW2 9692   2.382   2.624   2.186
 3135SOL     OW 9693   3.143   2.207   2.806
 3135SOL    HW1 9694   3.057   2.157   2.793
 3135SOL    HW2 9695   3.205   2.153   2.862
 3136SOL     OW 9696   3.438   3.524   2.169
 3136SOL    HW1 9697   3.527   3.570   2.172
 3136SOL    HW2 9698   3.417   3.500   2.074
 3137SOL     OW 9699   3.256   2.331   3.536
 3137SOL    HW1 9700   3.236   2.374   3.624
 3137SOL    HW2 9701   3.334   2.269   3.545
 3138SOL     OW 9702   2.853   2.272   3.104
 3138SOL    HW1 9703   2.776   2.306   3.158
 3138SOL    HW2 9704   2.819   2.221   3.025
 3139SOL     OW 9705   2.903   2.563   2.291
 3139SOL    HW1 9706   2.929   2.559   2.387
 3139SOL    HW2 9707   2.818   2.512   2.277
 3140SOL     OW 9708   1.938   2.673   2.651
 3140SOL    HW1 9709   2.037   2.661   2.660
 3140SOL    HW2 9710   1.914   2.768   2.672
 3141SOL     OW 9711   1.992   3.683   3.433
 3141SOL    HW1 9712   1.982   3.668   3.532
 3141SOL    HW2 9713   1.906   3.719   3.397
 3142SOL     OW 9714   2.727   2.210   2.057
 3142SOL    HW1 9715   2.786   2.273   2.008
 3142SOL    HW2 9716   2.746   2.116   2.028
 3143SOL     OW 9717   3.581   2.447   3.693
 3143SOL    HW1 9718   3.555   2.536   3.657
 3143SOL    HW2 9719   3.579   2.379   3.620
 3144SOL     OW 9720   3.224   3.006   2.407
 3144SOL    HW1 9721   3.307   2.977   2.359
 3144SOL    HW2 9722   3.175   3.073   2.351
 3145SOL     OW 9723   2.412   2.058   2.747
 3145SOL    HW1 9724   2.407   2.053   2.847
 3145SOL    HW2 9725   2.414   2.154   2.718
 3146SOL     OW 9726   2.870   3.318   2.339
 3146SOL    HW1 9727   2.824   3.390   2.287
 3146SOL    HW2 9728   2.866   3.338   2.437
 3147SOL     OW 9729   2.213   3.663   2.715
 3147SOL    HW1 9730   2.263   3.577   2.721
 3147SOL    HW2 9731   2.278   3.740   2.712
 3148SOL     OW 9732   3.089   3.412   3.368
 3148SOL    HW1 9733   3.095   3.335   3.432
 3148SOL    HW2 9734   3.037   3.386   3.288
 3149SOL     OW 9735   2.183   2.805   2.104
 3149SOL    HW1 9736   2.265   2.844   2.062
 3149SOL    HW2 9737   2.156   2.723   2.055
 3150SOL     OW 9738   3.320   2.597   2.590
 3150SOL    HW1 9739   3.315   2.532   2.665
 3150SOL    HW2 9740   3.400   2.656   2.603
 3151SOL     OW 9741   2.973   3.638   2.099
 3151SOL    HW1 9742   2.913   3.576   2.149
 3151SOL    HW2 9743   3.004   3.594   2.014
 3152SOL     OW 9744   2.064   2.147   3.360
 3152SOL    HW1 9745   1.984   2.207   3.347
 3152SOL    HW2 9746   2.054   2.098   3.446
 3153SOL     OW 9747   2.326   3.605   2.185
 3153SOL    HW1 9748   2.359   3.644   2.271
 3153SOL    HW2 9749   2.402   3.598   2.120
 3154SOL     OW 9750   3.262   1.969   2.288
 3154SOL    HW1 9751   3.238   1.932   2.198
 3154SOL    HW2 9752   3.361   1.985   2.292
 3155SOL     OW 9753   2.111   3.647   3.103
 3155SOL    HW1 9754   2.168   3.582   3.153
 3155SOL    HW2 9755   2.095   3.614   3.010
 3156SOL     OW 9756   2.802   3.560   2.766
 3156SOL    HW1 9757   2.882   3.503   2.787
 3156SOL    HW2 9758   2.753   3.520   2.689
 3157SOL     OW 9759   2.244   2.562   2.342
 3157SOL    HW1 9760   2.289   2.472   2.339
 3157SOL    HW2 9761   2.150   2.551   2.375
 3158SOL     OW 9762   3.409   2.084   3.591
 3158SOL    HW1 9763   3.404   2.121   3.683
 3158SOL    HW2 9764   3.337   2.015   3.579
 3159SOL     OW 9765   2.476   1.984   1.979
 3159SOL    HW1 9766   2.574   1.962   1.986
 3159SOL    HW2 9767   2.445   1.967   1.886
 3160SOL     OW 9768   2.643   2.126   3.611
 3160SOL    HW1 9769   2.710   2.065   3.654
 3160SOL    HW2 9770   2.570   2.145   3.676
 3161SOL     OW 9771   2.750   3.376   3.057
 3161SOL    HW1 9772   2.727   3.351   2.963
 3161SOL    HW2 9773   2.811   3.307   3.096
 3162SOL     OW 9774   3.213   2.452   3.295
 3162SOL    HW1 9775   3.241   2.409   3.380
 3162SOL    HW2 9776   3.238   2.548   3.296
 3163SOL     OW 9777   2.665   3.264   2.786
 3163SOL    HW1 9778   2.755   3.278   2.744
 3163SOL    HW2 9779   2.594   3.266   2.715
 3164SOL     OW 9780   2.401   1.926   2.374
 3164SOL    HW1 9781   2.320   1.927   2.432
 3164SOL    HW2 9782   2.404   2.009   2.319
 3165SOL     OW 9783   3.296   3.050   1.903
 3165SOL    HW1 9784   3.328   2.974   1.960
 3165SOL    HW2 9785   3.204   3.077   1.933
 3166SOL     OW 9786   2.159   1.897   2.033
 3166SOL    HW1 9787   2.208   1.981   2.012
 3166SOL    HW2 9788   2.221   1.832   2.078
 3167SOL     OW 9789   2.797   2.098   2.342
 3167SOL    HW1 9790   2.749   2.139   2.264
 3167SOL    HW2 9791   2.896   2.096   2.323
 3168SOL     OW 9792   2.321   3.014   2.603
 3168SOL    HW1 9793   2.250   2.987   2.668
 3168SOL    HW2 9794   2.295   2.986   2.510
 3169SOL     OW 9795   3.133   3.659   2.453
 3169SOL    HW1 9796   3.177   3.723   2.389
 3169SOL    HW2 9797   3.083   3.711   2.523
 3170SOL     OW 9798   2.894   2.411   1.878
 3170SOL    HW1 9799   2.853   2.493   1.839
 3170SOL    HW2 9800   2.958   2.437   1.951
 3171SOL     OW 9801   2.728   2.316   2.504
 3171SOL    HW1 9802   2.696   2.388   2.442
 3171SOL    HW2 9803   2.752   2.235   2.451
 3172SOL     OW 9804   2.879   1.901   2.615
 3172SOL    HW1 9805   2.807   1.906   2.546
 3172SOL    HW2 9806   2.855   1.832   2.684
 3173SOL     OW 9807   3.719   2.695   2.239
 3173SOL    HW1 9808   3.761   2.631   2.303
 3173SOL    HW2 9809   3.681   2.644   2.161
 3174SOL     OW 9810   2.350   3.247   2.036
 3174SOL    HW1 9811   2.263   3.232   2.083
 3174SOL    HW2 9812   2.333   3.273   1.941
 3175SOL     OW 9813   3.252   2.437   1.940
 3175SOL    HW1 9814   3.198   2.416   2.021
 3175SOL    HW2 9815   3.343   2.396   1.949
 3176SOL     OW 9816   2.389   2.118   2.190
 3176SOL    HW1 9817   2.416   2.059   2.115
 3176SOL    HW2 9818   2.389   2.213   2.159
 3177SOL     OW 9819   3.454   3.491   3.487
 3177SOL    HW1 9820   3.481   3.525   3.397
 3177SOL    HW2 9821   3.533   3.453   3.533
 3178SOL     OW 9822   2.777   1.951   3.264
 3178SOL    HW1 9823   2.802   1.931   3.169
 3178SOL    HW2 9824   2.849   2.007   3.306
 3179SOL     OW 9825   2.567   2.912   2.230
 3179SOL    HW1 9826   2.553   2.919   2.329
 3179SOL    HW2 9827   2.651   2.861   2.212
 3180SOL     OW 9828   3.136   2.248   3.124
 3180SOL    HW1 9829   3.157   2.322   3.188
 3180SOL    HW2 9830   3.047   2.265   3.081
 3181SOL     OW 9831   1.926   3.426   3.193
 3181SOL    HW1 9832   1.880   3.508   3.159
 3181SOL    HW2 9833   2.024   3.445   3.202
 3182SOL     OW 9834   2.229   2.962   2.363
 3182SOL    HW1 9835   2.222   3.045   2.307
 3182SOL    HW2 9836   2.233   2.882   2.303
 3183SOL     OW 9837   3.444   2.501   2.334
 3183SOL    HW1 9838   3.413   2.562   2.407
 3183SOL    HW2 9839   3.494   2.553   2.265
 3184SOL     OW 9840   2.216   3.372   3.191
 3184SOL    HW1 9841   2.195   3.328   3.104
 3184SOL    HW2 9842   2.313   3.398   3.194
 3185SOL     OW 9843   3.449   2.641   3.532
 3185SOL    HW1 9844   3.357   2.679   3.527
 3185SOL    HW2 9845   3.509   2.688   3.467
 3186SOL     OW 9846   2.875   1.967   3.632
 3186SOL    HW1 9847   2.881   2.052   3.580
 3186SOL    HW2 9848   2.907   1.891   3.575
 3187SOL     OW 9849   2.435   2.732   2.891
 3187SOL    HW1 9850   2.479   2.821   2.882
 3187SOL    HW2 9851   2.372   2.732   2.968
 3188SOL     OW 9852   3.071   2.387   2.137
 3188SOL    HW1 9853   3.084   2.303   2.191
 3188SOL    HW2 9854   3.042   2.461   2.197
 3189SOL     OW 9855   2.169   2.075   3.093
 3189SOL    HW1 9856   2.146   2.112   3.183
 3189SOL    HW2 9857   2.139   1.980   3.087
 3190SOL     OW 9858   1.899   3.172   3.144
 3190SOL    HW1 9859   1.952   3.123   3.212
 3190SOL    HW2 9860   1.921   3.270   3.149
 3191SOL     OW 9861   3.590   2.797   3.716
 3191SOL    HW1 9862   3.544   2.790   3.627
 3191SOL    HW2 9863   3.528   2.841   3.782
 3192SOL     OW 9864   2.169   1.925   2.480
 3192SOL    HW1 9865   2.158   2.019   2.513
 3192SOL    HW2 9866   2.164   1.862   2.557
 3193SOL     OW 9867   3.484   2.229   2.236
 3193SOL    HW1 9868   3.486   2.153   2.300
 3193SOL    HW2 9869   3.436   2.306   2.276
 3194SOL     OW 9870   2.842   3.435   3.562
 3194SOL    HW1 9871   2.822   3.479   3.474
 3194SOL    HW2 9872   2.881   3.344   3.546
 3195SOL     OW 9873   3.721   3.380   3.467
 3195SOL    HW1 9874   3.735   3.407   3.372
 3195SOL    HW2 9875   3.804   3.402   3.520
 3196SOL     OW 9876   3.402   2.136   1.987
 3196SOL    HW1 9877   3.341   2.061   2.010
 3196SOL    HW2 9878   3.424   2.188   2.070
 3197SOL     OW 9879   3.165   2.700   1.904
 3197SOL    HW1 9880   3.199   2.607   1.919
 3197SOL    HW2 9881   3.183   2.727   1.809
 3198SOL     OW 9882   2.181   2.672   2.811
 3198SOL    HW1 9883   2.274   2.708   2.816
 3198SOL    HW2 9884   2.175   2.587   2.863
 3199SOL     OW 9885   2.201   2.371   2.868
 3199SOL    HW1 9886   2.149   2.288   2.851
 3199SOL    HW2 9887   2.278   2.376   2.804
 3200SOL     OW 9888   3.000   2.242   3.540
 3200SOL    HW1 9889   2.955   2.305   3.604
 3200SOL    HW2 9890   3.093   2.273   3.523
 3201SOL     OW 9891   3.022   2.069   3.339
 3201SOL    HW1 9892   3.022   2.133   3.416
 3201SOL    HW2 9893   3.050   2.117   3.256
 3202SOL     OW 9894   1.870   3.188   2.062
 3202SOL    HW1 9895   1.777   3.209   2.031
 3202SOL    HW2 9896   1.880   3.089   2.075
 3203SOL     OW 9897   1.950   3.663   2.789
 3203SOL    HW1 9898   1.908   3.577   2.762
 3203SOL    HW2 9899   2.044   3.666   2.755
 3204SOL     OW 9900   2.366   3.430   2.772
 3204SOL    HW1 9901   2.432   3.504   2.781
 3204SOL    HW2 9902   2.410   3.351   2.730
 3205SOL     OW 9903   3.231   2.812   3.522
 3205SOL    HW1 9904   3.270   2.901   3.542
 3205SOL    HW2 9905   3.241   2.792   3.425
 3206SOL     OW 9906   2.677   2.434   2.187
 3206SOL    HW1 9907   2.684   2.345   2.141
 3206SOL    HW2 9908   2.583   2.468   2.179
 3207SOL     OW 9909   3.519   2.466   3.068
 3207SOL    HW1 9910   3.481   2.397   3.130
 3207SOL    HW2 9911   3.601   2.430   3.024
 3208SOL     OW 9912   2.114   3.426   3.606
 3208SOL    HW1 9913   2.084   3.483   3.682
 3208SOL    HW2 9914   2.107   3.329   3.632
 3209SOL     OW 9915   2.792   3.540   3.327
 3209SOL    HW1 9916   2.768   3.522   3.232
 3209SOL    HW2 9917   2.822   3.634   3.337
 3210SOL     OW 9918   2.335   2.362   2.053
 3210SOL    HW1 9919   2.396   2.442   2.057
 3210SOL    HW2 9920   2.240   2.393   2.060
 3211SOL     OW 9921   2.021   2.999   3.328
 3211SOL    HW1 9922   2.043   2.938   3.404
 3211SOL    HW2 9923   2.031   2.950   3.242
 3212SOL     OW 9924   3.164   2.717   2.171
 3212SOL    HW1 9925   3.078   2.686   2.213
 3212SOL    HW2 9926   3.160   2.703   2.072
 3213SOL     OW 9927   1.945   3.120   2.884
 3213SOL    HW1 9928   1.940   3.119   2.984
 3213SOL    HW2 9929   1.862   3.079   2.846
 3214SOL     OW 9930   2.550   3.524   3.578
 3214SOL    HW1 9931   2.494   3.605   3.587
 3214SOL    HW2 9932   2.602   3.528   3.492
 3215SOL     OW 9933   3.588   1.997   2.385
 3215SOL    HW1 9934   3.661   1.980   2.318
 3215SOL    HW2 9935   3.557   1.910   2.423
 3216SOL     OW 9936   1.992   3.656   3.713
 3216SOL    HW1 9937   1.951   3.582   3.766
 3216SOL    HW2 9938   2.056   3.707   3.771
 3217SOL     OW 9939   2.692   3.135   3.284
 3217SOL    HW1 9940   2.687   3.168   3.379
 3217SOL    HW2 9941   2.606   3.154   3.238
 3218SOL     OW 9942   2.534   3.478   2.016
 3218SOL    HW1 9943   2.543   3.488   1.917
 3218SOL    HW2 9944   2.494   3.389   2.037
 3219SOL     OW 9945   3.512   3.582   3.256
 3219SOL    HW1 9946   3.565   3.592   3.172
 3219SOL    HW2 9947   3.485   3.672   3.290
 3220SOL     OW 9948   3.703   2.037   2.825
 3220SOL    HW1 9949   3.742   1.952   2.789
 3220SOL    HW2 9950   3.605   2.039   2.806
 3221SOL     OW 9951   2.125   2.188   2.582
 3221SOL    HW1 9952   2.046   2.239   2.548
 3221SOL    HW2 9953   2.116   2.173   2.680
 3222SOL     OW 9954   3.056   3.474   1.893
 3222SOL    HW1 9955   3.062   3.381   1.930
 3222SOL    HW2 9956   2.997   3.474   1.813
 3223SOL     OW 9957   2.778   2.772   2.153
 3223SOL    HW1 9958   2.841   2.810   2.085
 3223SOL    HW2 9959   2.818   2.689   2.192
 3224SOL     OW 9960   3.366   3.469   1.906
 3224SOL    HW1 9961   3.274   3.506   1.913
 3224SOL    HW2 9962   3.404   3.489   1.816
 3225SOL     OW 9963   2.234   3.150   3.352
 3225SOL    HW1 9964   2.221   3.243   3.318
 3225SOL    HW2 9965   2.150   3.098   3.339
 3226SOL     OW 9966   2.876   2.098   2.833
 3226SOL    HW1 9967   2.868   2.062   2.740
 3226SOL    HW2 9968   2.874   2.022   2.898
 3227SOL     OW 9969   2.452   3.349   2.353
 3227SOL    HW1 9970   2.494   3.291   2.283
 3227SOL    HW2 9971   2.408   3.428   2.309
 3228SOL     OW 9972   3.571   2.247   3.243
 3228SOL    HW1 9973   3.644   2.316   3.247
 3228SOL    HW2 9974   3.599   2.172   3.184
 3229SOL     OW 9975   2.117   3.210   2.152
 3229SOL    HW1 9976   2.021   3.211   2.125
 3229SOL    HW2 9977   2.129   3.263   2.236
 3230SOL     OW 9978   1.967   2.875   3.588
 3230SOL    HW1 9979   1.890   2.842   3.642
 3230SOL    HW2 9980   2.052   2.845   3.630
 3231SOL     OW 9981   2.534   2.065   3.351
 3231SOL    HW1 9982   2.624   2.049   3.311
 3231SOL    HW2 9983   2.542   2.070   3.450
 3232SOL     OW 9984   1.937   2.207   1.895
 3232SOL    HW1 9985   1.845   2.179   1.866
 3232SOL    HW2 9986   1.968   2.284   1.839
 3233SOL     OW 9987   1.934   2.028   2.180
 3233SOL    HW1 9988   1.917   2.111   2.126
 3233SOL    HW2 9989   2.024   1.991   2.158
 3234SOL     OW 9990   3.045   3.197   1.981
 3234SOL    HW1 9991   2.946   3.186   1.983
 3234SOL    HW2 9992   3.079   3.212   2.074
 3235SOL     OW 9993   3.355   3.629   2.821
 3235SOL    HW1 9994   3.388   3.693   2.752
 3235SOL    HW2 9995   3.421   3.623   2.896
 3236SOL     OW 9996   2.578   2.427   3.570
 3236SOL    HW1 9997   2.597   2.492   3.644
 3236SOL    HW2 9998   2.638   2.347   3.579
 3237SOL     OW 9999   2.252   3.603   3.422
 3237SOL    HW110000   2.161   3.644   3.420
 3237SOL    HW210001   2.245   3.509   3.454
 3238SOL     OW10002   3.536   2.745   3.116
 3238SOL    HW110003   3.509   2.656   3.079
 3238SOL    HW210004   3.537   2.813   3.043
 3239SOL     OW10005   3.087   2.187   2.311
 3239SOL    HW110006   3.152   2.113   2.300
 3239SOL    HW210007   3.107   2.237   2.395
 3240SOL     OW10008   2.456   2.607   2.514
 3240SOL    HW110009   2.506   2.692   2.495
 3240SOL    HW210010   2.368   2.609   2.466
 3241SOL     OW10011   3.639   2.204   3.504
 3241SOL    HW110012   3.622   2.235   3.410
 3241SOL    HW210013   3.555   2.167   3.542
 3242SOL     OW10014   3.592   2.796   3.379
 3242SOL    HW110015   3.630   2.887   3.394
 3242SOL    HW210016   3.584   2.779   3.280
 3243SOL     OW10017   2.721   3.236   1.878
 3243SOL    HW110018   2.675   3.251   1.966
 3243SOL    HW210019   2.765   3.321   1.848
 3244SOL     OW10020   2.523   3.652   2.815
 3244SOL    HW110021   2.477   3.740   2.802
 3244SOL    HW210022   2.622   3.664   2.808
 3245SOL     OW10023   2.945   2.846   1.949
 3245SOL    HW110024   2.922   2.899   1.867
 3245SOL    HW210025   3.026   2.790   1.930
 3246SOL     OW10026   2.083   3.176   3.706
 3246SOL    HW110027   2.018   3.103   3.685
 3246SOL    HW210028   2.087   3.190   3.804
 3247SOL     OW10029   1.941   3.102   2.515
 3247SOL    HW110030   1.940   3.055   2.603
 3247SOL    HW210031   2.023   3.074   2.464
 3248SOL     OW10032   2.534   3.253   3.486
 3248SOL    HW110033   2.456   3.203   3.524
 3248SOL    HW210034   2.531   3.348   3.517
 3249SOL     OW10035   3.686   2.054   3.089
 3249SOL    HW110036   3.682   1.964   3.133
 3249SOL    HW210037   3.689   2.043   2.990
 3250SOL     OW10038   2.290   2.286   2.382
 3250SOL    HW110039   2.320   2.214   2.320
 3250SOL    HW210040   2.251   2.246   2.465
 3251SOL     OW10041   2.674   3.448   2.549
 3251SOL    HW110042   2.706   3.458   2.455
 3251SOL    HW210043   2.595   3.386   2.551
 3252SOL     OW10044   3.286   2.076   2.974
 3252SOL    HW110045   3.338   2.011   3.029
 3252SOL    HW210046   3.237   2.139   3.035
 3253SOL     OW10047   2.863   1.896   3.016
 3253SOL    HW110048   2.800   1.824   2.985
 3253SOL    HW210049   2.956   1.860   3.016
 3254SOL     OW10050   2.480   3.429   3.146
 3254SOL    HW110051   2.475   3.511   3.203
 3254SOL    HW210052   2.569   3.426   3.101
 3255SOL     OW10053   3.214   1.914   2.030
 3255SOL    HW110054   3.249   1.873   1.946
 3255SOL    HW210055   3.124   1.876   2.050
 3256SOL     OW10056   3.162   2.315   2.553
 3256SOL    HW110057   3.103   2.395   2.557
 3256SOL    HW210058   3.177   2.280   2.646
 3257SOL     OW10059   3.455   2.083   2.744
 3257SOL    HW110060   3.371   2.082   2.798
 3257SOL    HW210061   3.457   2.166   2.688
 3258SOL     OW10062   1.901   2.939   2.162
 3258SOL    HW110063   2.000   2.928   2.153
 3258SOL    HW210064   1.861   2.853   2.194
 3259SOL     OW10065   2.737   3.508   2.199
 3259SOL    HW110066   2.660   3.473   2.145
 3259SOL    HW210067   2.705   3.579   2.261
 3260SOL     OW10068   2.087   2.137   4.720
 3260SOL    HW110069   2.122   2.120   4.812
 3260SOL    HW210070   1.999   2.092   4.708
 3261SOL     OW10071   2.431   3.137   4.889
 3261SOL    HW110072   2.338   3.130   4.852
 3261SOL    HW210073   2.442   3.226   4.933
 3262SOL     OW10074   3.417   3.373   4.427
 3262SOL    HW110075   3.360   3.357   4.508
 3262SOL    HW210076   3.358   3.383   4.347
 3263SOL     OW10077   2.997   2.565   4.441
 3263SOL    HW110078   3.054   2.643   4.416
 3263SOL    HW210079   2.937   2.591   4.517
 3264SOL     OW10080   3.617   2.469   3.955
 3264SOL    HW110081   3.605   2.456   3.856
 3264SOL    HW210082   3.587   2.388   4.004
 3265SOL     OW10083   2.630   3.006   4.747
 3265SOL    HW110084   2.552   3.023   4.807
 3265SOL    HW210085   2.664   3.093   4.711
 3266SOL     OW10086   2.712   2.660   5.547
 3266SOL    HW110087   2.708   2.736   5.612
 3266SOL    HW210088   2.734   2.696   5.456
 3267SOL     OW10089   2.547   2.874   4.389
 3267SOL    HW110090   2.616   2.858   4.459
 3267SOL    HW210091   2.474   2.931   4.427
 3268SOL     OW10092   2.548   3.023   5.527
 3268SOL    HW110093   2.608   3.102   5.541
 3268SOL    HW210094   2.462   3.054   5.486
 3269SOL     OW10095   2.197   3.297   4.785
 3269SOL    HW110096   2.119   3.266   4.732
 3269SOL    HW210097   2.255   3.355   4.728
 3270SOL     OW10098   3.322   3.367   5.063
 3270SOL    HW110099   3.346   3.461   5.089
 3270SOL    HW210100   3.306   3.313   5.145
 3271SOL     OW10101   2.300   2.254   5.223
 3271SOL    HW110102   2.382   2.198   5.232
 3271SOL    HW210103   2.219   2.196   5.227
 3272SOL     OW10104   3.465   2.309   4.461
 3272SOL    HW110105   3.391   2.355   4.411
 3272SOL    HW210106   3.516   2.377   4.514
 3273SOL     OW10107   2.093   3.575   4.207
 3273SOL    HW110108   2.127   3.652   4.261
 3273SOL    HW210109   2.137   3.575   4.117
 3274SOL     OW10110   2.989   3.203   5.414
 3274SOL    HW110111   3.036   3.203   5.502
 3274SOL    HW210112   2.941   3.116   5.403
 3275SOL     OW10113   2.092   3.296   4.262
 3275SOL    HW110114   2.066   3.392   4.262
 3275SOL    HW210115   2.021   3.242   4.307
 3276SOL     OW10116   2.102   2.953   4.610
 3276SOL    HW110117   2.116   2.869   4.662
 3276SOL    HW210118   2.047   3.017   4.665
 3277SOL     OW10119   2.482   3.648   5.163
 3277SOL    HW110120   2.390   3.631   5.198
 3277SOL    HW210121   2.510   3.740   5.189
 3278SOL     OW10122   2.468   2.826   3.847
 3278SOL    HW110123   2.475   2.910   3.793
 3278SOL    HW210124   2.514   2.839   3.935
 3279SOL     OW10125   3.456   1.976   5.204
 3279SOL    HW110126   3.438   2.043   5.132
 3279SOL    HW210127   3.453   2.022   5.293
 3280SOL     OW10128   1.984   2.505   4.287
 3280SOL    HW110129   1.939   2.417   4.304
 3280SOL    HW210130   1.983   2.559   4.371
 3281SOL     OW10131   3.704   3.629   4.083
 3281SOL    HW110132   3.758   3.600   4.163
 3281SOL    HW210133   3.734   3.719   4.054
 3282SOL     OW10134   1.889   3.458   3.841
 3282SOL    HW110135   1.870   3.362   3.862
 3282SOL    HW210136   1.856   3.516   3.916
 3283SOL     OW10137   3.551   2.784   4.336
 3283SOL    HW110138   3.646   2.755   4.344
 3283SOL    HW210139   3.543   2.849   4.261
 3284SOL     OW10140   3.503   2.970   4.156
 3284SOL    HW110141   3.589   2.972   4.104
 3284SOL    HW210142   3.517   3.017   4.244
 3285SOL     OW10143   1.975   2.599   5.321
 3285SOL    HW110144   2.063   2.586   5.366
 3285SOL    HW210145   1.962   2.696   5.299
 3286SOL     OW10146   2.475   3.227   4.450
 3286SOL    HW110147   2.426   3.140   4.459
 3286SOL    HW210148   2.452   3.270   4.363
 3287SOL     OW10149   3.155   3.090   5.147
 3287SOL    HW110150   3.192   3.017   5.089
 3287SOL    HW210151   3.207   3.095   5.232
 3288SOL     OW10152   2.671   1.866   4.226
 3288SOL    HW110153   2.711   1.957   4.217
 3288SOL    HW210154   2.571   1.874   4.232
 3289SOL     OW10155   2.059   2.838   4.988
 3289SOL    HW110156   2.148   2.793   4.974
 3289SOL    HW210157   1.986   2.773   4.969
 3290SOL     OW10158   3.387   2.861   3.914
 3290SOL    HW110159   3.324   2.785   3.927
 3290SOL    HW210160   3.435   2.879   4.000
 3291SOL     OW10161   3.049   3.654   5.340
 3291SOL    HW110162   3.073   3.714   5.264
 3291SOL    HW210163   3.056   3.559   5.310
 3292SOL     OW10164   2.179   2.113   5.525
 3292SOL    HW110165   2.250   2.184   5.531
 3292SOL    HW210166   2.091   2.152   5.553
 3293SOL     OW10167   3.328   3.279   4.677
 3293SOL    HW110168   3.269   3.285   4.757
 3293SOL    HW210169   3.313   3.191   4.631
 3294SOL     OW10170   3.529   3.576   4.296
 3294SOL    HW110171   3.488   3.553   4.208
 3294SOL    HW210172   3.511   3.502   4.361
 3295SOL     OW10173   3.143   2.207   4.668
 3295SOL    HW110174   3.057   2.157   4.655
 3295SOL    HW210175   3.205   2.153   4.724
 3296SOL     OW10176   3.438   3.524   4.031
 3296SOL    HW110177   3.527   3.570   4.034
 3296SOL    HW210178   3.417   3.500   3.936
 3297SOL     OW10179   2.669   2.467   5.189
 3297SOL    HW110180   2.622   2.464   5.278
 3297SOL    HW210181   2.618   2.412   5.123
 3298SOL     OW10182   3.256   2.331   5.398
 3298SOL    HW110183   3.236   2.374   5.486
 3298SOL    HW210184   3.334   2.269   5.407
 3299SOL     OW10185   2.835   2.752   5.296
 3299SOL    HW110186   2.881   2.668   5.267
 3299SOL    HW210187   2.779   2.786   5.221
 3300SOL     OW10188   2.853   2.272   4.966
 3300SOL    HW110189   2.776   2.306   5.020
 3300SOL    HW210190   2.819   2.221   4.887
 3301SOL     OW10191   2.903   2.563   4.153
 3301SOL    HW110192   2.929   2.559   4.249
 3301SOL    HW210193   2.818   2.512   4.139
 3302SOL     OW10194   1.938   2.673   4.513
 3302SOL    HW110195   2.037   2.661   4.522
 3302SOL    HW210196   1.914   2.768   4.534
 3303SOL     OW10197   1.992   3.683   5.295
 3303SOL    HW110198   1.982   3.668   5.394
 3303SOL    HW210199   1.906   3.719   5.259
 3304SOL     OW10200   2.727   2.210   3.919
 3304SOL    HW110201   2.786   2.273   3.870
 3304SOL    HW210202   2.746   2.116   3.890
 3305SOL     OW10203   3.581   2.447   5.555
 3305SOL    HW110204   3.555   2.536   5.519
 3305SOL    HW210205   3.579   2.379   5.482
 3306SOL     OW10206   3.224   3.006   4.269
 3306SOL    HW110207   3.307   2.977   4.221
 3306SOL    HW210208   3.175   3.073   4.213
 3307SOL     OW10209   2.412   2.058   4.609
 3307SOL    HW110210   2.407   2.053   4.709
 3307SOL    HW210211   2.414   2.154   4.580
 3308SOL     OW10212   2.870   3.318   4.201
 3308SOL    HW110213   2.824   3.390   4.149
 3308SOL    HW210214   2.866   3.338   4.299
 3309SOL     OW10215   2.213   3.663   4.577
 3309SOL    HW110216   2.263   3.577   4.583
 3309SOL    HW210217   2.278   3.740   4.574
 3310SOL     OW10218   3.657   2.928   4.597
 3310SOL    HW110219   3.595   2.913   4.521
 3310SOL    HW210220   3.605   2.939   4.682
 3311SOL     OW10221   3.089   3.412   5.230
 3311SOL    HW110222   3.095   3.335   5.294
 3311SOL    HW210223   3.037   3.386   5.150
 3312SOL     OW10224   2.183   2.805   3.966
 3312SOL    HW110225   2.265   2.844   3.924
 3312SOL    HW210226   2.156   2.723   3.917
 3313SOL     OW10227   3.320   2.597   4.452
 3313SOL    HW110228   3.315   2.532   4.527
 3313SOL    HW210229   3.400   2.656   4.465
 3314SOL     OW10230   2.323   3.128   5.451
 3314SOL    HW110231   2.273   3.129   5.365
 3314SOL    HW210232   2.260   3.110   5.527
 3315SOL     OW10233   2.973   3.638   3.961
 3315SOL    HW110234   2.913   3.576   4.011
 3315SOL    HW210235   3.004   3.594   3.876
 3316SOL     OW10236   2.064   2.147   5.222
 3316SOL    HW110237   1.984   2.207   5.209
 3316SOL    HW210238   2.054   2.098   5.308
 3317SOL     OW10239   3.494   3.239   3.805
 3317SOL    HW110240   3.462   3.333   3.795
 3317SOL    HW210241   3.418   3.176   3.793
 3318SOL     OW10242   2.326   3.605   4.047
 3318SOL    HW110243   2.359   3.644   4.133
 3318SOL    HW210244   2.402   3.598   3.982
 3319SOL     OW10245   3.262   1.969   4.150
 3319SOL    HW110246   3.238   1.932   4.060
 3319SOL    HW210247   3.361   1.985   4.154
 3320SOL     OW10248   2.111   3.647   4.965
 3320SOL    HW110249   2.168   3.582   5.015
 3320SOL    HW210250   2.095   3.614   4.872
 3321SOL     OW10251   2.802   3.560   4.628
 3321SOL    HW110252   2.882   3.503   4.649
 3321SOL    HW210253   2.753   3.520   4.551
 3322SOL     OW10254   3.409   2.084   5.453
 3322SOL    HW110255   3.404   2.121   5.545
 3322SOL    HW210256   3.337   2.015   5.441
 3323SOL     OW10257   2.476   1.984   3.841
 3323SOL    HW110258   2.574   1.962   3.848
 3323SOL    HW210259   2.445   1.967   3.748
 3324SOL     OW10260   2.643   2.126   5.473
 3324SOL    HW110261   2.710   2.065   5.516
 3324SOL    HW210262   2.570   2.145   5.538
 3325SOL     OW10263   2.750   3.376   4.919
 3325SOL    HW110264   2.727   3.351   4.825
 3325SOL    HW210265   2.811   3.307   4.958
 3326SOL     OW10266   3.213   2.452   5.157
 3326SOL    HW110267   3.241   2.409   5.242
 3326SOL    HW210268   3.238   2.548   5.158
 3327SOL     OW10269   2.665   3.264   4.648
 3327SOL    HW110270   2.755   3.278   4.606
 3327SOL    HW210271   2.594   3.266   4.577
 3328SOL     OW10272   2.784   2.365   4.623
 3328SOL    HW110273   2.759   2.356   4.527
 3328SOL    HW210274   2.832   2.283   4.654
 3329SOL     OW10275   2.401   1.926   4.236
 3329SOL    HW110276   2.320   1.927   4.294
 3329SOL    HW210277   2.404   2.009   4.181
 3330SOL     OW10278   3.296   3.050   3.765
 3330SOL    HW110279   3.328   2.974   3.822
 3330SOL    HW210280   3.204   3.077   3.795
 3331SOL     OW10281   2.159   1.897   3.895
 3331SOL    HW110282   2.208   1.981   3.874
 3331SOL    HW210283   2.221   1.832   3.940
 3332SOL     OW10284   2.797   2.098   4.204
 3332SOL    HW110285   2.749   2.139   4.126
 3332SOL    HW210286   2.896   2.096   4.185
 3333SOL     OW10287   2.938   2.545   5.188
 3333SOL    HW110288   2.858   2.484   5.191
 3333SOL    HW210289   3.019   2.492   5.164
 3334SOL     OW10290   3.089   3.432   4.517
 3334SOL    HW110291   3.110   3.506   4.452
 3334SOL    HW210292   3.157   3.432   4.590
 3335SOL     OW10293   2.321   3.014   4.465
 3335SOL    HW110294   2.250   2.987   4.530
 3335SOL    HW210295   2.295   2.986   4.372
 3336SOL     OW10296   3.133   3.659   4.315
 3336SOL    HW110297   3.177   3.723   4.251
 3336SOL    HW210298   3.083   3.711   4.385
 3337SOL     OW10299   2.894   2.411   3.740
 3337SOL    HW110300   2.853   2.493   3.701
 3337SOL    HW210301   2.958   2.437   3.813
 3338SOL     OW10302   1.940   2.418   5.110
 3338SOL    HW110303   2.032   2.417   5.069
 3338SOL    HW210304   1.934   2.492   5.177
 3339SOL     OW10305   2.423   2.084   4.871
 3339SOL    HW110306   2.461   2.000   4.908
 3339SOL    HW210307   2.335   2.103   4.915
 3340SOL     OW10308   2.728   2.316   4.366
 3340SOL    HW110309   2.696   2.388   4.304
 3340SOL    HW210310   2.752   2.235   4.313
 3341SOL     OW10311   2.879   1.901   4.477
 3341SOL    HW110312   2.807   1.906   4.408
 3341SOL    HW210313   2.855   1.832   4.546
 3342SOL     OW10314   3.291   3.035   4.591
 3342SOL    HW110315   3.236   2.951   4.584
 3342SOL    HW210316   3.317   3.064   4.499
 3343SOL     OW10317   3.328   2.452   4.716
 3343SOL    HW110318   3.298   2.357   4.723
 3343SOL    HW210319   3.401   2.468   4.782
 3344SOL     OW10320   3.719   2.695   4.101
 3344SOL    HW110321   3.761   2.631   4.165
 3344SOL    HW210322   3.681   2.644   4.023
 3345SOL     OW10323   2.350   3.247   3.898
 3345SOL    HW110324   2.263   3.232   3.945
 3345SOL    HW210325   2.333   3.273   3.803
 3346SOL     OW10326   3.526   3.142   4.381
 3346SOL    HW110327   3.625   3.150   4.395
 3346SOL    HW210328   3.481   3.226   4.412
 3347SOL     OW10329   3.252   2.437   3.802
 3347SOL    HW110330   3.198   2.416   3.883
 3347SOL    HW210331   3.343   2.396   3.811
 3348SOL     OW10332   2.389   2.118   4.052
 3348SOL    HW110333   2.416   2.059   3.977
 3348SOL    HW210334   2.389   2.213   4.021
 3349SOL     OW10335   3.616   3.085   5.312
 3349SOL    HW110336   3.707   3.046   5.299
 3349SOL    HW210337   3.624   3.181   5.336
 3350SOL     OW10338   2.926   3.209   5.064
 3350SOL    HW110339   2.846   3.186   5.119
 3350SOL    HW210340   3.009   3.183   5.113
 3351SOL     OW10341   3.454   3.491   5.349
 3351SOL    HW110342   3.481   3.525   5.259
 3351SOL    HW210343   3.533   3.453   5.395
 3352SOL     OW10344   2.973   3.057   4.824
 3352SOL    HW110345   2.933   3.101   4.905
 3352SOL    HW210346   2.932   3.094   4.741
 3353SOL     OW10347   3.500   2.961   4.803
 3353SOL    HW110348   3.505   3.042   4.862
 3353SOL    HW210349   3.414   2.963   4.752
 3354SOL     OW10350   2.777   1.951   5.126
 3354SOL    HW110351   2.802   1.931   5.031
 3354SOL    HW210352   2.849   2.007   5.168
 3355SOL     OW10353   2.842   2.978   5.443
 3355SOL    HW110354   2.743   2.984   5.453
 3355SOL    HW210355   2.865   2.898   5.387
 3356SOL     OW10356   2.567   2.912   4.092
 3356SOL    HW110357   2.553   2.919   4.191
 3356SOL    HW210358   2.651   2.861   4.074
 3357SOL     OW10359   2.272   2.675   4.975
 3357SOL    HW110360   2.358   2.687   5.025
 3357SOL    HW210361   2.230   2.588   5.002
 3358SOL     OW10362   3.136   2.248   4.986
 3358SOL    HW110363   3.157   2.322   5.050
 3358SOL    HW210364   3.047   2.265   4.943
 3359SOL     OW10365   1.926   3.426   5.055
 3359SOL    HW110366   1.880   3.508   5.021
 3359SOL    HW210367   2.024   3.445   5.064
 3360SOL     OW10368   2.229   2.962   4.225
 3360SOL    HW110369   2.222   3.045   4.169
 3360SOL    HW210370   2.233   2.882   4.165
 3361SOL     OW10371   2.428   2.399   4.589
 3361SOL    HW110372   2.440   2.465   4.515
 3361SOL    HW210373   2.474   2.433   4.672
 3362SOL     OW10374   3.114   3.210   4.112
 3362SOL    HW110375   3.164   3.287   4.152
 3362SOL    HW210376   3.019   3.212   4.144
 3363SOL     OW10377   3.134   3.307   4.866
 3363SOL    HW110378   3.181   3.320   4.953
 3363SOL    HW210379   3.068   3.233   4.875
 3364SOL     OW10380   3.444   2.501   4.196
 3364SOL    HW110381   3.413   2.562   4.269
 3364SOL    HW210382   3.494   2.553   4.127
 3365SOL     OW10383   2.216   3.372   5.053
 3365SOL    HW110384   2.195   3.328   4.966
 3365SOL    HW210385   2.313   3.398   5.056
 3366SOL     OW10386   2.264   2.613   5.322
 3366SOL    HW110387   2.332   2.668   5.275
 3366SOL    HW210388   2.304   2.525   5.349
 3367SOL     OW10389   3.449   2.641   5.394
 3367SOL    HW110390   3.357   2.679   5.389
 3367SOL    HW210391   3.509   2.688   5.329
 3368SOL     OW10392   2.875   1.967   5.494
 3368SOL    HW110393   2.881   2.052   5.442
 3368SOL    HW210394   2.907   1.891   5.437
 3369SOL     OW10395   2.366   1.912   5.464
 3369SOL    HW110396   2.324   1.855   5.394
 3369SOL    HW210397   2.300   1.981   5.496
 3370SOL     OW10398   2.435   2.732   4.753
 3370SOL    HW110399   2.479   2.821   4.744
 3370SOL    HW210400   2.372   2.732   4.830
 3371SOL     OW10401   3.222   2.724   4.769
 3371SOL    HW110402   3.147   2.724   4.703
 3371SOL    HW210403   3.259   2.632   4.778
 3372SOL     OW10404   3.071   2.387   3.999
 3372SOL    HW110405   3.084   2.303   4.053
 3372SOL    HW210406   3.042   2.461   4.059
 3373SOL     OW10407   2.169   2.075   4.955
 3373SOL    HW110408   2.146   2.112   5.045
 3373SOL    HW210409   2.139   1.980   4.949
 3374SOL     OW10410   1.899   3.172   5.006
 3374SOL    HW110411   1.952   3.123   5.074
 3374SOL    HW210412   1.921   3.270   5.011
 3375SOL     OW10413   2.594   2.496   4.788
 3375SOL    HW110414   2.653   2.470   4.712
 3375SOL    HW210415   2.566   2.592   4.777
 3376SOL     OW10416   3.590   2.797   5.578
 3376SOL    HW110417   3.544   2.790   5.489
 3376SOL    HW210418   3.528   2.841   5.644
 3377SOL     OW10419   2.169   1.925   4.342
 3377SOL    HW110420   2.158   2.019   4.375
 3377SOL    HW210421   2.164   1.862   4.419
 3378SOL     OW10422   3.484   2.229   4.098
 3378SOL    HW110423   3.486   2.153   4.162
 3378SOL    HW210424   3.436   2.306   4.138
 3379SOL     OW10425   2.885   2.628   4.690
 3379SOL    HW110426   2.900   2.649   4.786
 3379SOL    HW210427   2.855   2.533   4.681
 3380SOL     OW10428   2.842   3.435   5.424
 3380SOL    HW110429   2.822   3.479   5.336
 3380SOL    HW210430   2.881   3.344   5.408
 3381SOL     OW10431   3.721   3.380   5.329
 3381SOL    HW110432   3.735   3.407   5.234
 3381SOL    HW210433   3.804   3.402   5.382
 3382SOL     OW10434   2.212   2.760   5.528
 3382SOL    HW110435   2.288   2.804   5.576
 3382SOL    HW210436   2.247   2.713   5.446
 3383SOL     OW10437   3.402   2.136   3.849
 3383SOL    HW110438   3.341   2.061   3.872
 3383SOL    HW210439   3.424   2.188   3.932
 3384SOL     OW10440   3.165   2.700   3.766
 3384SOL    HW110441   3.199   2.607   3.781
 3384SOL    HW210442   3.183   2.727   3.671
 3385SOL     OW10443   2.930   3.195   4.573
 3385SOL    HW110444   2.937   3.111   4.518
 3385SOL    HW210445   2.992   3.264   4.537
 3386SOL     OW10446   2.181   2.672   4.673
 3386SOL    HW110447   2.274   2.708   4.678
 3386SOL    HW210448   2.175   2.587   4.725
 3387SOL     OW10449   2.201   2.371   4.730
 3387SOL    HW110450   2.149   2.288   4.713
 3387SOL    HW210451   2.278   2.376   4.666
 3388SOL     OW10452   3.000   2.242   5.402
 3388SOL    HW110453   2.955   2.305   5.466
 3388SOL    HW210454   3.093   2.273   5.385
 3389SOL     OW10455   3.022   2.069   5.201
 3389SOL    HW110456   3.022   2.133   5.278
 3389SOL    HW210457   3.050   2.117   5.118
 3390SOL     OW10458   1.870   3.188   3.924
 3390SOL    HW110459   1.777   3.209   3.893
 3390SOL    HW210460   1.880   3.089   3.937
 3391SOL     OW10461   1.950   3.663   4.651
 3391SOL    HW110462   1.908   3.577   4.624
 3391SOL    HW210463   2.044   3.666   4.617
 3392SOL     OW10464   2.366   3.430   4.634
 3392SOL    HW110465   2.432   3.504   4.643
 3392SOL    HW210466   2.410   3.351   4.592
 3393SOL     OW10467   2.864   2.658   4.962
 3393SOL    HW110468   2.905   2.626   5.048
 3393SOL    HW210469   2.768   2.631   4.959
 3394SOL     OW10470   1.902   2.406   4.838
 3394SOL    HW110471   1.987   2.373   4.797
 3394SOL    HW210472   1.915   2.421   4.936
 3395SOL     OW10473   2.051   2.382   5.446
 3395SOL    HW110474   2.110   2.342   5.376
 3395SOL    HW210475   1.993   2.453   5.405
 3396SOL     OW10476   3.231   2.812   5.384
 3396SOL    HW110477   3.270   2.901   5.404
 3396SOL    HW210478   3.241   2.792   5.287
 3397SOL     OW10479   2.677   2.434   4.049
 3397SOL    HW110480   2.684   2.345   4.003
 3397SOL    HW210481   2.583   2.468   4.041
 3398SOL     OW10482   3.519   2.466   4.930
 3398SOL    HW110483   3.481   2.397   4.992
 3398SOL    HW210484   3.601   2.430   4.886
 3399SOL     OW10485   2.114   3.426   5.468
 3399SOL    HW110486   2.084   3.483   5.544
 3399SOL    HW210487   2.107   3.329   5.494
 3400SOL     OW10488   2.533   2.326   4.993
 3400SOL    HW110489   2.499   2.237   4.963
 3400SOL    HW210490   2.559   2.380   4.913
 3401SOL     OW10491   2.792   3.540   5.189
 3401SOL    HW110492   2.768   3.522   5.094
 3401SOL    HW210493   2.822   3.634   5.199
 3402SOL     OW10494   2.021   2.999   5.190
 3402SOL    HW110495   2.043   2.938   5.266
 3402SOL    HW210496   2.031   2.950   5.104
 3403SOL     OW10497   3.209   2.921   4.958
 3403SOL    HW110498   3.233   2.858   4.884
 3403SOL    HW210499   3.119   2.961   4.940
 3404SOL     OW10500   3.164   2.717   4.033
 3404SOL    HW110501   3.078   2.686   4.075
 3404SOL    HW210502   3.160   2.703   3.934
 3405SOL     OW10503   3.621   3.609   4.878
 3405SOL    HW110504   3.682   3.639   4.805
 3405SOL    HW210505   3.583   3.520   4.856
 3406SOL     OW10506   3.114   3.593   4.852
 3406SOL    HW110507   3.198   3.598   4.798
 3406SOL    HW210508   3.091   3.497   4.870
 3407SOL     OW10509   1.945   3.120   4.746
 3407SOL    HW110510   1.940   3.119   4.846
 3407SOL    HW210511   1.862   3.079   4.708
 3408SOL     OW10512   2.550   3.524   5.440
 3408SOL    HW110513   2.494   3.605   5.449
 3408SOL    HW210514   2.602   3.528   5.354
 3409SOL     OW10515   3.588   1.997   4.247
 3409SOL    HW110516   3.661   1.980   4.180
 3409SOL    HW210517   3.557   1.910   4.285
 3410SOL     OW10518   3.250   3.435   4.201
 3410SOL    HW110519   3.317   3.447   4.127
 3410SOL    HW210520   3.210   3.524   4.224
 3411SOL     OW10521   1.992   3.656   5.575
 3411SOL    HW110522   1.951   3.582   5.628
 3411SOL    HW210523   2.056   3.707   5.633
 3412SOL     OW10524   3.142   2.789   4.396
 3412SOL    HW110525   3.202   2.708   4.398
 3412SOL    HW210526   3.182   2.858   4.336
 3413SOL     OW10527   2.692   3.135   5.146
 3413SOL    HW110528   2.687   3.168   5.241
 3413SOL    HW210529   2.606   3.154   5.100
 3414SOL     OW10530   2.534   3.478   3.878
 3414SOL    HW110531   2.543   3.488   3.779
 3414SOL    HW210532   2.494   3.389   3.899
 3415SOL     OW10533   3.512   3.582   5.118
 3415SOL    HW110534   3.565   3.592   5.034
 3415SOL    HW210535   3.485   3.672   5.152
 3416SOL     OW10536   3.703   2.037   4.687
 3416SOL    HW110537   3.742   1.952   4.651
 3416SOL    HW210538   3.605   2.039   4.668
 3417SOL     OW10539   2.125   2.188   4.444
 3417SOL    HW110540   2.046   2.239   4.410
 3417SOL    HW210541   2.116   2.173   4.542
 3418SOL     OW10542   2.684   2.864   5.096
 3418SOL    HW110543   2.724   2.863   5.004
 3418SOL    HW210544   2.694   2.956   5.136
 3419SOL     OW10545   2.778   2.772   4.015
 3419SOL    HW110546   2.841   2.810   3.947
 3419SOL    HW210547   2.818   2.689   4.054
 3420SOL     OW10548   3.366   3.469   3.768
 3420SOL    HW110549   3.274   3.506   3.775
 3420SOL    HW210550   3.404   3.489   3.678
 3421SOL     OW10551   2.234   3.150   5.214
 3421SOL    HW110552   2.221   3.243   5.180
 3421SOL    HW210553   2.150   3.098   5.201
 3422SOL     OW10554   3.476   3.154   5.013
 3422SOL    HW110555   3.536   3.157   5.093
 3422SOL    HW210556   3.401   3.218   5.026
 3423SOL     OW10557   2.901   2.960   4.420
 3423SOL    HW110558   2.831   2.913   4.474
 3423SOL    HW210559   2.960   2.892   4.377
 3424SOL     OW10560   2.876   2.098   4.695
 3424SOL    HW110561   2.868   2.062   4.602
 3424SOL    HW210562   2.874   2.022   4.760
 3425SOL     OW10563   2.452   3.349   4.215
 3425SOL    HW110564   2.494   3.291   4.145
 3425SOL    HW210565   2.408   3.428   4.171
 3426SOL     OW10566   3.571   2.247   5.105
 3426SOL    HW110567   3.644   2.316   5.109
 3426SOL    HW210568   3.599   2.172   5.046
 3427SOL     OW10569   2.117   3.210   4.014
 3427SOL    HW110570   2.021   3.211   3.987
 3427SOL    HW210571   2.129   3.263   4.098
 3428SOL     OW10572   1.967   2.875   5.450
 3428SOL    HW110573   1.890   2.842   5.504
 3428SOL    HW210574   2.052   2.845   5.492
 3429SOL     OW10575   2.534   2.065   5.213
 3429SOL    HW110576   2.624   2.049   5.173
 3429SOL    HW210577   2.542   2.070   5.312
 3430SOL     OW10578   3.302   2.718   5.122
 3430SOL    HW110579   3.245   2.770   5.059
 3430SOL    HW210580   3.398   2.730   5.098
 3431SOL     OW10581   2.475   2.704   5.155
 3431SOL    HW110582   2.531   2.785   5.138
 3431SOL    HW210583   2.534   2.624   5.158
 3432SOL     OW10584   3.355   3.629   4.683
 3432SOL    HW110585   3.388   3.693   4.614
 3432SOL    HW210586   3.421   3.623   4.758
 3433SOL     OW10587   2.578   2.427   5.432
 3433SOL    HW110588   2.597   2.492   5.506
 3433SOL    HW210589   2.638   2.347   5.441
 3434SOL     OW10590   3.312   3.082   5.357
 3434SOL    HW110591   3.303   3.072   5.456
 3434SOL    HW210592   3.408   3.075   5.331
 3435SOL     OW10593   2.252   3.603   5.284
 3435SOL    HW110594   2.161   3.644   5.282
 3435SOL    HW210595   2.245   3.509   5.316
 3436SOL     OW10596   3.536   2.745   4.978
 3436SOL    HW110597   3.509   2.656   4.941
 3436SOL    HW210598   3.537   2.813   4.905
 3437SOL     OW10599   3.087   2.187   4.173
 3437SOL    HW110600   3.152   2.113   4.162
 3437SOL    HW210601   3.107   2.237   4.257
 3438SOL     OW10602   2.456   2.607   4.376
 3438SOL    HW110603   2.506   2.692   4.357
 3438SOL    HW210604   2.368   2.609   4.328
 3439SOL     OW10605   3.639   2.204   5.366
 3439SOL    HW110606   3.622   2.235   5.272
 3439SOL    HW210607   3.555   2.167   5.404
 3440SOL     OW10608   3.592   2.796   5.241
 3440SOL    HW110609   3.630   2.887   5.256
 3440SOL    HW210610   3.584   2.779   5.142
 3441SOL     OW10611   2.721   3.236   3.740
 3441SOL    HW110612   2.675   3.251   3.828
 3441SOL    HW210613   2.765   3.321   3.710
 3442SOL     OW10614   2.523   3.652   4.677
 3442SOL    HW110615   2.477   3.740   4.664
 3442SOL    HW210616   2.622   3.664   4.670
 3443SOL     OW10617   2.721   2.818   4.585
 3443SOL    HW110618   2.775   2.749   4.633
 3443SOL    HW210619   2.689   2.887   4.651
 3444SOL     OW10620   2.945   2.846   3.811
 3444SOL    HW110621   2.922   2.899   3.729
 3444SOL    HW210622   3.026   2.790   3.792
 3445SOL     OW10623   3.723   3.431   4.575
 3445SOL    HW110624   3.652   3.419   4.505
 3445SOL    HW210625   3.724   3.352   4.635
 3446SOL     OW10626   2.083   3.176   5.568
 3446SOL    HW110627   2.018   3.103   5.547
 3446SOL    HW210628   2.087   3.190   5.666
 3447SOL     OW10629   1.941   3.102   4.377
 3447SOL    HW110630   1.940   3.055   4.465
 3447SOL    HW210631   2.023   3.074   4.326
 3448SOL     OW10632   2.534   3.253   5.348
 3448SOL    HW110633   2.456   3.203   5.386
 3448SOL    HW210634   2.531   3.348   5.379
 3449SOL     OW10635   3.686   2.054   4.951
 3449SOL    HW110636   3.682   1.964   4.995
 3449SOL    HW210637   3.689   2.043   4.852
 3450SOL     OW10638   3.567   3.349   4.828
 3450SOL    HW110639   3.474   3.324   4.801
 3450SOL    HW210640   3.593   3.299   4.910
 3451SOL     OW10641   2.179   2.409   5.004
 3451SOL    HW110642   2.217   2.350   5.076
 3451SOL    HW210643   2.219   2.383   4.916
 3452SOL     OW10644   2.674   3.448   4.411
 3452SOL    HW110645   2.706   3.458   4.317
 3452SOL    HW210646   2.595   3.386   4.413
 3453SOL     OW10647   3.286   2.076   4.836
 3453SOL    HW110648   3.338   2.011   4.891
 3453SOL    HW210649   3.237   2.139   4.897
 3454SOL     OW10650   2.863   1.896   4.878
 3454SOL    HW110651   2.800   1.824   4.847
 3454SOL    HW210652   2.956   1.860   4.878
 3455SOL     OW10653   2.632   3.192   4.025
 3455SOL    HW110654   2.586   3.105   4.042
 3455SOL    HW210655   2.723   3.189   4.066
 3456SOL     OW10656   2.480   3.429   5.008
 3456SOL    HW110657   2.475   3.511   5.065
 3456SOL    HW210658   2.569   3.426   4.963
 3457SOL     OW10659   3.214   1.914   3.892
 3457SOL    HW110660   3.249   1.873   3.808
 3457SOL    HW210661   3.124   1.876   3.912
 3458SOL     OW10662   3.162   2.315   4.415
 3458SOL    HW110663   3.103   2.395   4.419
 3458SOL    HW210664   3.177   2.280   4.508
 3459SOL     OW10665   3.455   2.083   4.606
 3459SOL    HW110666   3.371   2.082   4.660
 3459SOL    HW210667   3.457   2.166   4.550
 3460SOL     OW10668   2.737   3.508   4.061
 3460SOL    HW110669   2.660   3.473   4.007
 3460SOL    HW210670   2.705   3.579   4.123
 3461SOL     OW10671   2.092   2.490   5.699
 3461SOL    HW110672   1.999   2.488   5.736
 3461SOL    HW210673   2.093   2.451   5.607
 3462SOL     OW10674   3.617   2.469   5.817
 3462SOL    HW110675   3.605   2.456   5.718
 3462SOL    HW210676   3.587   2.388   5.866
 3463SOL     OW10677   2.093   3.575   6.069
 3463SOL    HW110678   2.127   3.652   6.123
 3463SOL    HW210679   2.137   3.575   5.979
 3464SOL     OW10680   2.468   2.826   5.709
 3464SOL    HW110681   2.475   2.910   5.655
 3464SOL    HW210682   2.514   2.839   5.797
 3465SOL     OW10683   3.704   3.629   5.945
 3465SOL    HW110684   3.758   3.600   6.025
 3465SOL    HW210685   3.734   3.719   5.916
 3466SOL     OW10686   1.889   3.458   5.703
 3466SOL    HW110687   1.870   3.362   5.724
 3466SOL    HW210688   1.856   3.516   5.778
 3467SOL     OW10689   3.551   2.784   6.198
 3467SOL    HW110690   3.646   2.755   6.206
 3467SOL    HW210691   3.543   2.849   6.123
 3468SOL     OW10692   3.503   2.970   6.018
 3468SOL    HW110693   3.589   2.972   5.966
 3468SOL    HW210694   3.517   3.017   6.106
 3469SOL     OW10695   3.387   2.861   5.776
 3469SOL    HW110696   3.324   2.785   5.789
 3469SOL    HW210697   3.435   2.879   5.862
 3470SOL     OW10698   2.460   2.591   5.856
 3470SOL    HW110699   2.484   2.660   5.788
 3470SOL    HW210700   2.382   2.624   5.910
 3471SOL     OW10701   2.727   2.210   5.781
 3471SOL    HW110702   2.786   2.273   5.732
 3471SOL    HW210703   2.746   2.116   5.752
 3472SOL     OW10704   2.183   2.805   5.828
 3472SOL    HW110705   2.265   2.844   5.786
 3472SOL    HW210706   2.156   2.723   5.779
 3473SOL     OW10707   2.973   3.638   5.823
 3473SOL    HW110708   2.913   3.576   5.873
 3473SOL    HW210709   3.004   3.594   5.738
 3474SOL     OW10710   3.494   3.239   5.667
 3474SOL    HW110711   3.462   3.333   5.657
 3474SOL    HW210712   3.418   3.176   5.655
 3475SOL     OW10713   2.326   3.605   5.909
 3475SOL    HW110714   2.359   3.644   5.995
 3475SOL    HW210715   2.402   3.598   5.844
 3476SOL     OW10716   2.476   1.984   5.703
 3476SOL    HW110717   2.574   1.962   5.710
 3476SOL    HW210718   2.445   1.967   5.610
 3477SOL     OW10719   3.296   3.050   5.627
 3477SOL    HW110720   3.328   2.974   5.684
 3477SOL    HW210721   3.204   3.077   5.657
 3478SOL     OW10722   2.159   1.897   5.757
 3478SOL    HW110723   2.208   1.981   5.736
 3478SOL    HW210724   2.221   1.832   5.802
 3479SOL     OW10725   2.894   2.411   5.602
 3479SOL    HW110726   2.853   2.493   5.563
 3479SOL    HW210727   2.958   2.437   5.675
 3480SOL     OW10728   3.719   2.695   5.963
 3480SOL    HW110729   3.761   2.631   6.027
 3480SOL    HW210730   3.681   2.644   5.885
 3481SOL     OW10731   2.350   3.247   5.760
 3481SOL    HW110732   2.263   3.232   5.807
 3481SOL    HW210733   2.333   3.273   5.665
 3482SOL     OW10734   3.526   3.142   6.243
 3482SOL    HW110735   3.625   3.150   6.257
 3482SOL    HW210736   3.481   3.226   6.274
 3483SOL     OW10737   3.252   2.437   5.664
 3483SOL    HW110738   3.198   2.416   5.745
 3483SOL    HW210739   3.343   2.396   5.673
 3484SOL     OW10740   2.389   2.118   5.914
 3484SOL    HW110741   2.416   2.059   5.839
 3484SOL    HW210742   2.389   2.213   5.883
 3485SOL     OW10743   2.229   2.962   6.087
 3485SOL    HW110744   2.222   3.045   6.031
 3485SOL    HW210745   2.233   2.882   6.027
 3486SOL     OW10746   3.071   2.387   5.861
 3486SOL    HW110747   3.084   2.303   5.915
 3486SOL    HW210748   3.042   2.461   5.921
 3487SOL     OW10749   2.169   1.925   6.204
 3487SOL    HW110750   2.158   2.019   6.237
 3487SOL    HW210751   2.164   1.862   6.281
 3488SOL     OW10752   3.402   2.136   5.711
 3488SOL    HW110753   3.341   2.061   5.734
 3488SOL    HW210754   3.424   2.188   5.794
 3489SOL     OW10755   3.165   2.700   5.628
 3489SOL    HW110756   3.199   2.607   5.643
 3489SOL    HW210757   3.183   2.727   5.533
 3490SOL     OW10758   1.870   3.188   5.786
 3490SOL    HW110759   1.777   3.209   5.755
 3490SOL    HW210760   1.880   3.089   5.799
 3491SOL     OW10761   2.677   2.434   5.911
 3491SOL    HW110762   2.684   2.345   5.865
 3491SOL    HW210763   2.583   2.468   5.903
 3492SOL     OW10764   2.335   2.362   5.777
 3492SOL    HW110765   2.396   2.442   5.781
 3492SOL    HW210766   2.240   2.393   5.784
 3493SOL     OW10767   3.588   1.997   6.109
 3493SOL    HW110768   3.661   1.980   6.042
 3493SOL    HW210769   3.557   1.910   6.147
 3494SOL     OW10770   2.534   3.478   5.740
 3494SOL    HW110771   2.543   3.488   5.641
 3494SOL    HW210772   2.494   3.389   5.761
 3495SOL     OW10773   3.056   3.474   5.617
 3495SOL    HW110774   3.062   3.381   5.654
 3495SOL    HW210775   2.997   3.474   5.537
 3496SOL     OW10776   2.778   2.772   5.877
 3496SOL    HW110777   2.841   2.810   5.809
 3496SOL    HW210778   2.818   2.689   5.916
 3497SOL     OW10779   3.366   3.469   5.630
 3497SOL    HW110780   3.274   3.506   5.637
 3497SOL    HW210781   3.404   3.489   5.540
 3498SOL     OW10782   2.901   2.960   6.282
 3498SOL    HW110783   2.831   2.913   6.336
 3498SOL    HW210784   2.960   2.892   6.239
 3499SOL     OW10785   2.117   3.210   5.876
 3499SOL    HW110786   2.021   3.211   5.849
 3499SOL    HW210787   2.129   3.263   5.960
 3500SOL     OW10788   1.937   2.207   5.619
 3500SOL    HW110789   1.845   2.179   5.590
 3500SOL    HW210790   1.968   2.284   5.563
 3501SOL     OW10791   1.934   2.028   5.904
 3501SOL    HW110792   1.917   2.111   5.850
 3501SOL    HW210793   2.024   1.991   5.882
 3502SOL     OW10794   3.045   3.197   5.705
 3502SOL    HW110795   2.946   3.186   5.707
 3502SOL    HW210796   3.079   3.212   5.798
 3503SOL     OW10797   3.087   2.187   6.035
 3503SOL    HW110798   3.152   2.113   6.024
 3503SOL    HW210799   3.107   2.237   6.119
 3504SOL     OW10800   2.721   3.236   5.602
 3504SOL    HW110801   2.675   3.251   5.690
 3504SOL    HW210802   2.765   3.321   5.572
 3505SOL     OW10803   2.945   2.846   5.673
 3505SOL    HW110804   2.922   2.899   5.591
 3505SOL    HW210805   3.026   2.790   5.654
 3506SOL     OW10806   3.214   1.914   5.754
 3506SOL    HW110807   3.249   1.873   5.670
 3506SOL    HW210808   3.124   1.876   5.774
 3507SOL     OW10809   1.901   2.939   5.886
 3507SOL    HW110810   2.000   2.928   5.877
 3507SOL    HW210811   1.861   2.853   5.918
 3508SOL     OW10812   2.737   3.508   5.923
 3508SOL    HW110813   2.660   3.473   5.869
 3508SOL    HW210814   2.705   3.579   5.985
 3509SOL     OW10815   2.092   4.352   0.113
 3509SOL    HW110816   1.999   4.350   0.150
 3509SOL    HW210817   2.093   4.313   0.021
 3510SOL     OW10818   2.087   3.999   0.996
 3510SOL    HW110819   2.122   3.982   1.088
 3510SOL    HW210820   1.999   3.954   0.984
 3511SOL     OW10821   1.881   4.092   0.647
 3511SOL    HW110822   1.799   4.135   0.686
 3511SOL    HW210823   1.853   4.019   0.584
 3512SOL     OW10824   2.431   4.999   1.165
 3512SOL    HW110825   2.338   4.992   1.128
 3512SOL    HW210826   2.442   5.088   1.209
 3513SOL     OW10827   3.417   5.235   0.703
 3513SOL    HW110828   3.360   5.219   0.784
 3513SOL    HW210829   3.358   5.245   0.623
 3514SOL     OW10830   2.997   4.427   0.717
 3514SOL    HW110831   3.054   4.505   0.692
 3514SOL    HW210832   2.937   4.453   0.793
 3515SOL     OW10833   3.617   4.331   0.231
 3515SOL    HW110834   3.605   4.318   0.132
 3515SOL    HW210835   3.587   4.250   0.280
 3516SOL     OW10836   2.630   4.868   1.023
 3516SOL    HW110837   2.552   4.885   1.083
 3516SOL    HW210838   2.664   4.955   0.987
 3517SOL     OW10839   2.712   4.522   1.823
 3517SOL    HW110840   2.708   4.598   1.888
 3517SOL    HW210841   2.734   4.558   1.732
 3518SOL     OW10842   2.547   4.736   0.665
 3518SOL    HW110843   2.616   4.720   0.735
 3518SOL    HW210844   2.474   4.793   0.703
 3519SOL     OW10845   2.548   4.885   1.803
 3519SOL    HW110846   2.608   4.964   1.817
 3519SOL    HW210847   2.462   4.916   1.762
 3520SOL     OW10848   2.197   5.159   1.061
 3520SOL    HW110849   2.119   5.128   1.008
 3520SOL    HW210850   2.255   5.217   1.004
 3521SOL     OW10851   3.322   5.229   1.339
 3521SOL    HW110852   3.346   5.323   1.365
 3521SOL    HW210853   3.306   5.175   1.421
 3522SOL     OW10854   2.300   4.116   1.499
 3522SOL    HW110855   2.382   4.060   1.508
 3522SOL    HW210856   2.219   4.058   1.503
 3523SOL     OW10857   3.465   4.171   0.737
 3523SOL    HW110858   3.391   4.217   0.687
 3523SOL    HW210859   3.516   4.239   0.790
 3524SOL     OW10860   2.093   5.437   0.483
 3524SOL    HW110861   2.127   5.514   0.537
 3524SOL    HW210862   2.137   5.437   0.393
 3525SOL     OW10863   2.989   5.065   1.690
 3525SOL    HW110864   3.036   5.065   1.778
 3525SOL    HW210865   2.941   4.978   1.679
 3526SOL     OW10866   2.092   5.158   0.538
 3526SOL    HW110867   2.066   5.254   0.538
 3526SOL    HW210868   2.021   5.104   0.583
 3527SOL     OW10869   2.102   4.815   0.886
 3527SOL    HW110870   2.116   4.731   0.938
 3527SOL    HW210871   2.047   4.879   0.941
 3528SOL     OW10872   2.482   5.510   1.439
 3528SOL    HW110873   2.390   5.493   1.474
 3528SOL    HW210874   2.510   5.602   1.465
 3529SOL     OW10875   2.468   4.688   0.123
 3529SOL    HW110876   2.475   4.772   0.069
 3529SOL    HW210877   2.514   4.701   0.211
 3530SOL     OW10878   3.456   3.838   1.480
 3530SOL    HW110879   3.438   3.905   1.408
 3530SOL    HW210880   3.453   3.884   1.569
 3531SOL     OW10881   1.984   4.367   0.563
 3531SOL    HW110882   1.939   4.279   0.580
 3531SOL    HW210883   1.983   4.421   0.647
 3532SOL     OW10884   3.704   5.491   0.359
 3532SOL    HW110885   3.758   5.462   0.439
 3532SOL    HW210886   3.734   5.581   0.330
 3533SOL     OW10887   1.889   5.320   0.117
 3533SOL    HW110888   1.870   5.224   0.138
 3533SOL    HW210889   1.856   5.378   0.192
 3534SOL     OW10890   3.551   4.646   0.612
 3534SOL    HW110891   3.646   4.617   0.620
 3534SOL    HW210892   3.543   4.711   0.537
 3535SOL     OW10893   3.503   4.832   0.432
 3535SOL    HW110894   3.589   4.834   0.380
 3535SOL    HW210895   3.517   4.879   0.520
 3536SOL     OW10896   1.975   4.461   1.597
 3536SOL    HW110897   2.063   4.448   1.642
 3536SOL    HW210898   1.962   4.558   1.575
 3537SOL     OW10899   2.475   5.089   0.726
 3537SOL    HW110900   2.426   5.002   0.735
 3537SOL    HW210901   2.452   5.132   0.639
 3538SOL     OW10902   3.155   4.952   1.423
 3538SOL    HW110903   3.192   4.879   1.365
 3538SOL    HW210904   3.207   4.957   1.508
 3539SOL     OW10905   2.671   3.728   0.502
 3539SOL    HW110906   2.711   3.819   0.493
 3539SOL    HW210907   2.571   3.736   0.508
 3540SOL     OW10908   2.059   4.700   1.264
 3540SOL    HW110909   2.148   4.655   1.250
 3540SOL    HW210910   1.986   4.635   1.245
 3541SOL     OW10911   3.387   4.723   0.190
 3541SOL    HW110912   3.324   4.647   0.203
 3541SOL    HW210913   3.435   4.741   0.276
 3542SOL     OW10914   3.049   5.516   1.616
 3542SOL    HW110915   3.073   5.576   1.540
 3542SOL    HW210916   3.056   5.421   1.586
 3543SOL     OW10917   2.179   3.975   1.801
 3543SOL    HW110918   2.250   4.046   1.807
 3543SOL    HW210919   2.091   4.014   1.829
 3544SOL     OW10920   3.328   5.141   0.953
 3544SOL    HW110921   3.269   5.147   1.033
 3544SOL    HW210922   3.313   5.053   0.907
 3545SOL     OW10923   3.529   5.438   0.572
 3545SOL    HW110924   3.488   5.415   0.484
 3545SOL    HW210925   3.511   5.364   0.637
 3546SOL     OW10926   2.460   4.453   0.270
 3546SOL    HW110927   2.484   4.522   0.202
 3546SOL    HW210928   2.382   4.486   0.324
 3547SOL     OW10929   3.143   4.069   0.944
 3547SOL    HW110930   3.057   4.019   0.931
 3547SOL    HW210931   3.205   4.015   1.000
 3548SOL     OW10932   3.438   5.386   0.307
 3548SOL    HW110933   3.527   5.432   0.310
 3548SOL    HW210934   3.417   5.362   0.212
 3549SOL     OW10935   2.669   4.329   1.465
 3549SOL    HW110936   2.622   4.326   1.554
 3549SOL    HW210937   2.618   4.274   1.399
 3550SOL     OW10938   3.256   4.193   1.674
 3550SOL    HW110939   3.236   4.236   1.762
 3550SOL    HW210940   3.334   4.131   1.683
 3551SOL     OW10941   2.835   4.614   1.572
 3551SOL    HW110942   2.881   4.530   1.543
 3551SOL    HW210943   2.779   4.648   1.497
 3552SOL     OW10944   2.853   4.134   1.242
 3552SOL    HW110945   2.776   4.168   1.296
 3552SOL    HW210946   2.819   4.083   1.163
 3553SOL     OW10947   2.903   4.425   0.429
 3553SOL    HW110948   2.929   4.421   0.525
 3553SOL    HW210949   2.818   4.374   0.415
 3554SOL     OW10950   1.938   4.535   0.789
 3554SOL    HW110951   2.037   4.523   0.798
 3554SOL    HW210952   1.914   4.630   0.810
 3555SOL     OW10953   1.992   5.545   1.571
 3555SOL    HW110954   1.982   5.530   1.670
 3555SOL    HW210955   1.906   5.581   1.535
 3556SOL     OW10956   2.727   4.072   0.195
 3556SOL    HW110957   2.786   4.135   0.146
 3556SOL    HW210958   2.746   3.978   0.166
 3557SOL     OW10959   3.581   4.309   1.831
 3557SOL    HW110960   3.555   4.398   1.795
 3557SOL    HW210961   3.579   4.241   1.758
 3558SOL     OW10962   3.224   4.868   0.545
 3558SOL    HW110963   3.307   4.839   0.497
 3558SOL    HW210964   3.175   4.935   0.489
 3559SOL     OW10965   2.412   3.920   0.885
 3559SOL    HW110966   2.407   3.915   0.985
 3559SOL    HW210967   2.414   4.016   0.856
 3560SOL     OW10968   2.870   5.180   0.477
 3560SOL    HW110969   2.824   5.252   0.425
 3560SOL    HW210970   2.866   5.200   0.575
 3561SOL     OW10971   2.213   5.525   0.853
 3561SOL    HW110972   2.263   5.439   0.859
 3561SOL    HW210973   2.278   5.602   0.850
 3562SOL     OW10974   3.657   4.790   0.873
 3562SOL    HW110975   3.595   4.775   0.797
 3562SOL    HW210976   3.605   4.801   0.958
 3563SOL     OW10977   3.089   5.274   1.506
 3563SOL    HW110978   3.095   5.197   1.570
 3563SOL    HW210979   3.037   5.248   1.426
 3564SOL     OW10980   2.183   4.667   0.242
 3564SOL    HW110981   2.265   4.706   0.200
 3564SOL    HW210982   2.156   4.585   0.193
 3565SOL     OW10983   3.320   4.459   0.728
 3565SOL    HW110984   3.315   4.394   0.803
 3565SOL    HW210985   3.400   4.518   0.741
 3566SOL     OW10986   2.323   4.990   1.727
 3566SOL    HW110987   2.273   4.991   1.641
 3566SOL    HW210988   2.260   4.972   1.803
 3567SOL     OW10989   2.973   5.500   0.237
 3567SOL    HW110990   2.913   5.438   0.287
 3567SOL    HW210991   3.004   5.456   0.152
 3568SOL     OW10992   2.064   4.009   1.498
 3568SOL    HW110993   1.984   4.069   1.485
 3568SOL    HW210994   2.054   3.960   1.584
 3569SOL     OW10995   3.494   5.101   0.081
 3569SOL    HW110996   3.462   5.195   0.071
 3569SOL    HW210997   3.418   5.038   0.069
 3570SOL     OW10998   2.326   5.467   0.323
 3570SOL    HW110999   2.359   5.506   0.409
 3570SOL    HW211000   2.402   5.460   0.258
 3571SOL     OW11001   3.262   3.831   0.426
 3571SOL    HW111002   3.238   3.794   0.336
 3571SOL    HW211003   3.361   3.847   0.430
 3572SOL     OW11004   2.111   5.509   1.241
 3572SOL    HW111005   2.168   5.444   1.291
 3572SOL    HW211006   2.095   5.476   1.148
 3573SOL     OW11007   2.802   5.422   0.904
 3573SOL    HW111008   2.882   5.365   0.925
 3573SOL    HW211009   2.753   5.382   0.827
 3574SOL     OW11010   2.244   4.424   0.480
 3574SOL    HW111011   2.289   4.334   0.477
 3574SOL    HW211012   2.150   4.413   0.513
 3575SOL     OW11013   3.409   3.946   1.729
 3575SOL    HW111014   3.404   3.983   1.821
 3575SOL    HW211015   3.337   3.877   1.717
 3576SOL     OW11016   2.476   3.846   0.117
 3576SOL    HW111017   2.574   3.824   0.124
 3576SOL    HW211018   2.445   3.829   0.024
 3577SOL     OW11019   2.643   3.988   1.749
 3577SOL    HW111020   2.710   3.927   1.792
 3577SOL    HW211021   2.570   4.007   1.814
 3578SOL     OW11022   2.750   5.238   1.195
 3578SOL    HW111023   2.727   5.213   1.101
 3578SOL    HW211024   2.811   5.169   1.234
 3579SOL     OW11025   3.213   4.314   1.433
 3579SOL    HW111026   3.241   4.271   1.518
 3579SOL    HW211027   3.238   4.410   1.434
 3580SOL     OW11028   2.665   5.126   0.924
 3580SOL    HW111029   2.755   5.140   0.882
 3580SOL    HW211030   2.594   5.128   0.853
 3581SOL     OW11031   2.784   4.227   0.899
 3581SOL    HW111032   2.759   4.218   0.803
 3581SOL    HW211033   2.832   4.145   0.930
 3582SOL     OW11034   2.401   3.788   0.512
 3582SOL    HW111035   2.320   3.789   0.570
 3582SOL    HW211036   2.404   3.871   0.457
 3583SOL     OW11037   3.296   4.912   0.041
 3583SOL    HW111038   3.328   4.836   0.098
 3583SOL    HW211039   3.204   4.939   0.071
 3584SOL     OW11040   2.797   3.960   0.480
 3584SOL    HW111041   2.749   4.001   0.402
 3584SOL    HW211042   2.896   3.958   0.461
 3585SOL     OW11043   2.938   4.407   1.464
 3585SOL    HW111044   2.858   4.346   1.467
 3585SOL    HW211045   3.019   4.354   1.440
 3586SOL     OW11046   3.089   5.294   0.793
 3586SOL    HW111047   3.110   5.368   0.728
 3586SOL    HW211048   3.157   5.294   0.866
 3587SOL     OW11049   2.321   4.876   0.741
 3587SOL    HW111050   2.250   4.849   0.806
 3587SOL    HW211051   2.295   4.848   0.648
 3588SOL     OW11052   3.133   5.521   0.591
 3588SOL    HW111053   3.177   5.585   0.527
 3588SOL    HW211054   3.083   5.573   0.661
 3589SOL     OW11055   2.894   4.273   0.016
 3589SOL    HW111056   2.853   4.355  -0.023
 3589SOL    HW211057   2.958   4.299   0.089
 3590SOL     OW11058   1.940   4.280   1.386
 3590SOL    HW111059   2.032   4.279   1.345
 3590SOL    HW211060   1.934   4.354   1.453
 3591SOL     OW11061   2.423   3.946   1.147
 3591SOL    HW111062   2.461   3.862   1.184
 3591SOL    HW211063   2.335   3.965   1.191
 3592SOL     OW11064   2.728   4.178   0.642
 3592SOL    HW111065   2.696   4.250   0.580
 3592SOL    HW211066   2.752   4.097   0.589
 3593SOL     OW11067   2.879   3.763   0.753
 3593SOL    HW111068   2.807   3.768   0.684
 3593SOL    HW211069   2.855   3.694   0.822
 3594SOL     OW11070   3.291   4.897   0.867
 3594SOL    HW111071   3.236   4.813   0.860
 3594SOL    HW211072   3.317   4.926   0.775
 3595SOL     OW11073   3.328   4.314   0.992
 3595SOL    HW111074   3.298   4.219   0.999
 3595SOL    HW211075   3.401   4.330   1.058
 3596SOL     OW11076   3.719   4.557   0.377
 3596SOL    HW111077   3.761   4.493   0.441
 3596SOL    HW211078   3.681   4.506   0.299
 3597SOL     OW11079   2.350   5.109   0.174
 3597SOL    HW111080   2.263   5.094   0.221
 3597SOL    HW211081   2.333   5.135   0.079
 3598SOL     OW11082   3.526   5.004   0.657
 3598SOL    HW111083   3.625   5.012   0.671
 3598SOL    HW211084   3.481   5.088   0.688
 3599SOL     OW11085   3.252   4.299   0.078
 3599SOL    HW111086   3.198   4.278   0.159
 3599SOL    HW211087   3.343   4.258   0.087
 3600SOL     OW11088   2.389   3.980   0.328
 3600SOL    HW111089   2.416   3.921   0.253
 3600SOL    HW211090   2.389   4.075   0.297
 3601SOL     OW11091   3.616   4.947   1.588
 3601SOL    HW111092   3.707   4.908   1.575
 3601SOL    HW211093   3.624   5.043   1.612
 3602SOL     OW11094   2.926   5.071   1.340
 3602SOL    HW111095   2.846   5.048   1.395
 3602SOL    HW211096   3.009   5.045   1.389
 3603SOL     OW11097   3.454   5.353   1.625
 3603SOL    HW111098   3.481   5.387   1.535
 3603SOL    HW211099   3.533   5.315   1.671
 3604SOL     OW11100   2.973   4.919   1.100
 3604SOL    HW111101   2.933   4.963   1.181
 3604SOL    HW211102   2.932   4.956   1.017
 3605SOL     OW11103   3.500   4.823   1.079
 3605SOL    HW111104   3.505   4.904   1.138
 3605SOL    HW211105   3.414   4.825   1.028
 3606SOL     OW11106   2.777   3.813   1.402
 3606SOL    HW111107   2.802   3.793   1.307
 3606SOL    HW211108   2.849   3.869   1.444
 3607SOL     OW11109   2.842   4.840   1.719
 3607SOL    HW111110   2.743   4.846   1.729
 3607SOL    HW211111   2.865   4.760   1.663
 3608SOL     OW11112   2.567   4.774   0.368
 3608SOL    HW111113   2.553   4.781   0.467
 3608SOL    HW211114   2.651   4.723   0.350
 3609SOL     OW11115   2.272   4.537   1.251
 3609SOL    HW111116   2.358   4.549   1.301
 3609SOL    HW211117   2.230   4.450   1.278
 3610SOL     OW11118   3.136   4.110   1.262
 3610SOL    HW111119   3.157   4.184   1.326
 3610SOL    HW211120   3.047   4.127   1.219
 3611SOL     OW11121   1.926   5.288   1.331
 3611SOL    HW111122   1.880   5.370   1.297
 3611SOL    HW211123   2.024   5.307   1.340
 3612SOL     OW11124   2.229   4.824   0.501
 3612SOL    HW111125   2.222   4.907   0.445
 3612SOL    HW211126   2.233   4.744   0.441
 3613SOL     OW11127   2.428   4.261   0.865
 3613SOL    HW111128   2.440   4.327   0.791
 3613SOL    HW211129   2.474   4.295   0.948
 3614SOL     OW11130   3.114   5.072   0.388
 3614SOL    HW111131   3.164   5.149   0.428
 3614SOL    HW211132   3.019   5.074   0.420
 3615SOL     OW11133   3.134   5.169   1.142
 3615SOL    HW111134   3.181   5.182   1.229
 3615SOL    HW211135   3.068   5.095   1.151
 3616SOL     OW11136   3.444   4.363   0.472
 3616SOL    HW111137   3.413   4.424   0.545
 3616SOL    HW211138   3.494   4.415   0.403
 3617SOL     OW11139   2.216   5.234   1.329
 3617SOL    HW111140   2.195   5.190   1.242
 3617SOL    HW211141   2.313   5.260   1.332
 3618SOL     OW11142   2.264   4.475   1.598
 3618SOL    HW111143   2.332   4.530   1.551
 3618SOL    HW211144   2.304   4.387   1.625
 3619SOL     OW11145   3.449   4.503   1.670
 3619SOL    HW111146   3.357   4.541   1.665
 3619SOL    HW211147   3.509   4.550   1.605
 3620SOL     OW11148   2.875   3.829   1.770
 3620SOL    HW111149   2.881   3.914   1.718
 3620SOL    HW211150   2.907   3.753   1.713
 3621SOL     OW11151   2.366   3.774   1.740
 3621SOL    HW111152   2.324   3.717   1.670
 3621SOL    HW211153   2.300   3.843   1.772
 3622SOL     OW11154   2.435   4.594   1.029
 3622SOL    HW111155   2.479   4.683   1.020
 3622SOL    HW211156   2.372   4.594   1.106
 3623SOL     OW11157   3.222   4.586   1.045
 3623SOL    HW111158   3.147   4.586   0.979
 3623SOL    HW211159   3.259   4.494   1.054
 3624SOL     OW11160   3.071   4.249   0.275
 3624SOL    HW111161   3.084   4.165   0.329
 3624SOL    HW211162   3.042   4.323   0.335
 3625SOL     OW11163   2.169   3.937   1.231
 3625SOL    HW111164   2.146   3.974   1.321
 3625SOL    HW211165   2.139   3.842   1.225
 3626SOL     OW11166   1.899   5.034   1.282
 3626SOL    HW111167   1.952   4.985   1.350
 3626SOL    HW211168   1.921   5.132   1.287
 3627SOL     OW11169   2.594   4.358   1.064
 3627SOL    HW111170   2.653   4.332   0.988
 3627SOL    HW211171   2.566   4.454   1.053
 3628SOL     OW11172   3.590   4.659   1.854
 3628SOL    HW111173   3.544   4.652   1.765
 3628SOL    HW211174   3.528   4.703   1.920
 3629SOL     OW11175   2.169   3.787   0.618
 3629SOL    HW111176   2.158   3.881   0.651
 3629SOL    HW211177   2.164   3.724   0.695
 3630SOL     OW11178   3.484   4.091   0.374
 3630SOL    HW111179   3.486   4.015   0.438
 3630SOL    HW211180   3.436   4.168   0.414
 3631SOL     OW11181   2.885   4.490   0.966
 3631SOL    HW111182   2.900   4.511   1.062
 3631SOL    HW211183   2.855   4.395   0.957
 3632SOL     OW11184   2.842   5.297   1.700
 3632SOL    HW111185   2.822   5.341   1.612
 3632SOL    HW211186   2.881   5.206   1.684
 3633SOL     OW11187   3.721   5.242   1.605
 3633SOL    HW111188   3.735   5.269   1.510
 3633SOL    HW211189   3.804   5.264   1.658
 3634SOL     OW11190   2.212   4.622   1.804
 3634SOL    HW111191   2.288   4.666   1.852
 3634SOL    HW211192   2.247   4.575   1.722
 3635SOL     OW11193   3.402   3.998   0.125
 3635SOL    HW111194   3.341   3.923   0.148
 3635SOL    HW211195   3.424   4.050   0.208
 3636SOL     OW11196   3.165   4.562   0.042
 3636SOL    HW111197   3.199   4.469   0.057
 3636SOL    HW211198   3.183   4.589  -0.053
 3637SOL     OW11199   2.930   5.057   0.849
 3637SOL    HW111200   2.937   4.973   0.794
 3637SOL    HW211201   2.992   5.126   0.813
 3638SOL     OW11202   2.181   4.534   0.949
 3638SOL    HW111203   2.274   4.570   0.954
 3638SOL    HW211204   2.175   4.449   1.001
 3639SOL     OW11205   2.201   4.233   1.006
 3639SOL    HW111206   2.149   4.150   0.989
 3639SOL    HW211207   2.278   4.238   0.942
 3640SOL     OW11208   3.000   4.104   1.678
 3640SOL    HW111209   2.955   4.167   1.742
 3640SOL    HW211210   3.093   4.135   1.661
 3641SOL     OW11211   3.022   3.931   1.477
 3641SOL    HW111212   3.022   3.995   1.554
 3641SOL    HW211213   3.050   3.979   1.394
 3642SOL     OW11214   1.950   5.525   0.927
 3642SOL    HW111215   1.908   5.439   0.900
 3642SOL    HW211216   2.044   5.528   0.893
 3643SOL     OW11217   2.366   5.292   0.910
 3643SOL    HW111218   2.432   5.366   0.919
 3643SOL    HW211219   2.410   5.213   0.868
 3644SOL     OW11220   2.864   4.520   1.238
 3644SOL    HW111221   2.905   4.488   1.324
 3644SOL    HW211222   2.768   4.493   1.235
 3645SOL     OW11223   1.902   4.268   1.114
 3645SOL    HW111224   1.987   4.235   1.073
 3645SOL    HW211225   1.915   4.283   1.212
 3646SOL     OW11226   2.051   4.244   1.722
 3646SOL    HW111227   2.110   4.204   1.652
 3646SOL    HW211228   1.993   4.315   1.681
 3647SOL     OW11229   3.231   4.674   1.660
 3647SOL    HW111230   3.270   4.763   1.680
 3647SOL    HW211231   3.241   4.654   1.563
 3648SOL     OW11232   2.677   4.296   0.325
 3648SOL    HW111233   2.684   4.207   0.279
 3648SOL    HW211234   2.583   4.330   0.317
 3649SOL     OW11235   3.519   4.328   1.206
 3649SOL    HW111236   3.481   4.259   1.268
 3649SOL    HW211237   3.601   4.292   1.162
 3650SOL     OW11238   2.114   5.288   1.744
 3650SOL    HW111239   2.084   5.345   1.820
 3650SOL    HW211240   2.107   5.191   1.770
 3651SOL     OW11241   2.533   4.188   1.269
 3651SOL    HW111242   2.499   4.099   1.239
 3651SOL    HW211243   2.559   4.242   1.189
 3652SOL     OW11244   2.792   5.402   1.465
 3652SOL    HW111245   2.768   5.384   1.370
 3652SOL    HW211246   2.822   5.496   1.475
 3653SOL     OW11247   2.335   4.224   0.191
 3653SOL    HW111248   2.396   4.304   0.195
 3653SOL    HW211249   2.240   4.255   0.198
 3654SOL     OW11250   2.021   4.861   1.466
 3654SOL    HW111251   2.043   4.800   1.542
 3654SOL    HW211252   2.031   4.812   1.380
 3655SOL     OW11253   3.209   4.783   1.234
 3655SOL    HW111254   3.233   4.720   1.160
 3655SOL    HW211255   3.119   4.823   1.216
 3656SOL     OW11256   3.164   4.579   0.309
 3656SOL    HW111257   3.078   4.548   0.351
 3656SOL    HW211258   3.160   4.565   0.210
 3657SOL     OW11259   3.621   5.471   1.154
 3657SOL    HW111260   3.682   5.501   1.081
 3657SOL    HW211261   3.583   5.382   1.132
 3658SOL     OW11262   3.114   5.455   1.128
 3658SOL    HW111263   3.198   5.460   1.074
 3658SOL    HW211264   3.091   5.359   1.146
 3659SOL     OW11265   1.945   4.982   1.022
 3659SOL    HW111266   1.940   4.981   1.122
 3659SOL    HW211267   1.862   4.941   0.984
 3660SOL     OW11268   2.550   5.386   1.716
 3660SOL    HW111269   2.494   5.467   1.725
 3660SOL    HW211270   2.602   5.390   1.630
 3661SOL     OW11271   2.765   3.810   0.133
 3661SOL    HW111272   2.816   3.811   0.047
 3661SOL    HW211273   2.821   3.768   0.204
 3662SOL     OW11274   3.588   3.859   0.523
 3662SOL    HW111275   3.661   3.842   0.456
 3662SOL    HW211276   3.557   3.772   0.561
 3663SOL     OW11277   3.250   5.297   0.477
 3663SOL    HW111278   3.317   5.309   0.403
 3663SOL    HW211279   3.210   5.386   0.500
 3664SOL     OW11280   1.992   5.518   1.851
 3664SOL    HW111281   1.951   5.444   1.904
 3664SOL    HW211282   2.056   5.569   1.909
 3665SOL     OW11283   3.142   4.651   0.672
 3665SOL    HW111284   3.202   4.570   0.674
 3665SOL    HW211285   3.182   4.720   0.612
 3666SOL     OW11286   2.692   4.997   1.422
 3666SOL    HW111287   2.687   5.030   1.517
 3666SOL    HW211288   2.606   5.016   1.376
 3667SOL     OW11289   2.534   5.340   0.154
 3667SOL    HW111290   2.543   5.350   0.055
 3667SOL    HW211291   2.494   5.251   0.175
 3668SOL     OW11292   3.512   5.444   1.394
 3668SOL    HW111293   3.565   5.454   1.310
 3668SOL    HW211294   3.485   5.534   1.428
 3669SOL     OW11295   3.703   3.899   0.963
 3669SOL    HW111296   3.742   3.814   0.927
 3669SOL    HW211297   3.605   3.901   0.944
 3670SOL     OW11298   2.125   4.050   0.720
 3670SOL    HW111299   2.046   4.101   0.686
 3670SOL    HW211300   2.116   4.035   0.818
 3671SOL     OW11301   3.056   5.336   0.031
 3671SOL    HW111302   3.062   5.243   0.068
 3671SOL    HW211303   2.997   5.336  -0.049
 3672SOL     OW11304   2.684   4.726   1.372
 3672SOL    HW111305   2.724   4.725   1.280
 3672SOL    HW211306   2.694   4.818   1.412
 3673SOL     OW11307   2.778   4.634   0.291
 3673SOL    HW111308   2.841   4.672   0.223
 3673SOL    HW211309   2.818   4.551   0.330
 3674SOL     OW11310   3.366   5.331   0.044
 3674SOL    HW111311   3.274   5.368   0.051
 3674SOL    HW211312   3.404   5.351  -0.046
 3675SOL     OW11313   2.234   5.012   1.490
 3675SOL    HW111314   2.221   5.105   1.456
 3675SOL    HW211315   2.150   4.960   1.477
 3676SOL     OW11316   3.476   5.016   1.289
 3676SOL    HW111317   3.536   5.019   1.369
 3676SOL    HW211318   3.401   5.080   1.302
 3677SOL     OW11319   2.901   4.822   0.696
 3677SOL    HW111320   2.831   4.775   0.750
 3677SOL    HW211321   2.960   4.754   0.653
 3678SOL     OW11322   2.876   3.960   0.971
 3678SOL    HW111323   2.868   3.924   0.878
 3678SOL    HW211324   2.874   3.884   1.036
 3679SOL     OW11325   2.452   5.211   0.491
 3679SOL    HW111326   2.494   5.153   0.421
 3679SOL    HW211327   2.408   5.290   0.447
 3680SOL     OW11328   3.571   4.109   1.381
 3680SOL    HW111329   3.644   4.178   1.385
 3680SOL    HW211330   3.599   4.034   1.322
 3681SOL     OW11331   2.117   5.072   0.290
 3681SOL    HW111332   2.021   5.073   0.263
 3681SOL    HW211333   2.129   5.125   0.374
 3682SOL     OW11334   1.967   4.737   1.726
 3682SOL    HW111335   1.890   4.704   1.780
 3682SOL    HW211336   2.052   4.707   1.768
 3683SOL     OW11337   2.534   3.927   1.489
 3683SOL    HW111338   2.624   3.911   1.449
 3683SOL    HW211339   2.542   3.932   1.588
 3684SOL     OW11340   1.937   4.069   0.033
 3684SOL    HW111341   1.845   4.041   0.004
 3684SOL    HW211342   1.968   4.146  -0.023
 3685SOL     OW11343   3.302   4.580   1.398
 3685SOL    HW111344   3.245   4.632   1.335
 3685SOL    HW211345   3.398   4.592   1.374
 3686SOL     OW11346   1.934   3.890   0.318
 3686SOL    HW111347   1.917   3.973   0.264
 3686SOL    HW211348   2.024   3.853   0.296
 3687SOL     OW11349   3.045   5.059   0.119
 3687SOL    HW111350   2.946   5.048   0.121
 3687SOL    HW211351   3.079   5.074   0.212
 3688SOL     OW11352   2.475   4.566   1.431
 3688SOL    HW111353   2.531   4.647   1.414
 3688SOL    HW211354   2.534   4.486   1.434
 3689SOL     OW11355   3.355   5.491   0.959
 3689SOL    HW111356   3.388   5.555   0.890
 3689SOL    HW211357   3.421   5.485   1.034
 3690SOL     OW11358   2.578   4.289   1.708
 3690SOL    HW111359   2.597   4.354   1.782
 3690SOL    HW211360   2.638   4.209   1.717
 3691SOL     OW11361   3.312   4.944   1.633
 3691SOL    HW111362   3.303   4.934   1.732
 3691SOL    HW211363   3.408   4.937   1.607
 3692SOL     OW11364   2.252   5.465   1.560
 3692SOL    HW111365   2.161   5.506   1.558
 3692SOL    HW211366   2.245   5.371   1.592
 3693SOL     OW11367   3.536   4.607   1.254
 3693SOL    HW111368   3.509   4.518   1.217
 3693SOL    HW211369   3.537   4.675   1.181
 3694SOL     OW11370   3.087   4.049   0.449
 3694SOL    HW111371   3.152   3.975   0.438
 3694SOL    HW211372   3.107   4.099   0.533
 3695SOL     OW11373   2.456   4.469   0.652
 3695SOL    HW111374   2.506   4.554   0.633
 3695SOL    HW211375   2.368   4.471   0.604
 3696SOL     OW11376   3.639   4.066   1.642
 3696SOL    HW111377   3.622   4.097   1.548
 3696SOL    HW211378   3.555   4.029   1.680
 3697SOL     OW11379   3.592   4.658   1.517
 3697SOL    HW111380   3.630   4.749   1.532
 3697SOL    HW211381   3.584   4.641   1.418
 3698SOL     OW11382   2.721   5.098   0.016
 3698SOL    HW111383   2.675   5.113   0.104
 3698SOL    HW211384   2.765   5.183  -0.014
 3699SOL     OW11385   2.523   5.514   0.953
 3699SOL    HW111386   2.477   5.602   0.940
 3699SOL    HW211387   2.622   5.526   0.946
 3700SOL     OW11388   2.721   4.680   0.861
 3700SOL    HW111389   2.775   4.611   0.909
 3700SOL    HW211390   2.689   4.749   0.927
 3701SOL     OW11391   2.945   4.708   0.087
 3701SOL    HW111392   2.922   4.761   0.005
 3701SOL    HW211393   3.026   4.652   0.068
 3702SOL     OW11394   3.723   5.293   0.851
 3702SOL    HW111395   3.652   5.281   0.781
 3702SOL    HW211396   3.724   5.214   0.911
 3703SOL     OW11397   2.083   5.038   1.844
 3703SOL    HW111398   2.018   4.965   1.823
 3703SOL    HW211399   2.087   5.052   1.942
 3704SOL     OW11400   1.941   4.964   0.653
 3704SOL    HW111401   1.940   4.917   0.741
 3704SOL    HW211402   2.023   4.936   0.602
 3705SOL     OW11403   2.534   5.115   1.624
 3705SOL    HW111404   2.456   5.065   1.662
 3705SOL    HW211405   2.531   5.210   1.655
 3706SOL     OW11406   3.686   3.916   1.227
 3706SOL    HW111407   3.682   3.826   1.271
 3706SOL    HW211408   3.689   3.905   1.128
 3707SOL     OW11409   2.290   4.148   0.520
 3707SOL    HW111410   2.320   4.076   0.458
 3707SOL    HW211411   2.251   4.108   0.603
 3708SOL     OW11412   3.567   5.211   1.104
 3708SOL    HW111413   3.474   5.186   1.077
 3708SOL    HW211414   3.593   5.161   1.186
 3709SOL     OW11415   2.179   4.271   1.280
 3709SOL    HW111416   2.217   4.212   1.352
 3709SOL    HW211417   2.219   4.245   1.192
 3710SOL     OW11418   2.674   5.310   0.687
 3710SOL    HW111419   2.706   5.320   0.593
 3710SOL    HW211420   2.595   5.248   0.689
 3711SOL     OW11421   3.286   3.938   1.112
 3711SOL    HW111422   3.338   3.873   1.167
 3711SOL    HW211423   3.237   4.001   1.173
 3712SOL     OW11424   2.863   3.758   1.154
 3712SOL    HW111425   2.800   3.686   1.123
 3712SOL    HW211426   2.956   3.722   1.154
 3713SOL     OW11427   2.632   5.054   0.301
 3713SOL    HW111428   2.586   4.967   0.318
 3713SOL    HW211429   2.723   5.051   0.342
 3714SOL     OW11430   2.480   5.291   1.284
 3714SOL    HW111431   2.475   5.373   1.341
 3714SOL    HW211432   2.569   5.288   1.239
 3715SOL     OW11433   3.214   3.776   0.168
 3715SOL    HW111434   3.249   3.735   0.084
 3715SOL    HW211435   3.124   3.738   0.188
 3716SOL     OW11436   3.162   4.177   0.691
 3716SOL    HW111437   3.103   4.257   0.695
 3716SOL    HW211438   3.177   4.142   0.784
 3717SOL     OW11439   3.455   3.945   0.882
 3717SOL    HW111440   3.371   3.944   0.936
 3717SOL    HW211441   3.457   4.028   0.826
 3718SOL     OW11442   1.901   4.801   0.300
 3718SOL    HW111443   2.000   4.790   0.291
 3718SOL    HW211444   1.861   4.715   0.332
 3719SOL     OW11445   2.737   5.370   0.337
 3719SOL    HW111446   2.660   5.335   0.283
 3719SOL    HW211447   2.705   5.441   0.399
 3720SOL     OW11448   2.092   4.352   1.975
 3720SOL    HW111449   1.999   4.350   2.012
 3720SOL    HW211450   2.093   4.313   1.883
 3721SOL     OW11451   2.087   3.999   2.858
 3721SOL    HW111452   2.122   3.982   2.950
 3721SOL    HW211453   1.999   3.954   2.846
 3722SOL     OW11454   1.881   4.092   2.509
 3722SOL    HW111455   1.799   4.135   2.548
 3722SOL    HW211456   1.853   4.019   2.446
 3723SOL     OW11457   2.431   4.999   3.027
 3723SOL    HW111458   2.338   4.992   2.990
 3723SOL    HW211459   2.442   5.088   3.071
 3724SOL     OW11460   3.417   5.235   2.565
 3724SOL    HW111461   3.360   5.219   2.646
 3724SOL    HW211462   3.358   5.245   2.485
 3725SOL     OW11463   2.997   4.427   2.579
 3725SOL    HW111464   3.054   4.505   2.554
 3725SOL    HW211465   2.937   4.453   2.655
 3726SOL     OW11466   3.617   4.331   2.093
 3726SOL    HW111467   3.605   4.318   1.994
 3726SOL    HW211468   3.587   4.250   2.142
 3727SOL     OW11469   2.630   4.868   2.885
 3727SOL    HW111470   2.552   4.885   2.945
 3727SOL    HW211471   2.664   4.955   2.849
 3728SOL     OW11472   2.712   4.522   3.685
 3728SOL    HW111473   2.708   4.598   3.750
 3728SOL    HW211474   2.734   4.558   3.594
 3729SOL     OW11475   2.547   4.736   2.527
 3729SOL    HW111476   2.616   4.720   2.597
 3729SOL    HW211477   2.474   4.793   2.565
 3730SOL     OW11478   2.548   4.885   3.665
 3730SOL    HW111479   2.608   4.964   3.679
 3730SOL    HW211480   2.462   4.916   3.624
 3731SOL     OW11481   2.197   5.159   2.923
 3731SOL    HW111482   2.119   5.128   2.870
 3731SOL    HW211483   2.255   5.217   2.866
 3732SOL     OW11484   3.322   5.229   3.201
 3732SOL    HW111485   3.346   5.323   3.227
 3732SOL    HW211486   3.306   5.175   3.283
 3733SOL     OW11487   2.300   4.116   3.361
 3733SOL    HW111488   2.382   4.060   3.370
 3733SOL    HW211489   2.219   4.058   3.365
 3734SOL     OW11490   3.465   4.171   2.599
 3734SOL    HW111491   3.391   4.217   2.549
 3734SOL    HW211492   3.516   4.239   2.652
 3735SOL     OW11493   2.093   5.437   2.345
 3735SOL    HW111494   2.127   5.514   2.399
 3735SOL    HW211495   2.137   5.437   2.255
 3736SOL     OW11496   2.989   5.065   3.552
 3736SOL    HW111497   3.036   5.065   3.640
 3736SOL    HW211498   2.941   4.978   3.541
 3737SOL     OW11499   2.092   5.158   2.400
 3737SOL    HW111500   2.066   5.254   2.400
 3737SOL    HW211501   2.021   5.104   2.445
 3738SOL     OW11502   2.102   4.815   2.748
 3738SOL    HW111503   2.116   4.731   2.800
 3738SOL    HW211504   2.047   4.879   2.803
 3739SOL     OW11505   2.482   5.510   3.301
 3739SOL    HW111506   2.390   5.493   3.336
 3739SOL    HW211507   2.510   5.602   3.327
 3740SOL     OW11508   2.468   4.688   1.985
 3740SOL    HW111509   2.475   4.772   1.931
 3740SOL    HW211510   2.514   4.701   2.073
 3741SOL     OW11511   3.456   3.838   3.342
 3741SOL    HW111512   3.438   3.905   3.270
 3741SOL    HW211513   3.453   3.884   3.431
 3742SOL     OW11514   1.984   4.367   2.425
 3742SOL    HW111515   1.939   4.279   2.442
 3742SOL    HW211516   1.983   4.421   2.509
 3743SOL     OW11517   3.704   5.491   2.221
 3743SOL    HW111518   3.758   5.462   2.301
 3743SOL    HW211519   3.734   5.581   2.192
 3744SOL     OW11520   1.889   5.320   1.979
 3744SOL    HW111521   1.870   5.224   2.000
 3744SOL    HW211522   1.856   5.378   2.054
 3745SOL     OW11523   3.551   4.646   2.474
 3745SOL    HW111524   3.646   4.617   2.482
 3745SOL    HW211525   3.543   4.711   2.399
 3746SOL     OW11526   3.503   4.832   2.294
 3746SOL    HW111527   3.589   4.834   2.242
 3746SOL    HW211528   3.517   4.879   2.382
 3747SOL     OW11529   1.975   4.461   3.459
 3747SOL    HW111530   2.063   4.448   3.504
 3747SOL    HW211531   1.962   4.558   3.437
 3748SOL     OW11532   2.475   5.089   2.588
 3748SOL    HW111533   2.426   5.002   2.597
 3748SOL    HW211534   2.452   5.132   2.501
 3749SOL     OW11535   3.155   4.952   3.285
 3749SOL    HW111536   3.192   4.879   3.227
 3749SOL    HW211537   3.207   4.957   3.370
 3750SOL     OW11538   2.671   3.728   2.364
 3750SOL    HW111539   2.711   3.819   2.355
 3750SOL    HW211540   2.571   3.736   2.370
 3751SOL     OW11541   2.059   4.700   3.126
 3751SOL    HW111542   2.148   4.655   3.112
 3751SOL    HW211543   1.986   4.635   3.107
 3752SOL     OW11544   3.387   4.723   2.052
 3752SOL    HW111545   3.324   4.647   2.065
 3752SOL    HW211546   3.435   4.741   2.138
 3753SOL     OW11547   3.049   5.516   3.478
 3753SOL    HW111548   3.073   5.576   3.402
 3753SOL    HW211549   3.056   5.421   3.448
 3754SOL     OW11550   2.179   3.975   3.663
 3754SOL    HW111551   2.250   4.046   3.669
 3754SOL    HW211552   2.091   4.014   3.691
 3755SOL     OW11553   3.328   5.141   2.815
 3755SOL    HW111554   3.269   5.147   2.895
 3755SOL    HW211555   3.313   5.053   2.769
 3756SOL     OW11556   3.529   5.438   2.434
 3756SOL    HW111557   3.488   5.415   2.346
 3756SOL    HW211558   3.511   5.364   2.499
 3757SOL     OW11559   2.460   4.453   2.132
 3757SOL    HW111560   2.484   4.522   2.064
 3757SOL    HW211561   2.382   4.486   2.186
 3758SOL     OW11562   3.143   4.069   2.806
 3758SOL    HW111563   3.057   4.019   2.793
 3758SOL    HW211564   3.205   4.015   2.862
 3759SOL     OW11565   3.438   5.386   2.169
 3759SOL    HW111566   3.527   5.432   2.172
 3759SOL    HW211567   3.417   5.362   2.074
 3760SOL     OW11568   2.669   4.329   3.327
 3760SOL    HW111569   2.622   4.326   3.416
 3760SOL    HW211570   2.618   4.274   3.261
 3761SOL     OW11571   3.256   4.193   3.536
 3761SOL    HW111572   3.236   4.236   3.624
 3761SOL    HW211573   3.334   4.131   3.545
 3762SOL     OW11574   2.835   4.614   3.434
 3762SOL    HW111575   2.881   4.530   3.405
 3762SOL    HW211576   2.779   4.648   3.359
 3763SOL     OW11577   2.853   4.134   3.104
 3763SOL    HW111578   2.776   4.168   3.158
 3763SOL    HW211579   2.819   4.083   3.025
 3764SOL     OW11580   2.903   4.425   2.291
 3764SOL    HW111581   2.929   4.421   2.387
 3764SOL    HW211582   2.818   4.374   2.277
 3765SOL     OW11583   1.938   4.535   2.651
 3765SOL    HW111584   2.037   4.523   2.660
 3765SOL    HW211585   1.914   4.630   2.672
 3766SOL     OW11586   1.992   5.545   3.433
 3766SOL    HW111587   1.982   5.530   3.532
 3766SOL    HW211588   1.906   5.581   3.397
 3767SOL     OW11589   2.727   4.072   2.057
 3767SOL    HW111590   2.786   4.135   2.008
 3767SOL    HW211591   2.746   3.978   2.028
 3768SOL     OW11592   3.581   4.309   3.693
 3768SOL    HW111593   3.555   4.398   3.657
 3768SOL    HW211594   3.579   4.241   3.620
 3769SOL     OW11595   3.224   4.868   2.407
 3769SOL    HW111596   3.307   4.839   2.359
 3769SOL    HW211597   3.175   4.935   2.351
 3770SOL     OW11598   2.412   3.920   2.747
 3770SOL    HW111599   2.407   3.915   2.847
 3770SOL    HW211600   2.414   4.016   2.718
 3771SOL     OW11601   2.870   5.180   2.339
 3771SOL    HW111602   2.824   5.252   2.287
 3771SOL    HW211603   2.866   5.200   2.437
 3772SOL     OW11604   2.213   5.525   2.715
 3772SOL    HW111605   2.263   5.439   2.721
 3772SOL    HW211606   2.278   5.602   2.712
 3773SOL     OW11607   3.657   4.790   2.735
 3773SOL    HW111608   3.595   4.775   2.659
 3773SOL    HW211609   3.605   4.801   2.820
 3774SOL     OW11610   3.089   5.274   3.368
 3774SOL    HW111611   3.095   5.197   3.432
 3774SOL    HW211612   3.037   5.248   3.288
 3775SOL     OW11613   2.183   4.667   2.104
 3775SOL    HW111614   2.265   4.706   2.062
 3775SOL    HW211615   2.156   4.585   2.055
 3776SOL     OW11616   3.320   4.459   2.590
 3776SOL    HW111617   3.315   4.394   2.665
 3776SOL    HW211618   3.400   4.518   2.603
 3777SOL     OW11619   2.323   4.990   3.589
 3777SOL    HW111620   2.273   4.991   3.503
 3777SOL    HW211621   2.260   4.972   3.665
 3778SOL     OW11622   2.973   5.500   2.099
 3778SOL    HW111623   2.913   5.438   2.149
 3778SOL    HW211624   3.004   5.456   2.014
 3779SOL     OW11625   2.064   4.009   3.360
 3779SOL    HW111626   1.984   4.069   3.347
 3779SOL    HW211627   2.054   3.960   3.446
 3780SOL     OW11628   3.494   5.101   1.943
 3780SOL    HW111629   3.462   5.195   1.933
 3780SOL    HW211630   3.418   5.038   1.931
 3781SOL     OW11631   2.326   5.467   2.185
 3781SOL    HW111632   2.359   5.506   2.271
 3781SOL    HW211633   2.402   5.460   2.120
 3782SOL     OW11634   2.111   5.509   3.103
 3782SOL    HW111635   2.168   5.444   3.153
 3782SOL    HW211636   2.095   5.476   3.010
 3783SOL     OW11637   2.802   5.422   2.766
 3783SOL    HW111638   2.882   5.365   2.787
 3783SOL    HW211639   2.753   5.382   2.689
 3784SOL     OW11640   2.244   4.424   2.342
 3784SOL    HW111641   2.289   4.334   2.339
 3784SOL    HW211642   2.150   4.413   2.375
 3785SOL     OW11643   3.409   3.946   3.591
 3785SOL    HW111644   3.404   3.983   3.683
 3785SOL    HW211645   3.337   3.877   3.579
 3786SOL     OW11646   2.476   3.846   1.979
 3786SOL    HW111647   2.574   3.824   1.986
 3786SOL    HW211648   2.445   3.829   1.886
 3787SOL     OW11649   2.643   3.988   3.611
 3787SOL    HW111650   2.710   3.927   3.654
 3787SOL    HW211651   2.570   4.007   3.676
 3788SOL     OW11652   2.750   5.238   3.057
 3788SOL    HW111653   2.727   5.213   2.963
 3788SOL    HW211654   2.811   5.169   3.096
 3789SOL     OW11655   3.213   4.314   3.295
 3789SOL    HW111656   3.241   4.271   3.380
 3789SOL    HW211657   3.238   4.410   3.296
 3790SOL     OW11658   2.665   5.126   2.786
 3790SOL    HW111659   2.755   5.140   2.744
 3790SOL    HW211660   2.594   5.128   2.715
 3791SOL     OW11661   2.784   4.227   2.761
 3791SOL    HW111662   2.759   4.218   2.665
 3791SOL    HW211663   2.832   4.145   2.792
 3792SOL     OW11664   2.401   3.788   2.374
 3792SOL    HW111665   2.320   3.789   2.432
 3792SOL    HW211666   2.404   3.871   2.319
 3793SOL     OW11667   3.296   4.912   1.903
 3793SOL    HW111668   3.328   4.836   1.960
 3793SOL    HW211669   3.204   4.939   1.933
 3794SOL     OW11670   2.159   3.759   2.033
 3794SOL    HW111671   2.208   3.843   2.012
 3794SOL    HW211672   2.221   3.694   2.078
 3795SOL     OW11673   2.797   3.960   2.342
 3795SOL    HW111674   2.749   4.001   2.264
 3795SOL    HW211675   2.896   3.958   2.323
 3796SOL     OW11676   2.938   4.407   3.326
 3796SOL    HW111677   2.858   4.346   3.329
 3796SOL    HW211678   3.019   4.354   3.302
 3797SOL     OW11679   3.089   5.294   2.655
 3797SOL    HW111680   3.110   5.368   2.590
 3797SOL    HW211681   3.157   5.294   2.728
 3798SOL     OW11682   2.321   4.876   2.603
 3798SOL    HW111683   2.250   4.849   2.668
 3798SOL    HW211684   2.295   4.848   2.510
 3799SOL     OW11685   3.133   5.521   2.453
 3799SOL    HW111686   3.177   5.585   2.389
 3799SOL    HW211687   3.083   5.573   2.523
 3800SOL     OW11688   2.894   4.273   1.878
 3800SOL    HW111689   2.853   4.355   1.839
 3800SOL    HW211690   2.958   4.299   1.951
 3801SOL     OW11691   1.940   4.280   3.248
 3801SOL    HW111692   2.032   4.279   3.207
 3801SOL    HW211693   1.934   4.354   3.315
 3802SOL     OW11694   2.423   3.946   3.009
 3802SOL    HW111695   2.461   3.862   3.046
 3802SOL    HW211696   2.335   3.965   3.053
 3803SOL     OW11697   2.728   4.178   2.504
 3803SOL    HW111698   2.696   4.250   2.442
 3803SOL    HW211699   2.752   4.097   2.451
 3804SOL     OW11700   2.879   3.763   2.615
 3804SOL    HW111701   2.807   3.768   2.546
 3804SOL    HW211702   2.855   3.694   2.684
 3805SOL     OW11703   3.291   4.897   2.729
 3805SOL    HW111704   3.236   4.813   2.722
 3805SOL    HW211705   3.317   4.926   2.637
 3806SOL     OW11706   3.328   4.314   2.854
 3806SOL    HW111707   3.298   4.219   2.861
 3806SOL    HW211708   3.401   4.330   2.920
 3807SOL     OW11709   3.719   4.557   2.239
 3807SOL    HW111710   3.761   4.493   2.303
 3807SOL    HW211711   3.681   4.506   2.161
 3808SOL     OW11712   2.350   5.109   2.036
 3808SOL    HW111713   2.263   5.094   2.083
 3808SOL    HW211714   2.333   5.135   1.941
 3809SOL     OW11715   3.526   5.004   2.519
 3809SOL    HW111716   3.625   5.012   2.533
 3809SOL    HW211717   3.481   5.088   2.550
 3810SOL     OW11718   3.252   4.299   1.940
 3810SOL    HW111719   3.198   4.278   2.021
 3810SOL    HW211720   3.343   4.258   1.949
 3811SOL     OW11721   2.389   3.980   2.190
 3811SOL    HW111722   2.416   3.921   2.115
 3811SOL    HW211723   2.389   4.075   2.159
 3812SOL     OW11724   3.616   4.947   3.450
 3812SOL    HW111725   3.707   4.908   3.437
 3812SOL    HW211726   3.624   5.043   3.474
 3813SOL     OW11727   2.926   5.071   3.202
 3813SOL    HW111728   2.846   5.048   3.257
 3813SOL    HW211729   3.009   5.045   3.251
 3814SOL     OW11730   3.454   5.353   3.487
 3814SOL    HW111731   3.481   5.387   3.397
 3814SOL    HW211732   3.533   5.315   3.533
 3815SOL     OW11733   2.973   4.919   2.962
 3815SOL    HW111734   2.933   4.963   3.043
 3815SOL    HW211735   2.932   4.956   2.879
 3816SOL     OW11736   3.500   4.823   2.941
 3816SOL    HW111737   3.505   4.904   3.000
 3816SOL    HW211738   3.414   4.825   2.890
 3817SOL     OW11739   2.777   3.813   3.264
 3817SOL    HW111740   2.802   3.793   3.169
 3817SOL    HW211741   2.849   3.869   3.306
 3818SOL     OW11742   2.842   4.840   3.581
 3818SOL    HW111743   2.743   4.846   3.591
 3818SOL    HW211744   2.865   4.760   3.525
 3819SOL     OW11745   2.567   4.774   2.230
 3819SOL    HW111746   2.553   4.781   2.329
 3819SOL    HW211747   2.651   4.723   2.212
 3820SOL     OW11748   2.272   4.537   3.113
 3820SOL    HW111749   2.358   4.549   3.163
 3820SOL    HW211750   2.230   4.450   3.140
 3821SOL     OW11751   3.136   4.110   3.124
 3821SOL    HW111752   3.157   4.184   3.188
 3821SOL    HW211753   3.047   4.127   3.081
 3822SOL     OW11754   1.926   5.288   3.193
 3822SOL    HW111755   1.880   5.370   3.159
 3822SOL    HW211756   2.024   5.307   3.202
 3823SOL     OW11757   2.229   4.824   2.363
 3823SOL    HW111758   2.222   4.907   2.307
 3823SOL    HW211759   2.233   4.744   2.303
 3824SOL     OW11760   2.428   4.261   2.727
 3824SOL    HW111761   2.440   4.327   2.653
 3824SOL    HW211762   2.474   4.295   2.810
 3825SOL     OW11763   3.114   5.072   2.250
 3825SOL    HW111764   3.164   5.149   2.290
 3825SOL    HW211765   3.019   5.074   2.282
 3826SOL     OW11766   3.134   5.169   3.004
 3826SOL    HW111767   3.181   5.182   3.091
 3826SOL    HW211768   3.068   5.095   3.013
 3827SOL     OW11769   2.216   5.234   3.191
 3827SOL    HW111770   2.195   5.190   3.104
 3827SOL    HW211771   2.313   5.260   3.194
 3828SOL     OW11772   2.264   4.475   3.460
 3828SOL    HW111773   2.332   4.530   3.413
 3828SOL    HW211774   2.304   4.387   3.487
 3829SOL     OW11775   3.449   4.503   3.532
 3829SOL    HW111776   3.357   4.541   3.527
 3829SOL    HW211777   3.509   4.550   3.467
 3830SOL     OW11778   2.875   3.829   3.632
 3830SOL    HW111779   2.881   3.914   3.580
 3830SOL    HW211780   2.907   3.753   3.575
 3831SOL     OW11781   2.366   3.774   3.602
 3831SOL    HW111782   2.324   3.717   3.532
 3831SOL    HW211783   2.300   3.843   3.634
 3832SOL     OW11784   2.435   4.594   2.891
 3832SOL    HW111785   2.479   4.683   2.882
 3832SOL    HW211786   2.372   4.594   2.968
 3833SOL     OW11787   3.222   4.586   2.907
 3833SOL    HW111788   3.147   4.586   2.841
 3833SOL    HW211789   3.259   4.494   2.916
 3834SOL     OW11790   3.071   4.249   2.137
 3834SOL    HW111791   3.084   4.165   2.191
 3834SOL    HW211792   3.042   4.323   2.197
 3835SOL     OW11793   2.169   3.937   3.093
 3835SOL    HW111794   2.146   3.974   3.183
 3835SOL    HW211795   2.139   3.842   3.087
 3836SOL     OW11796   1.899   5.034   3.144
 3836SOL    HW111797   1.952   4.985   3.212
 3836SOL    HW211798   1.921   5.132   3.149
 3837SOL     OW11799   2.594   4.358   2.926
 3837SOL    HW111800   2.653   4.332   2.850
 3837SOL    HW211801   2.566   4.454   2.915
 3838SOL     OW11802   3.590   4.659   3.716
 3838SOL    HW111803   3.544   4.652   3.627
 3838SOL    HW211804   3.528   4.703   3.782
 3839SOL     OW11805   2.169   3.787   2.480
 3839SOL    HW111806   2.158   3.881   2.513
 3839SOL    HW211807   2.164   3.724   2.557
 3840SOL     OW11808   2.885   4.490   2.828
 3840SOL    HW111809   2.900   4.511   2.924
 3840SOL    HW211810   2.855   4.395   2.819
 3841SOL     OW11811   2.842   5.297   3.562
 3841SOL    HW111812   2.822   5.341   3.474
 3841SOL    HW211813   2.881   5.206   3.546
 3842SOL     OW11814   3.721   5.242   3.467
 3842SOL    HW111815   3.735   5.269   3.372
 3842SOL    HW211816   3.804   5.264   3.520
 3843SOL     OW11817   2.212   4.622   3.666
 3843SOL    HW111818   2.288   4.666   3.714
 3843SOL    HW211819   2.247   4.575   3.584
 3844SOL     OW11820   3.165   4.562   1.904
 3844SOL    HW111821   3.199   4.469   1.919
 3844SOL    HW211822   3.183   4.589   1.809
 3845SOL     OW11823   2.930   5.057   2.711
 3845SOL    HW111824   2.937   4.973   2.656
 3845SOL    HW211825   2.992   5.126   2.675
 3846SOL     OW11826   2.181   4.534   2.811
 3846SOL    HW111827   2.274   4.570   2.816
 3846SOL    HW211828   2.175   4.449   2.863
 3847SOL     OW11829   2.201   4.233   2.868
 3847SOL    HW111830   2.149   4.150   2.851
 3847SOL    HW211831   2.278   4.238   2.804
 3848SOL     OW11832   3.000   4.104   3.540
 3848SOL    HW111833   2.955   4.167   3.604
 3848SOL    HW211834   3.093   4.135   3.523
 3849SOL     OW11835   3.022   3.931   3.339
 3849SOL    HW111836   3.022   3.995   3.416
 3849SOL    HW211837   3.050   3.979   3.256
 3850SOL     OW11838   1.870   5.050   2.062
 3850SOL    HW111839   1.777   5.071   2.031
 3850SOL    HW211840   1.880   4.951   2.075
 3851SOL     OW11841   1.950   5.525   2.789
 3851SOL    HW111842   1.908   5.439   2.762
 3851SOL    HW211843   2.044   5.528   2.755
 3852SOL     OW11844   2.366   5.292   2.772
 3852SOL    HW111845   2.432   5.366   2.781
 3852SOL    HW211846   2.410   5.213   2.730
 3853SOL     OW11847   2.864   4.520   3.100
 3853SOL    HW111848   2.905   4.488   3.186
 3853SOL    HW211849   2.768   4.493   3.097
 3854SOL     OW11850   1.902   4.268   2.976
 3854SOL    HW111851   1.987   4.235   2.935
 3854SOL    HW211852   1.915   4.283   3.074
 3855SOL     OW11853   2.051   4.244   3.584
 3855SOL    HW111854   2.110   4.204   3.514
 3855SOL    HW211855   1.993   4.315   3.543
 3856SOL     OW11856   3.231   4.674   3.522
 3856SOL    HW111857   3.270   4.763   3.542
 3856SOL    HW211858   3.241   4.654   3.425
 3857SOL     OW11859   2.677   4.296   2.187
 3857SOL    HW111860   2.684   4.207   2.141
 3857SOL    HW211861   2.583   4.330   2.179
 3858SOL     OW11862   3.519   4.328   3.068
 3858SOL    HW111863   3.481   4.259   3.130
 3858SOL    HW211864   3.601   4.292   3.024
 3859SOL     OW11865   2.114   5.288   3.606
 3859SOL    HW111866   2.084   5.345   3.682
 3859SOL    HW211867   2.107   5.191   3.632
 3860SOL     OW11868   2.533   4.188   3.131
 3860SOL    HW111869   2.499   4.099   3.101
 3860SOL    HW211870   2.559   4.242   3.051
 3861SOL     OW11871   2.792   5.402   3.327
 3861SOL    HW111872   2.768   5.384   3.232
 3861SOL    HW211873   2.822   5.496   3.337
 3862SOL     OW11874   2.335   4.224   2.053
 3862SOL    HW111875   2.396   4.304   2.057
 3862SOL    HW211876   2.240   4.255   2.060
 3863SOL     OW11877   2.021   4.861   3.328
 3863SOL    HW111878   2.043   4.800   3.404
 3863SOL    HW211879   2.031   4.812   3.242
 3864SOL     OW11880   3.209   4.783   3.096
 3864SOL    HW111881   3.233   4.720   3.022
 3864SOL    HW211882   3.119   4.823   3.078
 3865SOL     OW11883   3.164   4.579   2.171
 3865SOL    HW111884   3.078   4.548   2.213
 3865SOL    HW211885   3.160   4.565   2.072
 3866SOL     OW11886   3.621   5.471   3.016
 3866SOL    HW111887   3.682   5.501   2.943
 3866SOL    HW211888   3.583   5.382   2.994
 3867SOL     OW11889   3.114   5.455   2.990
 3867SOL    HW111890   3.198   5.460   2.936
 3867SOL    HW211891   3.091   5.359   3.008
 3868SOL     OW11892   1.945   4.982   2.884
 3868SOL    HW111893   1.940   4.981   2.984
 3868SOL    HW211894   1.862   4.941   2.846
 3869SOL     OW11895   2.550   5.386   3.578
 3869SOL    HW111896   2.494   5.467   3.587
 3869SOL    HW211897   2.602   5.390   3.492
 3870SOL     OW11898   3.250   5.297   2.339
 3870SOL    HW111899   3.317   5.309   2.265
 3870SOL    HW211900   3.210   5.386   2.362
 3871SOL     OW11901   1.992   5.518   3.713
 3871SOL    HW111902   1.951   5.444   3.766
 3871SOL    HW211903   2.056   5.569   3.771
 3872SOL     OW11904   3.142   4.651   2.534
 3872SOL    HW111905   3.202   4.570   2.536
 3872SOL    HW211906   3.182   4.720   2.474
 3873SOL     OW11907   2.692   4.997   3.284
 3873SOL    HW111908   2.687   5.030   3.379
 3873SOL    HW211909   2.606   5.016   3.238
 3874SOL     OW11910   2.534   5.340   2.016
 3874SOL    HW111911   2.543   5.350   1.917
 3874SOL    HW211912   2.494   5.251   2.037
 3875SOL     OW11913   3.512   5.444   3.256
 3875SOL    HW111914   3.565   5.454   3.172
 3875SOL    HW211915   3.485   5.534   3.290
 3876SOL     OW11916   2.125   4.050   2.582
 3876SOL    HW111917   2.046   4.101   2.548
 3876SOL    HW211918   2.116   4.035   2.680
 3877SOL     OW11919   3.056   5.336   1.893
 3877SOL    HW111920   3.062   5.243   1.930
 3877SOL    HW211921   2.997   5.336   1.813
 3878SOL     OW11922   2.684   4.726   3.234
 3878SOL    HW111923   2.724   4.725   3.142
 3878SOL    HW211924   2.694   4.818   3.274
 3879SOL     OW11925   2.778   4.634   2.153
 3879SOL    HW111926   2.841   4.672   2.085
 3879SOL    HW211927   2.818   4.551   2.192
 3880SOL     OW11928   3.366   5.331   1.906
 3880SOL    HW111929   3.274   5.368   1.913
 3880SOL    HW211930   3.404   5.351   1.816
 3881SOL     OW11931   2.234   5.012   3.352
 3881SOL    HW111932   2.221   5.105   3.318
 3881SOL    HW211933   2.150   4.960   3.339
 3882SOL     OW11934   3.476   5.016   3.151
 3882SOL    HW111935   3.536   5.019   3.231
 3882SOL    HW211936   3.401   5.080   3.164
 3883SOL     OW11937   2.901   4.822   2.558
 3883SOL    HW111938   2.831   4.775   2.612
 3883SOL    HW211939   2.960   4.754   2.515
 3884SOL     OW11940   2.876   3.960   2.833
 3884SOL    HW111941   2.868   3.924   2.740
 3884SOL    HW211942   2.874   3.884   2.898
 3885SOL     OW11943   2.452   5.211   2.353
 3885SOL    HW111944   2.494   5.153   2.283
 3885SOL    HW211945   2.408   5.290   2.309
 3886SOL     OW11946   3.571   4.109   3.243
 3886SOL    HW111947   3.644   4.178   3.247
 3886SOL    HW211948   3.599   4.034   3.184
 3887SOL     OW11949   2.117   5.072   2.152
 3887SOL    HW111950   2.021   5.073   2.125
 3887SOL    HW211951   2.129   5.125   2.236
 3888SOL     OW11952   1.967   4.737   3.588
 3888SOL    HW111953   1.890   4.704   3.642
 3888SOL    HW211954   2.052   4.707   3.630
 3889SOL     OW11955   2.534   3.927   3.351
 3889SOL    HW111956   2.624   3.911   3.311
 3889SOL    HW211957   2.542   3.932   3.450
 3890SOL     OW11958   1.937   4.069   1.895
 3890SOL    HW111959   1.845   4.041   1.866
 3890SOL    HW211960   1.968   4.146   1.839
 3891SOL     OW11961   3.302   4.580   3.260
 3891SOL    HW111962   3.245   4.632   3.197
 3891SOL    HW211963   3.398   4.592   3.236
 3892SOL     OW11964   1.934   3.890   2.180
 3892SOL    HW111965   1.917   3.973   2.126
 3892SOL    HW211966   2.024   3.853   2.158
 3893SOL     OW11967   3.045   5.059   1.981
 3893SOL    HW111968   2.946   5.048   1.983
 3893SOL    HW211969   3.079   5.074   2.074
 3894SOL     OW11970   2.475   4.566   3.293
 3894SOL    HW111971   2.531   4.647   3.276
 3894SOL    HW211972   2.534   4.486   3.296
 3895SOL     OW11973   3.355   5.491   2.821
 3895SOL    HW111974   3.388   5.555   2.752
 3895SOL    HW211975   3.421   5.485   2.896
 3896SOL     OW11976   2.578   4.289   3.570
 3896SOL    HW111977   2.597   4.354   3.644
 3896SOL    HW211978   2.638   4.209   3.579
 3897SOL     OW11979   3.312   4.944   3.495
 3897SOL    HW111980   3.303   4.934   3.594
 3897SOL    HW211981   3.408   4.937   3.469
 3898SOL     OW11982   2.252   5.465   3.422
 3898SOL    HW111983   2.161   5.506   3.420
 3898SOL    HW211984   2.245   5.371   3.454
 3899SOL     OW11985   3.536   4.607   3.116
 3899SOL    HW111986   3.509   4.518   3.079
 3899SOL    HW211987   3.537   4.675   3.043
 3900SOL     OW11988   3.087   4.049   2.311
 3900SOL    HW111989   3.152   3.975   2.300
 3900SOL    HW211990   3.107   4.099   2.395
 3901SOL     OW11991   2.456   4.469   2.514
 3901SOL    HW111992   2.506   4.554   2.495
 3901SOL    HW211993   2.368   4.471   2.466
 3902SOL     OW11994   3.639   4.066   3.504
 3902SOL    HW111995   3.622   4.097   3.410
 3902SOL    HW211996   3.555   4.029   3.542
 3903SOL     OW11997   3.592   4.658   3.379
 3903SOL    HW111998   3.630   4.749   3.394
 3903SOL    HW211999   3.584   4.641   3.280
 3904SOL     OW12000   2.721   5.098   1.878
 3904SOL    HW112001   2.675   5.113   1.966
 3904SOL    HW212002   2.765   5.183   1.848
 3905SOL     OW12003   2.523   5.514   2.815
 3905SOL    HW112004   2.477   5.602   2.802
 3905SOL    HW212005   2.622   5.526   2.808
 3906SOL     OW12006   2.721   4.680   2.723
 3906SOL    HW112007   2.775   4.611   2.771
 3906SOL    HW212008   2.689   4.749   2.789
 3907SOL     OW12009   2.945   4.708   1.949
 3907SOL    HW112010   2.922   4.761   1.867
 3907SOL    HW212011   3.026   4.652   1.930
 3908SOL     OW12012   3.723   5.293   2.713
 3908SOL    HW112013   3.652   5.281   2.643
 3908SOL    HW212014   3.724   5.214   2.773
 3909SOL     OW12015   2.083   5.038   3.706
 3909SOL    HW112016   2.018   4.965   3.685
 3909SOL    HW212017   2.087   5.052   3.804
 3910SOL     OW12018   1.941   4.964   2.515
 3910SOL    HW112019   1.940   4.917   2.603
 3910SOL    HW212020   2.023   4.936   2.464
 3911SOL     OW12021   2.534   5.115   3.486
 3911SOL    HW112022   2.456   5.065   3.524
 3911SOL    HW212023   2.531   5.210   3.517
 3912SOL     OW12024   3.686   3.916   3.089
 3912SOL    HW112025   3.682   3.826   3.133
 3912SOL    HW212026   3.689   3.905   2.990
 3913SOL     OW12027   2.290   4.148   2.382
 3913SOL    HW112028   2.320   4.076   2.320
 3913SOL    HW212029   2.251   4.108   2.465
 3914SOL     OW12030   3.567   5.211   2.966
 3914SOL    HW112031   3.474   5.186   2.939
 3914SOL    HW212032   3.593   5.161   3.048
 3915SOL     OW12033   2.179   4.271   3.142
 3915SOL    HW112034   2.217   4.212   3.214
 3915SOL    HW212035   2.219   4.245   3.054
 3916SOL     OW12036   2.674   5.310   2.549
 3916SOL    HW112037   2.706   5.320   2.455
 3916SOL    HW212038   2.595   5.248   2.551
 3917SOL     OW12039   3.286   3.938   2.974
 3917SOL    HW112040   3.338   3.873   3.029
 3917SOL    HW212041   3.237   4.001   3.035
 3918SOL     OW12042   2.863   3.758   3.016
 3918SOL    HW112043   2.800   3.686   2.985
 3918SOL    HW212044   2.956   3.722   3.016
 3919SOL     OW12045   2.632   5.054   2.163
 3919SOL    HW112046   2.586   4.967   2.180
 3919SOL    HW212047   2.723   5.051   2.204
 3920SOL     OW12048   2.480   5.291   3.146
 3920SOL    HW112049   2.475   5.373   3.203
 3920SOL    HW212050   2.569   5.288   3.101
 3921SOL     OW12051   3.214   3.776   2.030
 3921SOL    HW112052   3.249   3.735   1.946
 3921SOL    HW212053   3.124   3.738   2.050
 3922SOL     OW12054   3.162   4.177   2.553
 3922SOL    HW112055   3.103   4.257   2.557
 3922SOL    HW212056   3.177   4.142   2.646
 3923SOL     OW12057   3.455   3.945   2.744
 3923SOL    HW112058   3.371   3.944   2.798
 3923SOL    HW212059   3.457   4.028   2.688
 3924SOL     OW12060   1.901   4.801   2.162
 3924SOL    HW112061   2.000   4.790   2.153
 3924SOL    HW212062   1.861   4.715   2.194
 3925SOL     OW12063   2.737   5.370   2.199
 3925SOL    HW112064   2.660   5.335   2.145
 3925SOL    HW212065   2.705   5.441   2.261
 3926SOL     OW12066   2.092   4.352   3.837
 3926SOL    HW112067   1.999   4.350   3.874
 3926SOL    HW212068   2.093   4.313   3.745
 3927SOL     OW12069   2.087   3.999   4.720
 3927SOL    HW112070   2.122   3.982   4.812
 3927SOL    HW212071   1.999   3.954   4.708
 3928SOL     OW12072   1.881   4.092   4.371
 3928SOL    HW112073   1.799   4.135   4.410
 3928SOL    HW212074   1.853   4.019   4.308
 3929SOL     OW12075   2.431   4.999   4.889
 3929SOL    HW112076   2.338   4.992   4.852
 3929SOL    HW212077   2.442   5.088   4.933
 3930SOL     OW12078   3.417   5.235   4.427
 3930SOL    HW112079   3.360   5.219   4.508
 3930SOL    HW212080   3.358   5.245   4.347
 3931SOL     OW12081   2.997   4.427   4.441
 3931SOL    HW112082   3.054   4.505   4.416
 3931SOL    HW212083   2.937   4.453   4.517
 3932SOL     OW12084   3.617   4.331   3.955
 3932SOL    HW112085   3.605   4.318   3.856
 3932SOL    HW212086   3.587   4.250   4.004
 3933SOL     OW12087   2.630   4.868   4.747
 3933SOL    HW112088   2.552   4.885   4.807
 3933SOL    HW212089   2.664   4.955   4.711
 3934SOL     OW12090   2.712   4.522   5.547
 3934SOL    HW112091   2.708   4.598   5.612
 3934SOL    HW212092   2.734   4.558   5.456
 3935SOL     OW12093   2.547   4.736   4.389
 3935SOL    HW112094   2.616   4.720   4.459
 3935SOL    HW212095   2.474   4.793   4.427
 3936SOL     OW12096   2.548   4.885   5.527
 3936SOL    HW112097   2.608   4.964   5.541
 3936SOL    HW212098   2.462   4.916   5.486
 3937SOL     OW12099   2.197   5.159   4.785
 3937SOL    HW112100   2.119   5.128   4.732
 3937SOL    HW212101   2.255   5.217   4.728
 3938SOL     OW12102   3.322   5.229   5.063
 3938SOL    HW112103   3.346   5.323   5.089
 3938SOL    HW212104   3.306   5.175   5.145
 3939SOL     OW12105   2.300   4.116   5.223
 3939SOL    HW112106   2.382   4.060   5.232
 3939SOL    HW212107   2.219   4.058   5.227
 3940SOL     OW12108   3.465   4.171   4.461
 3940SOL    HW112109   3.391   4.217   4.411
 3940SOL    HW212110   3.516   4.239   4.514
 3941SOL     OW12111   2.093   5.437   4.207
 3941SOL    HW112112   2.127   5.514   4.261
 3941SOL    HW212113   2.137   5.437   4.117
 3942SOL     OW12114   2.989   5.065   5.414
 3942SOL    HW112115   3.036   5.065   5.502
 3942SOL    HW212116   2.941   4.978   5.403
 3943SOL     OW12117   2.092   5.158   4.262
 3943SOL    HW112118   2.066   5.254   4.262
 3943SOL    HW212119   2.021   5.104   4.307
 3944SOL     OW12120   2.102   4.815   4.610
 3944SOL    HW112121   2.116   4.731   4.662
 3944SOL    HW212122   2.047   4.879   4.665
 3945SOL     OW12123   2.482   5.510   5.163
 3945SOL    HW112124   2.390   5.493   5.198
 3945SOL    HW212125   2.510   5.602   5.189
 3946SOL     OW12126   2.468   4.688   3.847
 3946SOL    HW112127   2.475   4.772   3.793
 3946SOL    HW212128   2.514   4.701   3.935
 3947SOL     OW12129   3.456   3.838   5.204
 3947SOL    HW112130   3.438   3.905   5.132
 3947SOL    HW212131   3.453   3.884   5.293
 3948SOL     OW12132   1.984   4.367   4.287
 3948SOL    HW112133   1.939   4.279   4.304
 3948SOL    HW212134   1.983   4.421   4.371
 3949SOL     OW12135   3.704   5.491   4.083
 3949SOL    HW112136   3.758   5.462   4.163
 3949SOL    HW212137   3.734   5.581   4.054
 3950SOL     OW12138   1.889   5.320   3.841
 3950SOL    HW112139   1.870   5.224   3.862
 3950SOL    HW212140   1.856   5.378   3.916
 3951SOL     OW12141   3.551   4.646   4.336
 3951SOL    HW112142   3.646   4.617   4.344
 3951SOL    HW212143   3.543   4.711   4.261
 3952SOL     OW12144   3.503   4.832   4.156
 3952SOL    HW112145   3.589   4.834   4.104
 3952SOL    HW212146   3.517   4.879   4.244
 3953SOL     OW12147   1.975   4.461   5.321
 3953SOL    HW112148   2.063   4.448   5.366
 3953SOL    HW212149   1.962   4.558   5.299
 3954SOL     OW12150   2.475   5.089   4.450
 3954SOL    HW112151   2.426   5.002   4.459
 3954SOL    HW212152   2.452   5.132   4.363
 3955SOL     OW12153   3.155   4.952   5.147
 3955SOL    HW112154   3.192   4.879   5.089
 3955SOL    HW212155   3.207   4.957   5.232
 3956SOL     OW12156   2.671   3.728   4.226
 3956SOL    HW112157   2.711   3.819   4.217
 3956SOL    HW212158   2.571   3.736   4.232
 3957SOL     OW12159   2.059   4.700   4.988
 3957SOL    HW112160   2.148   4.655   4.974
 3957SOL    HW212161   1.986   4.635   4.969
 3958SOL     OW12162   3.387   4.723   3.914
 3958SOL    HW112163   3.324   4.647   3.927
 3958SOL    HW212164   3.435   4.741   4.000
 3959SOL     OW12165   3.049   5.516   5.340
 3959SOL    HW112166   3.073   5.576   5.264
 3959SOL    HW212167   3.056   5.421   5.310
 3960SOL     OW12168   2.179   3.975   5.525
 3960SOL    HW112169   2.250   4.046   5.531
 3960SOL    HW212170   2.091   4.014   5.553
 3961SOL     OW12171   3.328   5.141   4.677
 3961SOL    HW112172   3.269   5.147   4.757
 3961SOL    HW212173   3.313   5.053   4.631
 3962SOL     OW12174   3.529   5.438   4.296
 3962SOL    HW112175   3.488   5.415   4.208
 3962SOL    HW212176   3.511   5.364   4.361
 3963SOL     OW12177   2.460   4.453   3.994
 3963SOL    HW112178   2.484   4.522   3.926
 3963SOL    HW212179   2.382   4.486   4.048
 3964SOL     OW12180   3.143   4.069   4.668
 3964SOL    HW112181   3.057   4.019   4.655
 3964SOL    HW212182   3.205   4.015   4.724
 3965SOL     OW12183   3.438   5.386   4.031
 3965SOL    HW112184   3.527   5.432   4.034
 3965SOL    HW212185   3.417   5.362   3.936
 3966SOL     OW12186   2.669   4.329   5.189
 3966SOL    HW112187   2.622   4.326   5.278
 3966SOL    HW212188   2.618   4.274   5.123
 3967SOL     OW12189   3.256   4.193   5.398
 3967SOL    HW112190   3.236   4.236   5.486
 3967SOL    HW212191   3.334   4.131   5.407
 3968SOL     OW12192   2.835   4.614   5.296
 3968SOL    HW112193   2.881   4.530   5.267
 3968SOL    HW212194   2.779   4.648   5.221
 3969SOL     OW12195   2.853   4.134   4.966
 3969SOL    HW112196   2.776   4.168   5.020
 3969SOL    HW212197   2.819   4.083   4.887
 3970SOL     OW12198   2.903   4.425   4.153
 3970SOL    HW112199   2.929   4.421   4.249
 3970SOL    HW212200   2.818   4.374   4.139
 3971SOL     OW12201   1.938   4.535   4.513
 3971SOL    HW112202   2.037   4.523   4.522
 3971SOL    HW212203   1.914   4.630   4.534
 3972SOL     OW12204   1.992   5.545   5.295
 3972SOL    HW112205   1.982   5.530   5.394
 3972SOL    HW212206   1.906   5.581   5.259
 3973SOL     OW12207   2.727   4.072   3.919
 3973SOL    HW112208   2.786   4.135   3.870
 3973SOL    HW212209   2.746   3.978   3.890
 3974SOL     OW12210   3.581   4.309   5.555
 3974SOL    HW112211   3.555   4.398   5.519
 3974SOL    HW212212   3.579   4.241   5.482
 3975SOL     OW12213   3.224   4.868   4.269
 3975SOL    HW112214   3.307   4.839   4.221
 3975SOL    HW212215   3.175   4.935   4.213
 3976SOL     OW12216   2.412   3.920   4.609
 3976SOL    HW112217   2.407   3.915   4.709
 3976SOL    HW212218   2.414   4.016   4.580
 3977SOL     OW12219   2.870   5.180   4.201
 3977SOL    HW112220   2.824   5.252   4.149
 3977SOL    HW212221   2.866   5.200   4.299
 3978SOL     OW12222   2.213   5.525   4.577
 3978SOL    HW112223   2.263   5.439   4.583
 3978SOL    HW212224   2.278   5.602   4.574
 3979SOL     OW12225   3.657   4.790   4.597
 3979SOL    HW112226   3.595   4.775   4.521
 3979SOL    HW212227   3.605   4.801   4.682
 3980SOL     OW12228   3.089   5.274   5.230
 3980SOL    HW112229   3.095   5.197   5.294
 3980SOL    HW212230   3.037   5.248   5.150
 3981SOL     OW12231   2.183   4.667   3.966
 3981SOL    HW112232   2.265   4.706   3.924
 3981SOL    HW212233   2.156   4.585   3.917
 3982SOL     OW12234   3.320   4.459   4.452
 3982SOL    HW112235   3.315   4.394   4.527
 3982SOL    HW212236   3.400   4.518   4.465
 3983SOL     OW12237   2.323   4.990   5.451
 3983SOL    HW112238   2.273   4.991   5.365
 3983SOL    HW212239   2.260   4.972   5.527
 3984SOL     OW12240   2.973   5.500   3.961
 3984SOL    HW112241   2.913   5.438   4.011
 3984SOL    HW212242   3.004   5.456   3.876
 3985SOL     OW12243   2.064   4.009   5.222
 3985SOL    HW112244   1.984   4.069   5.209
 3985SOL    HW212245   2.054   3.960   5.308
 3986SOL     OW12246   3.494   5.101   3.805
 3986SOL    HW112247   3.462   5.195   3.795
 3986SOL    HW212248   3.418   5.038   3.793
 3987SOL     OW12249   2.326   5.467   4.047
 3987SOL    HW112250   2.359   5.506   4.133
 3987SOL    HW212251   2.402   5.460   3.982
 3988SOL     OW12252   3.262   3.831   4.150
 3988SOL    HW112253   3.238   3.794   4.060
 3988SOL    HW212254   3.361   3.847   4.154
 3989SOL     OW12255   2.111   5.509   4.965
 3989SOL    HW112256   2.168   5.444   5.015
 3989SOL    HW212257   2.095   5.476   4.872
 3990SOL     OW12258   2.802   5.422   4.628
 3990SOL    HW112259   2.882   5.365   4.649
 3990SOL    HW212260   2.753   5.382   4.551
 3991SOL     OW12261   2.244   4.424   4.204
 3991SOL    HW112262   2.289   4.334   4.201
 3991SOL    HW212263   2.150   4.413   4.237
 3992SOL     OW12264   3.409   3.946   5.453
 3992SOL    HW112265   3.404   3.983   5.545
 3992SOL    HW212266   3.337   3.877   5.441
 3993SOL     OW12267   2.476   3.846   3.841
 3993SOL    HW112268   2.574   3.824   3.848
 3993SOL    HW212269   2.445   3.829   3.748
 3994SOL     OW12270   2.643   3.988   5.473
 3994SOL    HW112271   2.710   3.927   5.516
 3994SOL    HW212272   2.570   4.007   5.538
 3995SOL     OW12273   2.750   5.238   4.919
 3995SOL    HW112274   2.727   5.213   4.825
 3995SOL    HW212275   2.811   5.169   4.958
 3996SOL     OW12276   3.213   4.314   5.157
 3996SOL    HW112277   3.241   4.271   5.242
 3996SOL    HW212278   3.238   4.410   5.158
 3997SOL     OW12279   2.665   5.126   4.648
 3997SOL    HW112280   2.755   5.140   4.606
 3997SOL    HW212281   2.594   5.128   4.577
 3998SOL     OW12282   2.784   4.227   4.623
 3998SOL    HW112283   2.759   4.218   4.527
 3998SOL    HW212284   2.832   4.145   4.654
 3999SOL     OW12285   2.401   3.788   4.236
 3999SOL    HW112286   2.320   3.789   4.294
 3999SOL    HW212287   2.404   3.871   4.181
 4000SOL     OW12288   3.296   4.912   3.765
 4000SOL    HW112289   3.328   4.836   3.822
 4000SOL    HW212290   3.204   4.939   3.795
 4001SOL     OW12291   2.159   3.759   3.895
 4001SOL    HW112292   2.208   3.843   3.874
 4001SOL    HW212293   2.221   3.694   3.940
 4002SOL     OW12294   2.797   3.960   4.204
 4002SOL    HW112295   2.749   4.001   4.126
 4002SOL    HW212296   2.896   3.958   4.185
 4003SOL     OW12297   2.938   4.407   5.188
 4003SOL    HW112298   2.858   4.346   5.191
 4003SOL    HW212299   3.019   4.354   5.164
 4004SOL     OW12300   3.089   5.294   4.517
 4004SOL    HW112301   3.110   5.368   4.452
 4004SOL    HW212302   3.157   5.294   4.590
 4005SOL     OW12303   2.321   4.876   4.465
 4005SOL    HW112304   2.250   4.849   4.530
 4005SOL    HW212305   2.295   4.848   4.372
 4006SOL     OW12306   3.133   5.521   4.315
 4006SOL    HW112307   3.177   5.585   4.251
 4006SOL    HW212308   3.083   5.573   4.385
 4007SOL     OW12309   2.894   4.273   3.740
 4007SOL    HW112310   2.853   4.355   3.701
 4007SOL    HW212311   2.958   4.299   3.813
 4008SOL     OW12312   1.940   4.280   5.110
 4008SOL    HW112313   2.032   4.279   5.069
 4008SOL    HW212314   1.934   4.354   5.177
 4009SOL     OW12315   2.423   3.946   4.871
 4009SOL    HW112316   2.461   3.862   4.908
 4009SOL    HW212317   2.335   3.965   4.915
 4010SOL     OW12318   2.728   4.178   4.366
 4010SOL    HW112319   2.696   4.250   4.304
 4010SOL    HW212320   2.752   4.097   4.313
 4011SOL     OW12321   2.879   3.763   4.477
 4011SOL    HW112322   2.807   3.768   4.408
 4011SOL    HW212323   2.855   3.694   4.546
 4012SOL     OW12324   3.291   4.897   4.591
 4012SOL    HW112325   3.236   4.813   4.584
 4012SOL    HW212326   3.317   4.926   4.499
 4013SOL     OW12327   3.328   4.314   4.716
 4013SOL    HW112328   3.298   4.219   4.723
 4013SOL    HW212329   3.401   4.330   4.782
 4014SOL     OW12330   3.719   4.557   4.101
 4014SOL    HW112331   3.761   4.493   4.165
 4014SOL    HW212332   3.681   4.506   4.023
 4015SOL     OW12333   2.350   5.109   3.898
 4015SOL    HW112334   2.263   5.094   3.945
 4015SOL    HW212335   2.333   5.135   3.803
 4016SOL     OW12336   3.526   5.004   4.381
 4016SOL    HW112337   3.625   5.012   4.395
 4016SOL    HW212338   3.481   5.088   4.412
 4017SOL     OW12339   3.252   4.299   3.802
 4017SOL    HW112340   3.198   4.278   3.883
 4017SOL    HW212341   3.343   4.258   3.811
 4018SOL     OW12342   2.389   3.980   4.052
 4018SOL    HW112343   2.416   3.921   3.977
 4018SOL    HW212344   2.389   4.075   4.021
 4019SOL     OW12345   3.616   4.947   5.312
 4019SOL    HW112346   3.707   4.908   5.299
 4019SOL    HW212347   3.624   5.043   5.336
 4020SOL     OW12348   2.926   5.071   5.064
 4020SOL    HW112349   2.846   5.048   5.119
 4020SOL    HW212350   3.009   5.045   5.113
 4021SOL     OW12351   3.454   5.353   5.349
 4021SOL    HW112352   3.481   5.387   5.259
 4021SOL    HW212353   3.533   5.315   5.395
 4022SOL     OW12354   2.973   4.919   4.824
 4022SOL    HW112355   2.933   4.963   4.905
 4022SOL    HW212356   2.932   4.956   4.741
 4023SOL     OW12357   3.500   4.823   4.803
 4023SOL    HW112358   3.505   4.904   4.862
 4023SOL    HW212359   3.414   4.825   4.752
 4024SOL     OW12360   2.777   3.813   5.126
 4024SOL    HW112361   2.802   3.793   5.031
 4024SOL    HW212362   2.849   3.869   5.168
 4025SOL     OW12363   2.842   4.840   5.443
 4025SOL    HW112364   2.743   4.846   5.453
 4025SOL    HW212365   2.865   4.760   5.387
 4026SOL     OW12366   2.567   4.774   4.092
 4026SOL    HW112367   2.553   4.781   4.191
 4026SOL    HW212368   2.651   4.723   4.074
 4027SOL     OW12369   2.272   4.537   4.975
 4027SOL    HW112370   2.358   4.549   5.025
 4027SOL    HW212371   2.230   4.450   5.002
 4028SOL     OW12372   3.136   4.110   4.986
 4028SOL    HW112373   3.157   4.184   5.050
 4028SOL    HW212374   3.047   4.127   4.943
 4029SOL     OW12375   1.926   5.288   5.055
 4029SOL    HW112376   1.880   5.370   5.021
 4029SOL    HW212377   2.024   5.307   5.064
 4030SOL     OW12378   2.229   4.824   4.225
 4030SOL    HW112379   2.222   4.907   4.169
 4030SOL    HW212380   2.233   4.744   4.165
 4031SOL     OW12381   2.428   4.261   4.589
 4031SOL    HW112382   2.440   4.327   4.515
 4031SOL    HW212383   2.474   4.295   4.672
 4032SOL     OW12384   3.114   5.072   4.112
 4032SOL    HW112385   3.164   5.149   4.152
 4032SOL    HW212386   3.019   5.074   4.144
 4033SOL     OW12387   3.134   5.169   4.866
 4033SOL    HW112388   3.181   5.182   4.953
 4033SOL    HW212389   3.068   5.095   4.875
 4034SOL     OW12390   3.444   4.363   4.196
 4034SOL    HW112391   3.413   4.424   4.269
 4034SOL    HW212392   3.494   4.415   4.127
 4035SOL     OW12393   2.216   5.234   5.053
 4035SOL    HW112394   2.195   5.190   4.966
 4035SOL    HW212395   2.313   5.260   5.056
 4036SOL     OW12396   2.264   4.475   5.322
 4036SOL    HW112397   2.332   4.530   5.275
 4036SOL    HW212398   2.304   4.387   5.349
 4037SOL     OW12399   3.449   4.503   5.394
 4037SOL    HW112400   3.357   4.541   5.389
 4037SOL    HW212401   3.509   4.550   5.329
 4038SOL     OW12402   2.875   3.829   5.494
 4038SOL    HW112403   2.881   3.914   5.442
 4038SOL    HW212404   2.907   3.753   5.437
 4039SOL     OW12405   2.366   3.774   5.464
 4039SOL    HW112406   2.324   3.717   5.394
 4039SOL    HW212407   2.300   3.843   5.496
 4040SOL     OW12408   2.435   4.594   4.753
 4040SOL    HW112409   2.479   4.683   4.744
 4040SOL    HW212410   2.372   4.594   4.830
 4041SOL     OW12411   3.222   4.586   4.769
 4041SOL    HW112412   3.147   4.586   4.703
 4041SOL    HW212413   3.259   4.494   4.778
 4042SOL     OW12414   3.071   4.249   3.999
 4042SOL    HW112415   3.084   4.165   4.053
 4042SOL    HW212416   3.042   4.323   4.059
 4043SOL     OW12417   2.169   3.937   4.955
 4043SOL    HW112418   2.146   3.974   5.045
 4043SOL    HW212419   2.139   3.842   4.949
 4044SOL     OW12420   1.899   5.034   5.006
 4044SOL    HW112421   1.952   4.985   5.074
 4044SOL    HW212422   1.921   5.132   5.011
 4045SOL     OW12423   2.594   4.358   4.788
 4045SOL    HW112424   2.653   4.332   4.712
 4045SOL    HW212425   2.566   4.454   4.777
 4046SOL     OW12426   3.590   4.659   5.578
 4046SOL    HW112427   3.544   4.652   5.489
 4046SOL    HW212428   3.528   4.703   5.644
 4047SOL     OW12429   2.169   3.787   4.342
 4047SOL    HW112430   2.158   3.881   4.375
 4047SOL    HW212431   2.164   3.724   4.419
 4048SOL     OW12432   3.484   4.091   4.098
 4048SOL    HW112433   3.486   4.015   4.162
 4048SOL    HW212434   3.436   4.168   4.138
 4049SOL     OW12435   2.885   4.490   4.690
 4049SOL    HW112436   2.900   4.511   4.786
 4049SOL    HW212437   2.855   4.395   4.681
 4050SOL     OW12438   2.842   5.297   5.424
 4050SOL    HW112439   2.822   5.341   5.336
 4050SOL    HW212440   2.881   5.206   5.408
 4051SOL     OW12441   3.721   5.242   5.329
 4051SOL    HW112442   3.735   5.269   5.234
 4051SOL    HW212443   3.804   5.264   5.382
 4052SOL     OW12444   2.212   4.622   5.528
 4052SOL    HW112445   2.288   4.666   5.576
 4052SOL    HW212446   2.247   4.575   5.446
 4053SOL     OW12447   3.402   3.998   3.849
 4053SOL    HW112448   3.341   3.923   3.872
 4053SOL    HW212449   3.424   4.050   3.932
 4054SOL     OW12450   3.165   4.562   3.766
 4054SOL    HW112451   3.199   4.469   3.781
 4054SOL    HW212452   3.183   4.589   3.671
 4055SOL     OW12453   2.930   5.057   4.573
 4055SOL    HW112454   2.937   4.973   4.518
 4055SOL    HW212455   2.992   5.126   4.537
 4056SOL     OW12456   2.181   4.534   4.673
 4056SOL    HW112457   2.274   4.570   4.678
 4056SOL    HW212458   2.175   4.449   4.725
 4057SOL     OW12459   2.201   4.233   4.730
 4057SOL    HW112460   2.149   4.150   4.713
 4057SOL    HW212461   2.278   4.238   4.666
 4058SOL     OW12462   3.000   4.104   5.402
 4058SOL    HW112463   2.955   4.167   5.466
 4058SOL    HW212464   3.093   4.135   5.385
 4059SOL     OW12465   3.022   3.931   5.201
 4059SOL    HW112466   3.022   3.995   5.278
 4059SOL    HW212467   3.050   3.979   5.118
 4060SOL     OW12468   1.870   5.050   3.924
 4060SOL    HW112469   1.777   5.071   3.893
 4060SOL    HW212470   1.880   4.951   3.937
 4061SOL     OW12471   1.950   5.525   4.651
 4061SOL    HW112472   1.908   5.439   4.624
 4061SOL    HW212473   2.044   5.528   4.617
 4062SOL     OW12474   2.366   5.292   4.634
 4062SOL    HW112475   2.432   5.366   4.643
 4062SOL    HW212476   2.410   5.213   4.592
 4063SOL     OW12477   2.864   4.520   4.962
 4063SOL    HW112478   2.905   4.488   5.048
 4063SOL    HW212479   2.768   4.493   4.959
 4064SOL     OW12480   1.902   4.268   4.838
 4064SOL    HW112481   1.987   4.235   4.797
 4064SOL    HW212482   1.915   4.283   4.936
 4065SOL     OW12483   2.051   4.244   5.446
 4065SOL    HW112484   2.110   4.204   5.376
 4065SOL    HW212485   1.993   4.315   5.405
 4066SOL     OW12486   3.231   4.674   5.384
 4066SOL    HW112487   3.270   4.763   5.404
 4066SOL    HW212488   3.241   4.654   5.287
 4067SOL     OW12489   2.677   4.296   4.049
 4067SOL    HW112490   2.684   4.207   4.003
 4067SOL    HW212491   2.583   4.330   4.041
 4068SOL     OW12492   3.519   4.328   4.930
 4068SOL    HW112493   3.481   4.259   4.992
 4068SOL    HW212494   3.601   4.292   4.886
 4069SOL     OW12495   2.114   5.288   5.468
 4069SOL    HW112496   2.084   5.345   5.544
 4069SOL    HW212497   2.107   5.191   5.494
 4070SOL     OW12498   2.533   4.188   4.993
 4070SOL    HW112499   2.499   4.099   4.963
 4070SOL    HW212500   2.559   4.242   4.913
 4071SOL     OW12501   2.792   5.402   5.189
 4071SOL    HW112502   2.768   5.384   5.094
 4071SOL    HW212503   2.822   5.496   5.199
 4072SOL     OW12504   2.335   4.224   3.915
 4072SOL    HW112505   2.396   4.304   3.919
 4072SOL    HW212506   2.240   4.255   3.922
 4073SOL     OW12507   2.021   4.861   5.190
 4073SOL    HW112508   2.043   4.800   5.266
 4073SOL    HW212509   2.031   4.812   5.104
 4074SOL     OW12510   3.209   4.783   4.958
 4074SOL    HW112511   3.233   4.720   4.884
 4074SOL    HW212512   3.119   4.823   4.940
 4075SOL     OW12513   3.164   4.579   4.033
 4075SOL    HW112514   3.078   4.548   4.075
 4075SOL    HW212515   3.160   4.565   3.934
 4076SOL     OW12516   3.621   5.471   4.878
 4076SOL    HW112517   3.682   5.501   4.805
 4076SOL    HW212518   3.583   5.382   4.856
 4077SOL     OW12519   3.114   5.455   4.852
 4077SOL    HW112520   3.198   5.460   4.798
 4077SOL    HW212521   3.091   5.359   4.870
 4078SOL     OW12522   1.945   4.982   4.746
 4078SOL    HW112523   1.940   4.981   4.846
 4078SOL    HW212524   1.862   4.941   4.708
 4079SOL     OW12525   2.550   5.386   5.440
 4079SOL    HW112526   2.494   5.467   5.449
 4079SOL    HW212527   2.602   5.390   5.354
 4080SOL     OW12528   3.588   3.859   4.247
 4080SOL    HW112529   3.661   3.842   4.180
 4080SOL    HW212530   3.557   3.772   4.285
 4081SOL     OW12531   3.250   5.297   4.201
 4081SOL    HW112532   3.317   5.309   4.127
 4081SOL    HW212533   3.210   5.386   4.224
 4082SOL     OW12534   1.992   5.518   5.575
 4082SOL    HW112535   1.951   5.444   5.628
 4082SOL    HW212536   2.056   5.569   5.633
 4083SOL     OW12537   3.142   4.651   4.396
 4083SOL    HW112538   3.202   4.570   4.398
 4083SOL    HW212539   3.182   4.720   4.336
 4084SOL     OW12540   2.692   4.997   5.146
 4084SOL    HW112541   2.687   5.030   5.241
 4084SOL    HW212542   2.606   5.016   5.100
 4085SOL     OW12543   2.534   5.340   3.878
 4085SOL    HW112544   2.543   5.350   3.779
 4085SOL    HW212545   2.494   5.251   3.899
 4086SOL     OW12546   3.512   5.444   5.118
 4086SOL    HW112547   3.565   5.454   5.034
 4086SOL    HW212548   3.485   5.534   5.152
 4087SOL     OW12549   3.703   3.899   4.687
 4087SOL    HW112550   3.742   3.814   4.651
 4087SOL    HW212551   3.605   3.901   4.668
 4088SOL     OW12552   2.125   4.050   4.444
 4088SOL    HW112553   2.046   4.101   4.410
 4088SOL    HW212554   2.116   4.035   4.542
 4089SOL     OW12555   3.056   5.336   3.755
 4089SOL    HW112556   3.062   5.243   3.792
 4089SOL    HW212557   2.997   5.336   3.675
 4090SOL     OW12558   2.684   4.726   5.096
 4090SOL    HW112559   2.724   4.725   5.004
 4090SOL    HW212560   2.694   4.818   5.136
 4091SOL     OW12561   2.778   4.634   4.015
 4091SOL    HW112562   2.841   4.672   3.947
 4091SOL    HW212563   2.818   4.551   4.054
 4092SOL     OW12564   3.366   5.331   3.768
 4092SOL    HW112565   3.274   5.368   3.775
 4092SOL    HW212566   3.404   5.351   3.678
 4093SOL     OW12567   2.234   5.012   5.214
 4093SOL    HW112568   2.221   5.105   5.180
 4093SOL    HW212569   2.150   4.960   5.201
 4094SOL     OW12570   3.476   5.016   5.013
 4094SOL    HW112571   3.536   5.019   5.093
 4094SOL    HW212572   3.401   5.080   5.026
 4095SOL     OW12573   2.901   4.822   4.420
 4095SOL    HW112574   2.831   4.775   4.474
 4095SOL    HW212575   2.960   4.754   4.377
 4096SOL     OW12576   2.876   3.960   4.695
 4096SOL    HW112577   2.868   3.924   4.602
 4096SOL    HW212578   2.874   3.884   4.760
 4097SOL     OW12579   2.452   5.211   4.215
 4097SOL    HW112580   2.494   5.153   4.145
 4097SOL    HW212581   2.408   5.290   4.171
 4098SOL     OW12582   3.571   4.109   5.105
 4098SOL    HW112583   3.644   4.178   5.109
 4098SOL    HW212584   3.599   4.034   5.046
 4099SOL     OW12585   2.117   5.072   4.014
 4099SOL    HW112586   2.021   5.073   3.987
 4099SOL    HW212587   2.129   5.125   4.098
 4100SOL     OW12588   1.967   4.737   5.450
 4100SOL    HW112589   1.890   4.704   5.504
 4100SOL    HW212590   2.052   4.707   5.492
 4101SOL     OW12591   2.534   3.927   5.213
 4101SOL    HW112592   2.624   3.911   5.173
 4101SOL    HW212593   2.542   3.932   5.312
 4102SOL     OW12594   1.937   4.069   3.757
 4102SOL    HW112595   1.845   4.041   3.728
 4102SOL    HW212596   1.968   4.146   3.701
 4103SOL     OW12597   3.302   4.580   5.122
 4103SOL    HW112598   3.245   4.632   5.059
 4103SOL    HW212599   3.398   4.592   5.098
 4104SOL     OW12600   1.934   3.890   4.042
 4104SOL    HW112601   1.917   3.973   3.988
 4104SOL    HW212602   2.024   3.853   4.020
 4105SOL     OW12603   3.045   5.059   3.843
 4105SOL    HW112604   2.946   5.048   3.845
 4105SOL    HW212605   3.079   5.074   3.936
 4106SOL     OW12606   2.475   4.566   5.155
 4106SOL    HW112607   2.531   4.647   5.138
 4106SOL    HW212608   2.534   4.486   5.158
 4107SOL     OW12609   3.355   5.491   4.683
 4107SOL    HW112610   3.388   5.555   4.614
 4107SOL    HW212611   3.421   5.485   4.758
 4108SOL     OW12612   2.578   4.289   5.432
 4108SOL    HW112613   2.597   4.354   5.506
 4108SOL    HW212614   2.638   4.209   5.441
 4109SOL     OW12615   3.312   4.944   5.357
 4109SOL    HW112616   3.303   4.934   5.456
 4109SOL    HW212617   3.408   4.937   5.331
 4110SOL     OW12618   2.252   5.465   5.284
 4110SOL    HW112619   2.161   5.506   5.282
 4110SOL    HW212620   2.245   5.371   5.316
 4111SOL     OW12621   3.536   4.607   4.978
 4111SOL    HW112622   3.509   4.518   4.941
 4111SOL    HW212623   3.537   4.675   4.905
 4112SOL     OW12624   3.087   4.049   4.173
 4112SOL    HW112625   3.152   3.975   4.162
 4112SOL    HW212626   3.107   4.099   4.257
 4113SOL     OW12627   2.456   4.469   4.376
 4113SOL    HW112628   2.506   4.554   4.357
 4113SOL    HW212629   2.368   4.471   4.328
 4114SOL     OW12630   3.639   4.066   5.366
 4114SOL    HW112631   3.622   4.097   5.272
 4114SOL    HW212632   3.555   4.029   5.404
 4115SOL     OW12633   3.592   4.658   5.241
 4115SOL    HW112634   3.630   4.749   5.256
 4115SOL    HW212635   3.584   4.641   5.142
 4116SOL     OW12636   2.721   5.098   3.740
 4116SOL    HW112637   2.675   5.113   3.828
 4116SOL    HW212638   2.765   5.183   3.710
 4117SOL     OW12639   2.523   5.514   4.677
 4117SOL    HW112640   2.477   5.602   4.664
 4117SOL    HW212641   2.622   5.526   4.670
 4118SOL     OW12642   2.721   4.680   4.585
 4118SOL    HW112643   2.775   4.611   4.633
 4118SOL    HW212644   2.689   4.749   4.651
 4119SOL     OW12645   2.945   4.708   3.811
 4119SOL    HW112646   2.922   4.761   3.729
 4119SOL    HW212647   3.026   4.652   3.792
 4120SOL     OW12648   3.723   5.293   4.575
 4120SOL    HW112649   3.652   5.281   4.505
 4120SOL    HW212650   3.724   5.214   4.635
 4121SOL     OW12651   2.083   5.038   5.568
 4121SOL    HW112652   2.018   4.965   5.547
 4121SOL    HW212653   2.087   5.052   5.666
 4122SOL     OW12654   1.941   4.964   4.377
 4122SOL    HW112655   1.940   4.917   4.465
 4122SOL    HW212656   2.023   4.936   4.326
 4123SOL     OW12657   2.534   5.115   5.348
 4123SOL    HW112658   2.456   5.065   5.386
 4123SOL    HW212659   2.531   5.210   5.379
 4124SOL     OW12660   3.686   3.916   4.951
 4124SOL    HW112661   3.682   3.826   4.995
 4124SOL    HW212662   3.689   3.905   4.852
 4125SOL     OW12663   2.290   4.148   4.244
 4125SOL    HW112664   2.320   4.076   4.182
 4125SOL    HW212665   2.251   4.108   4.327
 4126SOL     OW12666   3.567   5.211   4.828
 4126SOL    HW112667   3.474   5.186   4.801
 4126SOL    HW212668   3.593   5.161   4.910
 4127SOL     OW12669   2.179   4.271   5.004
 4127SOL    HW112670   2.217   4.212   5.076
 4127SOL    HW212671   2.219   4.245   4.916
 4128SOL     OW12672   2.674   5.310   4.411
 4128SOL    HW112673   2.706   5.320   4.317
 4128SOL    HW212674   2.595   5.248   4.413
 4129SOL     OW12675   3.286   3.938   4.836
 4129SOL    HW112676   3.338   3.873   4.891
 4129SOL    HW212677   3.237   4.001   4.897
 4130SOL     OW12678   2.863   3.758   4.878
 4130SOL    HW112679   2.800   3.686   4.847
 4130SOL    HW212680   2.956   3.722   4.878
 4131SOL     OW12681   2.632   5.054   4.025
 4131SOL    HW112682   2.586   4.967   4.042
 4131SOL    HW212683   2.723   5.051   4.066
 4132SOL     OW12684   2.480   5.291   5.008
 4132SOL    HW112685   2.475   5.373   5.065
 4132SOL    HW212686   2.569   5.288   4.963
 4133SOL     OW12687   3.214   3.776   3.892
 4133SOL    HW112688   3.249   3.735   3.808
 4133SOL    HW212689   3.124   3.738   3.912
 4134SOL     OW12690   3.162   4.177   4.415
 4134SOL    HW112691   3.103   4.257   4.419
 4134SOL    HW212692   3.177   4.142   4.508
 4135SOL     OW12693   3.455   3.945   4.606
 4135SOL    HW112694   3.371   3.944   4.660
 4135SOL    HW212695   3.457   4.028   4.550
 4136SOL     OW12696   1.901   4.801   4.024
 4136SOL    HW112697   2.000   4.790   4.015
 4136SOL    HW212698   1.861   4.715   4.056
 4137SOL     OW12699   2.737   5.370   4.061
 4137SOL    HW112700   2.660   5.335   4.007
 4137SOL    HW212701   2.705   5.441   4.123
 4138SOL     OW12702   2.092   4.352   5.699
 4138SOL    HW112703   1.999   4.350   5.736
 4138SOL    HW212704   2.093   4.313   5.607
 4139SOL     OW12705   3.617   4.331   5.817
 4139SOL    HW112706   3.605   4.318   5.718
 4139SOL    HW212707   3.587   4.250   5.866
 4140SOL     OW12708   2.093   5.437   6.069
 4140SOL    HW112709   2.127   5.514   6.123
 4140SOL    HW212710   2.137   5.437   5.979
 4141SOL     OW12711   2.468   4.688   5.709
 4141SOL    HW112712   2.475   4.772   5.655
 4141SOL    HW212713   2.514   4.701   5.797
 4142SOL     OW12714   3.704   5.491   5.945
 4142SOL    HW112715   3.758   5.462   6.025
 4142SOL    HW212716   3.734   5.581   5.916
 4143SOL     OW12717   1.889   5.320   5.703
 4143SOL    HW112718   1.870   5.224   5.724
 4143SOL    HW212719   1.856   5.378   5.778
 4144SOL     OW12720   3.551   4.646   6.198
 4144SOL    HW112721   3.646   4.617   6.206
 4144SOL    HW212722   3.543   4.711   6.123
 4145SOL     OW12723   3.503   4.832   6.018
 4145SOL    HW112724   3.589   4.834   5.966
 4145SOL    HW212725   3.517   4.879   6.106
 4146SOL     OW12726   3.387   4.723   5.776
 4146SOL    HW112727   3.324   4.647   5.789
 4146SOL    HW212728   3.435   4.741   5.862
 4147SOL     OW12729   2.460   4.453   5.856
 4147SOL    HW112730   2.484   4.522   5.788
 4147SOL    HW212731   2.382   4.486   5.910
 4148SOL     OW12732   2.727   4.072   5.781
 4148SOL    HW112733   2.786   4.135   5.732
 4148SOL    HW212734   2.746   3.978   5.752
 4149SOL     OW12735   2.183   4.667   5.828
 4149SOL    HW112736   2.265   4.706   5.786
 4149SOL    HW212737   2.156   4.585   5.779
 4150SOL     OW12738   2.973   5.500   5.823
 4150SOL    HW112739   2.913   5.438   5.873
 4150SOL    HW212740   3.004   5.456   5.738
 4151SOL     OW12741   3.494   5.101   5.667
 4151SOL    HW112742   3.462   5.195   5.657
 4151SOL    HW212743   3.418   5.038   5.655
 4152SOL     OW12744   2.326   5.467   5.909
 4152SOL    HW112745   2.359   5.506   5.995
 4152SOL    HW212746   2.402   5.460   5.844
 4153SOL     OW12747   2.476   3.846   5.703
 4153SOL    HW112748   2.574   3.824   5.710
 4153SOL    HW212749   2.445   3.829   5.610
 4154SOL     OW12750   3.296   4.912   5.627
 4154SOL    HW112751   3.328   4.836   5.684
 4154SOL    HW212752   3.204   4.939   5.657
 4155SOL     OW12753   2.159   3.759   5.757
 4155SOL    HW112754   2.208   3.843   5.736
 4155SOL    HW212755   2.221   3.694   5.802
 4156SOL     OW12756   2.894   4.273   5.602
 4156SOL    HW112757   2.853   4.355   5.563
 4156SOL    HW212758   2.958   4.299   5.675
 4157SOL     OW12759   3.719   4.557   5.963
 4157SOL    HW112760   3.761   4.493   6.027
 4157SOL    HW212761   3.681   4.506   5.885
 4158SOL     OW12762   2.350   5.109   5.760
 4158SOL    HW112763   2.263   5.094   5.807
 4158SOL    HW212764   2.333   5.135   5.665
 4159SOL     OW12765   3.526   5.004   6.243
 4159SOL    HW112766   3.625   5.012   6.257
 4159SOL    HW212767   3.481   5.088   6.274
 4160SOL     OW12768   3.252   4.299   5.664
 4160SOL    HW112769   3.198   4.278   5.745
 4160SOL    HW212770   3.343   4.258   5.673
 4161SOL     OW12771   2.389   3.980   5.914
 4161SOL    HW112772   2.416   3.921   5.839
 4161SOL    HW212773   2.389   4.075   5.883
 4162SOL     OW12774   2.229   4.824   6.087
 4162SOL    HW112775   2.222   4.907   6.031
 4162SOL    HW212776   2.233   4.744   6.027
 4163SOL     OW12777   3.071   4.249   5.861
 4163SOL    HW112778   3.084   4.165   5.915
 4163SOL    HW212779   3.042   4.323   5.921
 4164SOL     OW12780   2.169   3.787   6.204
 4164SOL    HW112781   2.158   3.881   6.237
 4164SOL    HW212782   2.164   3.724   6.281
 4165SOL     OW12783   3.402   3.998   5.711
 4165SOL    HW112784   3.341   3.923   5.734
 4165SOL    HW212785   3.424   4.050   5.794
 4166SOL     OW12786   3.165   4.562   5.628
 4166SOL    HW112787   3.199   4.469   5.643
 4166SOL    HW212788   3.183   4.589   5.533
 4167SOL     OW12789   1.870   5.050   5.786
 4167SOL    HW112790   1.777   5.071   5.755
 4167SOL    HW212791   1.880   4.951   5.799
 4168SOL     OW12792   2.677   4.296   5.911
 4168SOL    HW112793   2.684   4.207   5.865
 4168SOL    HW212794   2.583   4.330   5.903
 4169SOL     OW12795   2.335   4.224   5.777
 4169SOL    HW112796   2.396   4.304   5.781
 4169SOL    HW212797   2.240   4.255   5.784
 4170SOL     OW12798   3.588   3.859   6.109
 4170SOL    HW112799   3.661   3.842   6.042
 4170SOL    HW212800   3.557   3.772   6.147
 4171SOL     OW12801   2.534   5.340   5.740
 4171SOL    HW112802   2.543   5.350   5.641
 4171SOL    HW212803   2.494   5.251   5.761
 4172SOL     OW12804   3.056   5.336   5.617
 4172SOL    HW112805   3.062   5.243   5.654
 4172SOL    HW212806   2.997   5.336   5.537
 4173SOL     OW12807   2.778   4.634   5.877
 4173SOL    HW112808   2.841   4.672   5.809
 4173SOL    HW212809   2.818   4.551   5.916
 4174SOL     OW12810   3.366   5.331   5.630
 4174SOL    HW112811   3.274   5.368   5.637
 4174SOL    HW212812   3.404   5.351   5.540
 4175SOL     OW12813   2.901   4.822   6.282
 4175SOL    HW112814   2.831   4.775   6.336
 4175SOL    HW212815   2.960   4.754   6.239
 4176SOL     OW12816   2.117   5.072   5.876
 4176SOL    HW112817   2.021   5.073   5.849
 4176SOL    HW212818   2.129   5.125   5.960
 4177SOL     OW12819   1.937   4.069   5.619
 4177SOL    HW112820   1.845   4.041   5.590
 4177SOL    HW212821   1.968   4.146   5.563
 4178SOL     OW12822   1.934   3.890   5.904
 4178SOL    HW112823   1.917   3.973   5.850
 4178SOL    HW212824   2.024   3.853   5.882
 4179SOL     OW12825   3.045   5.059   5.705
 4179SOL    HW112826   2.946   5.048   5.707
 4179SOL    HW212827   3.079   5.074   5.798
 4180SOL     OW12828   3.087   4.049   6.035
 4180SOL    HW112829   3.152   3.975   6.024
 4180SOL    HW212830   3.107   4.099   6.119
 4181SOL     OW12831   2.721   5.098   5.602
 4181SOL    HW112832   2.675   5.113   5.690
 4181SOL    HW212833   2.765   5.183   5.572
 4182SOL     OW12834   2.945   4.708   5.673
 4182SOL    HW112835   2.922   4.761   5.591
 4182SOL    HW212836   3.026   4.652   5.654
 4183SOL     OW12837   3.214   3.776   5.754
 4183SOL    HW112838   3.249   3.735   5.670
 4183SOL    HW212839   3.124   3.738   5.774
 4184SOL     OW12840   1.901   4.801   5.886
 4184SOL    HW112841   2.000   4.790   5.877
 4184SOL    HW212842   1.861   4.715   5.918
 4185SOL     OW12843   2.737   5.370   5.923
 4185SOL    HW112844   2.660   5.335   5.869
 4185SOL    HW212845   2.705   5.441   5.985
 4186SOL     OW12846   2.092   6.214   0.113
 4186SOL    HW112847   1.999   6.212   0.150
 4186SOL    HW212848   2.093   6.175   0.021
 4187SOL     OW12849   2.087   5.861   0.996
 4187SOL    HW112850   2.122   5.844   1.088
 4187SOL    HW212851   1.999   5.816   0.984
 4188SOL     OW12852   1.881   5.954   0.647
 4188SOL    HW112853   1.799   5.997   0.686
 4188SOL    HW212854   1.853   5.881   0.584
 4189SOL     OW12855   2.300   5.978   1.499
 4189SOL    HW112856   2.382   5.922   1.508
 4189SOL    HW212857   2.219   5.920   1.503
 4190SOL     OW12858   3.465   6.033   0.737
 4190SOL    HW112859   3.391   6.079   0.687
 4190SOL    HW212860   3.516   6.101   0.790
 4191SOL     OW12861   3.456   5.700   1.480
 4191SOL    HW112862   3.438   5.767   1.408
 4191SOL    HW212863   3.453   5.746   1.569
 4192SOL     OW12864   2.671   5.590   0.502
 4192SOL    HW112865   2.711   5.681   0.493
 4192SOL    HW212866   2.571   5.598   0.508
 4193SOL     OW12867   2.179   5.837   1.801
 4193SOL    HW112868   2.250   5.908   1.807
 4193SOL    HW212869   2.091   5.876   1.829
 4194SOL     OW12870   3.143   5.931   0.944
 4194SOL    HW112871   3.057   5.881   0.931
 4194SOL    HW212872   3.205   5.877   1.000
 4195SOL     OW12873   2.412   5.782   0.885
 4195SOL    HW112874   2.407   5.777   0.985
 4195SOL    HW212875   2.414   5.878   0.856
 4196SOL     OW12876   2.064   5.871   1.498
 4196SOL    HW112877   1.984   5.931   1.485
 4196SOL    HW212878   2.054   5.822   1.584
 4197SOL     OW12879   3.262   5.693   0.426
 4197SOL    HW112880   3.238   5.656   0.336
 4197SOL    HW212881   3.361   5.709   0.430
 4198SOL     OW12882   3.409   5.808   1.729
 4198SOL    HW112883   3.404   5.845   1.821
 4198SOL    HW212884   3.337   5.739   1.717
 4199SOL     OW12885   2.476   5.708   0.117
 4199SOL    HW112886   2.574   5.686   0.124
 4199SOL    HW212887   2.445   5.691   0.024
 4200SOL     OW12888   2.643   5.850   1.749
 4200SOL    HW112889   2.710   5.789   1.792
 4200SOL    HW212890   2.570   5.869   1.814
 4201SOL     OW12891   3.213   6.176   1.433
 4201SOL    HW112892   3.241   6.133   1.518
 4201SOL    HW212893   3.238   6.272   1.434
 4202SOL     OW12894   2.401   5.650   0.512
 4202SOL    HW112895   2.320   5.651   0.570
 4202SOL    HW212896   2.404   5.733   0.457
 4203SOL     OW12897   2.797   5.822   0.480
 4203SOL    HW112898   2.749   5.863   0.402
 4203SOL    HW212899   2.896   5.820   0.461
 4204SOL     OW12900   2.423   5.808   1.147
 4204SOL    HW112901   2.461   5.724   1.184
 4204SOL    HW212902   2.335   5.827   1.191
 4205SOL     OW12903   2.879   5.625   0.753
 4205SOL    HW112904   2.807   5.630   0.684
 4205SOL    HW212905   2.855   5.556   0.822
 4206SOL     OW12906   2.389   5.842   0.328
 4206SOL    HW112907   2.416   5.783   0.253
 4206SOL    HW212908   2.389   5.937   0.297
 4207SOL     OW12909   2.777   5.675   1.402
 4207SOL    HW112910   2.802   5.655   1.307
 4207SOL    HW212911   2.849   5.731   1.444
 4208SOL     OW12912   2.875   5.691   1.770
 4208SOL    HW112913   2.881   5.776   1.718
 4208SOL    HW212914   2.907   5.615   1.713
 4209SOL     OW12915   2.366   5.636   1.740
 4209SOL    HW112916   2.324   5.579   1.670
 4209SOL    HW212917   2.300   5.705   1.772
 4210SOL     OW12918   2.169   5.799   1.231
 4210SOL    HW112919   2.146   5.836   1.321
 4210SOL    HW212920   2.139   5.704   1.225
 4211SOL     OW12921   2.594   6.220   1.064
 4211SOL    HW112922   2.653   6.194   0.988
 4211SOL    HW212923   2.566   6.316   1.053
 4212SOL     OW12924   2.169   5.649   0.618
 4212SOL    HW112925   2.158   5.743   0.651
 4212SOL    HW212926   2.164   5.586   0.695
 4213SOL     OW12927   3.402   5.860   0.125
 4213SOL    HW112928   3.341   5.785   0.148
 4213SOL    HW212929   3.424   5.912   0.208
 4214SOL     OW12930   2.201   6.095   1.006
 4214SOL    HW112931   2.149   6.012   0.989
 4214SOL    HW212932   2.278   6.100   0.942
 4215SOL     OW12933   3.022   5.793   1.477
 4215SOL    HW112934   3.022   5.857   1.554
 4215SOL    HW212935   3.050   5.841   1.394
 4216SOL     OW12936   2.765   5.672   0.133
 4216SOL    HW112937   2.816   5.673   0.047
 4216SOL    HW212938   2.821   5.630   0.204
 4217SOL     OW12939   3.588   5.721   0.523
 4217SOL    HW112940   3.661   5.704   0.456
 4217SOL    HW212941   3.557   5.634   0.561
 4218SOL     OW12942   3.703   5.761   0.963
 4218SOL    HW112943   3.742   5.676   0.927
 4218SOL    HW212944   3.605   5.763   0.944
 4219SOL     OW12945   2.876   5.822   0.971
 4219SOL    HW112946   2.868   5.786   0.878
 4219SOL    HW212947   2.874   5.746   1.036
 4220SOL     OW12948   2.534   5.789   1.489
 4220SOL    HW112949   2.624   5.773   1.449
 4220SOL    HW212950   2.542   5.794   1.588
 4221SOL     OW12951   1.937   5.931   0.033
 4221SOL    HW112952   1.845   5.903   0.004
 4221SOL    HW212953   1.968   6.008  -0.023
 4222SOL     OW12954   1.934   5.752   0.318
 4222SOL    HW112955   1.917   5.835   0.264
 4222SOL    HW212956   2.024   5.715   0.296
 4223SOL     OW12957   3.087   5.911   0.449
 4223SOL    HW112958   3.152   5.837   0.438
 4223SOL    HW212959   3.107   5.961   0.533
 4224SOL     OW12960   3.639   5.928   1.642
 4224SOL    HW112961   3.622   5.959   1.548
 4224SOL    HW212962   3.555   5.891   1.680
 4225SOL     OW12963   3.686   5.778   1.227
 4225SOL    HW112964   3.682   5.688   1.271
 4225SOL    HW212965   3.689   5.767   1.128
 4226SOL     OW12966   3.286   5.800   1.112
 4226SOL    HW112967   3.338   5.735   1.167
 4226SOL    HW212968   3.237   5.863   1.173
 4227SOL     OW12969   2.863   5.620   1.154
 4227SOL    HW112970   2.800   5.548   1.123
 4227SOL    HW212971   2.956   5.584   1.154
 4228SOL     OW12972   3.214   5.638   0.168
 4228SOL    HW112973   3.249   5.597   0.084
 4228SOL    HW212974   3.124   5.600   0.188
 4229SOL     OW12975   3.162   6.039   0.691
 4229SOL    HW112976   3.103   6.119   0.695
 4229SOL    HW212977   3.177   6.004   0.784
 4230SOL     OW12978   3.455   5.807   0.882
 4230SOL    HW112979   3.371   5.806   0.936
 4230SOL    HW212980   3.457   5.890   0.826
 4231SOL     OW12981   2.087   5.861   2.858
 4231SOL    HW112982   2.122   5.844   2.950
 4231SOL    HW212983   1.999   5.816   2.846
 4232SOL     OW12984   1.881   5.954   2.509
 4232SOL    HW112985   1.799   5.997   2.548
 4232SOL    HW212986   1.853   5.881   2.446
 4233SOL     OW12987   3.617   6.193   2.093
 4233SOL    HW112988   3.605   6.180   1.994
 4233SOL    HW212989   3.587   6.112   2.142
 4234SOL     OW12990   2.300   5.978   3.361
 4234SOL    HW112991   2.382   5.922   3.370
 4234SOL    HW212992   2.219   5.920   3.365
 4235SOL     OW12993   3.465   6.033   2.599
 4235SOL    HW112994   3.391   6.079   2.549
 4235SOL    HW212995   3.516   6.101   2.652
 4236SOL     OW12996   3.456   5.700   3.342
 4236SOL    HW112997   3.438   5.767   3.270
 4236SOL    HW212998   3.453   5.746   3.431
 4237SOL     OW12999   2.671   5.590   2.364
 4237SOL    HW113000   2.711   5.681   2.355
 4237SOL    HW213001   2.571   5.598   2.370
 4238SOL     OW13002   2.179   5.837   3.663
 4238SOL    HW113003   2.250   5.908   3.669
 4238SOL    HW213004   2.091   5.876   3.691
 4239SOL     OW13005   3.143   5.931   2.806
 4239SOL    HW113006   3.057   5.881   2.793
 4239SOL    HW213007   3.205   5.877   2.862
 4240SOL     OW13008   2.727   5.934   2.057
 4240SOL    HW113009   2.786   5.997   2.008
 4240SOL    HW213010   2.746   5.840   2.028
 4241SOL     OW13011   2.412   5.782   2.747
 4241SOL    HW113012   2.407   5.777   2.847
 4241SOL    HW213013   2.414   5.878   2.718
 4242SOL     OW13014   2.064   5.871   3.360
 4242SOL    HW113015   1.984   5.931   3.347
 4242SOL    HW213016   2.054   5.822   3.446
 4243SOL     OW13017   3.262   5.693   2.288
 4243SOL    HW113018   3.238   5.656   2.198
 4243SOL    HW213019   3.361   5.709   2.292
 4244SOL     OW13020   3.409   5.808   3.591
 4244SOL    HW113021   3.404   5.845   3.683
 4244SOL    HW213022   3.337   5.739   3.579
 4245SOL     OW13023   2.476   5.708   1.979
 4245SOL    HW113024   2.574   5.686   1.986
 4245SOL    HW213025   2.445   5.691   1.886
 4246SOL     OW13026   2.643   5.850   3.611
 4246SOL    HW113027   2.710   5.789   3.654
 4246SOL    HW213028   2.570   5.869   3.676
 4247SOL     OW13029   3.213   6.176   3.295
 4247SOL    HW113030   3.241   6.133   3.380
 4247SOL    HW213031   3.238   6.272   3.296
 4248SOL     OW13032   2.401   5.650   2.374
 4248SOL    HW113033   2.320   5.651   2.432
 4248SOL    HW213034   2.404   5.733   2.319
 4249SOL     OW13035   2.159   5.621   2.033
 4249SOL    HW113036   2.208   5.705   2.012
 4249SOL    HW213037   2.221   5.556   2.078
 4250SOL     OW13038   2.797   5.822   2.342
 4250SOL    HW113039   2.749   5.863   2.264
 4250SOL    HW213040   2.896   5.820   2.323
 4251SOL     OW13041   2.423   5.808   3.009
 4251SOL    HW113042   2.461   5.724   3.046
 4251SOL    HW213043   2.335   5.827   3.053
 4252SOL     OW13044   2.879   5.625   2.615
 4252SOL    HW113045   2.807   5.630   2.546
 4252SOL    HW213046   2.855   5.556   2.684
 4253SOL     OW13047   2.389   5.842   2.190
 4253SOL    HW113048   2.416   5.783   2.115
 4253SOL    HW213049   2.389   5.937   2.159
 4254SOL     OW13050   2.777   5.675   3.264
 4254SOL    HW113051   2.802   5.655   3.169
 4254SOL    HW213052   2.849   5.731   3.306
 4255SOL     OW13053   2.875   5.691   3.632
 4255SOL    HW113054   2.881   5.776   3.580
 4255SOL    HW213055   2.907   5.615   3.575
 4256SOL     OW13056   2.366   5.636   3.602
 4256SOL    HW113057   2.324   5.579   3.532
 4256SOL    HW213058   2.300   5.705   3.634
 4257SOL     OW13059   2.169   5.799   3.093
 4257SOL    HW113060   2.146   5.836   3.183
 4257SOL    HW213061   2.139   5.704   3.087
 4258SOL     OW13062   2.594   6.220   2.926
 4258SOL    HW113063   2.653   6.194   2.850
 4258SOL    HW213064   2.566   6.316   2.915
 4259SOL     OW13065   2.169   5.649   2.480
 4259SOL    HW113066   2.158   5.743   2.513
 4259SOL    HW213067   2.164   5.586   2.557
 4260SOL     OW13068   3.402   5.860   1.987
 4260SOL    HW113069   3.341   5.785   2.010
 4260SOL    HW213070   3.424   5.912   2.070
 4261SOL     OW13071   2.201   6.095   2.868
 4261SOL    HW113072   2.149   6.012   2.851
 4261SOL    HW213073   2.278   6.100   2.804
 4262SOL     OW13074   3.022   5.793   3.339
 4262SOL    HW113075   3.022   5.857   3.416
 4262SOL    HW213076   3.050   5.841   3.256
 4263SOL     OW13077   3.588   5.721   2.385
 4263SOL    HW113078   3.661   5.704   2.318
 4263SOL    HW213079   3.557   5.634   2.423
 4264SOL     OW13080   3.703   5.761   2.825
 4264SOL    HW113081   3.742   5.676   2.789
 4264SOL    HW213082   3.605   5.763   2.806
 4265SOL     OW13083   2.876   5.822   2.833
 4265SOL    HW113084   2.868   5.786   2.740
 4265SOL    HW213085   2.874   5.746   2.898
 4266SOL     OW13086   2.534   5.789   3.351
 4266SOL    HW113087   2.624   5.773   3.311
 4266SOL    HW213088   2.542   5.794   3.450
 4267SOL     OW13089   1.937   5.931   1.895
 4267SOL    HW113090   1.845   5.903   1.866
 4267SOL    HW213091   1.968   6.008   1.839
 4268SOL     OW13092   1.934   5.752   2.180
 4268SOL    HW113093   1.917   5.835   2.126
 4268SOL    HW213094   2.024   5.715   2.158
 4269SOL     OW13095   3.087   5.911   2.311
 4269SOL    HW113096   3.152   5.837   2.300
 4269SOL    HW213097   3.107   5.961   2.395
 4270SOL     OW13098   3.639   5.928   3.504
 4270SOL    HW113099   3.622   5.959   3.410
 4270SOL    HW213100   3.555   5.891   3.542
 4271SOL     OW13101   3.686   5.778   3.089
 4271SOL    HW113102   3.682   5.688   3.133
 4271SOL    HW213103   3.689   5.767   2.990
 4272SOL     OW13104   3.286   5.800   2.974
 4272SOL    HW113105   3.338   5.735   3.029
 4272SOL    HW213106   3.237   5.863   3.035
 4273SOL     OW13107   2.863   5.620   3.016
 4273SOL    HW113108   2.800   5.548   2.985
 4273SOL    HW213109   2.956   5.584   3.016
 4274SOL     OW13110   3.214   5.638   2.030
 4274SOL    HW113111   3.249   5.597   1.946
 4274SOL    HW213112   3.124   5.600   2.050
 4275SOL     OW13113   3.162   6.039   2.553
 4275SOL    HW113114   3.103   6.119   2.557
 4275SOL    HW213115   3.177   6.004   2.646
 4276SOL     OW13116   3.455   5.807   2.744
 4276SOL    HW113117   3.371   5.806   2.798
 4276SOL    HW213118   3.457   5.890   2.688
 4277SOL     OW13119   2.087   5.861   4.720
 4277SOL    HW113120   2.122   5.844   4.812
 4277SOL    HW213121   1.999   5.816   4.708
 4278SOL     OW13122   1.881   5.954   4.371
 4278SOL    HW113123   1.799   5.997   4.410
 4278SOL    HW213124   1.853   5.881   4.308
 4279SOL     OW13125   3.617   6.193   3.955
 4279SOL    HW113126   3.605   6.180   3.856
 4279SOL    HW213127   3.587   6.112   4.004
 4280SOL     OW13128   2.300   5.978   5.223
 4280SOL    HW113129   2.382   5.922   5.232
 4280SOL    HW213130   2.219   5.920   5.227
 4281SOL     OW13131   3.465   6.033   4.461
 4281SOL    HW113132   3.391   6.079   4.411
 4281SOL    HW213133   3.516   6.101   4.514
 4282SOL     OW13134   3.456   5.700   5.204
 4282SOL    HW113135   3.438   5.767   5.132
 4282SOL    HW213136   3.453   5.746   5.293
 4283SOL     OW13137   2.671   5.590   4.226
 4283SOL    HW113138   2.711   5.681   4.217
 4283SOL    HW213139   2.571   5.598   4.232
 4284SOL     OW13140   2.179   5.837   5.525
 4284SOL    HW113141   2.250   5.908   5.531
 4284SOL    HW213142   2.091   5.876   5.553
 4285SOL     OW13143   3.143   5.931   4.668
 4285SOL    HW113144   3.057   5.881   4.655
 4285SOL    HW213145   3.205   5.877   4.724
 4286SOL     OW13146   2.727   5.934   3.919
 4286SOL    HW113147   2.786   5.997   3.870
 4286SOL    HW213148   2.746   5.840   3.890
 4287SOL     OW13149   2.412   5.782   4.609
 4287SOL    HW113150   2.407   5.777   4.709
 4287SOL    HW213151   2.414   5.878   4.580
 4288SOL     OW13152   2.064   5.871   5.222
 4288SOL    HW113153   1.984   5.931   5.209
 4288SOL    HW213154   2.054   5.822   5.308
 4289SOL     OW13155   3.262   5.693   4.150
 4289SOL    HW113156   3.238   5.656   4.060
 4289SOL    HW213157   3.361   5.709   4.154
 4290SOL     OW13158   3.409   5.808   5.453
 4290SOL    HW113159   3.404   5.845   5.545
 4290SOL    HW213160   3.337   5.739   5.441
 4291SOL     OW13161   2.476   5.708   3.841
 4291SOL    HW113162   2.574   5.686   3.848
 4291SOL    HW213163   2.445   5.691   3.748
 4292SOL     OW13164   2.643   5.850   5.473
 4292SOL    HW113165   2.710   5.789   5.516
 4292SOL    HW213166   2.570   5.869   5.538
 4293SOL     OW13167   3.213   6.176   5.157
 4293SOL    HW113168   3.241   6.133   5.242
 4293SOL    HW213169   3.238   6.272   5.158
 4294SOL     OW13170   2.401   5.650   4.236
 4294SOL    HW113171   2.320   5.651   4.294
 4294SOL    HW213172   2.404   5.733   4.181
 4295SOL     OW13173   2.159   5.621   3.895
 4295SOL    HW113174   2.208   5.705   3.874
 4295SOL    HW213175   2.221   5.556   3.940
 4296SOL     OW13176   2.797   5.822   4.204
 4296SOL    HW113177   2.749   5.863   4.126
 4296SOL    HW213178   2.896   5.820   4.185
 4297SOL     OW13179   2.423   5.808   4.871
 4297SOL    HW113180   2.461   5.724   4.908
 4297SOL    HW213181   2.335   5.827   4.915
 4298SOL     OW13182   2.879   5.625   4.477
 4298SOL    HW113183   2.807   5.630   4.408
 4298SOL    HW213184   2.855   5.556   4.546
 4299SOL     OW13185   2.389   5.842   4.052
 4299SOL    HW113186   2.416   5.783   3.977
 4299SOL    HW213187   2.389   5.937   4.021
 4300SOL     OW13188   2.777   5.675   5.126
 4300SOL    HW113189   2.802   5.655   5.031
 4300SOL    HW213190   2.849   5.731   5.168
 4301SOL     OW13191   2.875   5.691   5.494
 4301SOL    HW113192   2.881   5.776   5.442
 4301SOL    HW213193   2.907   5.615   5.437
 4302SOL     OW13194   2.366   5.636   5.464
 4302SOL    HW113195   2.324   5.579   5.394
 4302SOL    HW213196   2.300   5.705   5.496
 4303SOL     OW13197   2.169   5.799   4.955
 4303SOL    HW113198   2.146   5.836   5.045
 4303SOL    HW213199   2.139   5.704   4.949
 4304SOL     OW13200   2.594   6.220   4.788
 4304SOL    HW113201   2.653   6.194   4.712
 4304SOL    HW213202   2.566   6.316   4.777
 4305SOL     OW13203   2.169   5.649   4.342
 4305SOL    HW113204   2.158   5.743   4.375
 4305SOL    HW213205   2.164   5.586   4.419
 4306SOL     OW13206   3.402   5.860   3.849
 4306SOL    HW113207   3.341   5.785   3.872
 4306SOL    HW213208   3.424   5.912   3.932
 4307SOL     OW13209   2.201   6.095   4.730
 4307SOL    HW113210   2.149   6.012   4.713
 4307SOL    HW213211   2.278   6.100   4.666
 4308SOL     OW13212   3.022   5.793   5.201
 4308SOL    HW113213   3.022   5.857   5.278
 4308SOL    HW213214   3.050   5.841   5.118
 4309SOL     OW13215   3.588   5.721   4.247
 4309SOL    HW113216   3.661   5.704   4.180
 4309SOL    HW213217   3.557   5.634   4.285
 4310SOL     OW13218   3.703   5.761   4.687
 4310SOL    HW113219   3.742   5.676   4.651
 4310SOL    HW213220   3.605   5.763   4.668
 4311SOL     OW13221   2.876   5.822   4.695
 4311SOL    HW113222   2.868   5.786   4.602
 4311SOL    HW213223   2.874   5.746   4.760
 4312SOL     OW13224   2.534   5.789   5.213
 4312SOL    HW113225   2.624   5.773   5.173
 4312SOL    HW213226   2.542   5.794   5.312
 4313SOL     OW13227   1.937   5.931   3.757
 4313SOL    HW113228   1.845   5.903   3.728
 4313SOL    HW213229   1.968   6.008   3.701
 4314SOL     OW13230   1.934   5.752   4.042
 4314SOL    HW113231   1.917   5.835   3.988
 4314SOL    HW213232   2.024   5.715   4.020
 4315SOL     OW13233   3.087   5.911   4.173
 4315SOL    HW113234   3.152   5.837   4.162
 4315SOL    HW213235   3.107   5.961   4.257
 4316SOL     OW13236   3.639   5.928   5.366
 4316SOL    HW113237   3.622   5.959   5.272
 4316SOL    HW213238   3.555   5.891   5.404
 4317SOL     OW13239   3.686   5.778   4.951
 4317SOL    HW113240   3.682   5.688   4.995
 4317SOL    HW213241   3.689   5.767   4.852
 4318SOL     OW13242   3.286   5.800   4.836
 4318SOL    HW113243   3.338   5.735   4.891
 4318SOL    HW213244   3.237   5.863   4.897
 4319SOL     OW13245   2.863   5.620   4.878
 4319SOL    HW113246   2.800   5.548   4.847
 4319SOL    HW213247   2.956   5.584   4.878
 4320SOL     OW13248   3.214   5.638   3.892
 4320SOL    HW113249   3.249   5.597   3.808
 4320SOL    HW213250   3.124   5.600   3.912
 4321SOL     OW13251   3.162   6.039   4.415
 4321SOL    HW113252   3.103   6.119   4.419
 4321SOL    HW213253   3.177   6.004   4.508
 4322SOL     OW13254   3.455   5.807   4.606
 4322SOL    HW113255   3.371   5.806   4.660
 4322SOL    HW213256   3.457   5.890   4.550
 4323SOL     OW13257   3.617   6.193   5.817
 4323SOL    HW113258   3.605   6.180   5.718
 4323SOL    HW213259   3.587   6.112   5.866
 4324SOL     OW13260   2.903   6.287   6.015
 4324SOL    HW113261   2.929   6.283   6.111
 4324SOL    HW213262   2.818   6.236   6.001
 4325SOL     OW13263   2.727   5.934   5.781
 4325SOL    HW113264   2.786   5.997   5.732
 4325SOL    HW213265   2.746   5.840   5.752
 4326SOL     OW13266   2.476   5.708   5.703
 4326SOL    HW113267   2.574   5.686   5.710
 4326SOL    HW213268   2.445   5.691   5.610
 4327SOL     OW13269   2.159   5.621   5.757
 4327SOL    HW113270   2.208   5.705   5.736
 4327SOL    HW213271   2.221   5.556   5.802
 4328SOL     OW13272   2.389   5.842   5.914
 4328SOL    HW113273   2.416   5.783   5.839
 4328SOL    HW213274   2.389   5.937   5.883
 4329SOL     OW13275   2.169   5.649   6.204
 4329SOL    HW113276   2.158   5.743   6.237
 4329SOL    HW213277   2.164   5.586   6.281
 4330SOL     OW13278   3.402   5.860   5.711
 4330SOL    HW113279   3.341   5.785   5.734
 4330SOL    HW213280   3.424   5.912   5.794
 4331SOL     OW13281   2.677   6.158   5.911
 4331SOL    HW113282   2.684   6.069   5.865
 4331SOL    HW213283   2.583   6.192   5.903
 4332SOL     OW13284   3.588   5.721   6.109
 4332SOL    HW113285   3.661   5.704   6.042
 4332SOL    HW213286   3.557   5.634   6.147
 4333SOL     OW13287   1.937   5.931   5.619
 4333SOL    HW113288   1.845   5.903   5.590
 4333SOL    HW213289   1.968   6.008   5.563
 4334SOL     OW13290   1.934   5.752   5.904
 4334SOL    HW113291   1.917   5.835   5.850
 4334SOL    HW213292   2.024   5.715   5.882
 4335SOL     OW13293   3.214   5.638   5.754
 4335SOL    HW113294   3.249   5.597   5.670
 4335SOL    HW213295   3.124   5.600   5.774
 4336SOL     OW13296   3.954   0.628   0.113
 4336SOL    HW113297   3.861   0.626   0.150
 4336SOL    HW213298   3.955   0.589   0.021
 4337SOL     OW13299   3.949   0.275   0.996
 4337SOL    HW113300   3.984   0.258   1.088
 4337SOL    HW213301   3.861   0.230   0.984
 4338SOL     OW13302   3.743   0.368   0.647
 4338SOL    HW113303   3.661   0.411   0.686
 4338SOL    HW213304   3.715   0.295   0.584
 4339SOL     OW13305   4.293   1.275   1.165
 4339SOL    HW113306   4.200   1.268   1.128
 4339SOL    HW213307   4.304   1.364   1.209
 4340SOL     OW13308   5.279   1.511   0.703
 4340SOL    HW113309   5.222   1.495   0.784
 4340SOL    HW213310   5.220   1.521   0.623
 4341SOL     OW13311   4.859   0.703   0.717
 4341SOL    HW113312   4.916   0.781   0.692
 4341SOL    HW213313   4.799   0.729   0.793
 4342SOL     OW13314   5.479   0.607   0.231
 4342SOL    HW113315   5.467   0.594   0.132
 4342SOL    HW213316   5.449   0.526   0.280
 4343SOL     OW13317   4.492   1.144   1.023
 4343SOL    HW113318   4.414   1.161   1.083
 4343SOL    HW213319   4.526   1.231   0.987
 4344SOL     OW13320   4.574   0.798   1.823
 4344SOL    HW113321   4.570   0.874   1.888
 4344SOL    HW213322   4.596   0.834   1.732
 4345SOL     OW13323   4.409   1.012   0.665
 4345SOL    HW113324   4.478   0.996   0.735
 4345SOL    HW213325   4.336   1.069   0.703
 4346SOL     OW13326   4.410   1.161   1.803
 4346SOL    HW113327   4.470   1.240   1.817
 4346SOL    HW213328   4.324   1.192   1.762
 4347SOL     OW13329   4.059   1.435   1.061
 4347SOL    HW113330   3.981   1.404   1.008
 4347SOL    HW213331   4.117   1.493   1.004
 4348SOL     OW13332   5.184   1.505   1.339
 4348SOL    HW113333   5.208   1.599   1.365
 4348SOL    HW213334   5.168   1.451   1.421
 4349SOL     OW13335   4.162   0.392   1.499
 4349SOL    HW113336   4.244   0.336   1.508
 4349SOL    HW213337   4.081   0.334   1.503
 4350SOL     OW13338   5.327   0.447   0.737
 4350SOL    HW113339   5.253   0.493   0.687
 4350SOL    HW213340   5.378   0.515   0.790
 4351SOL     OW13341   3.955   1.713   0.483
 4351SOL    HW113342   3.989   1.790   0.537
 4351SOL    HW213343   3.999   1.713   0.393
 4352SOL     OW13344   4.851   1.341   1.690
 4352SOL    HW113345   4.898   1.341   1.778
 4352SOL    HW213346   4.803   1.254   1.679
 4353SOL     OW13347   3.954   1.434   0.538
 4353SOL    HW113348   3.928   1.530   0.538
 4353SOL    HW213349   3.883   1.380   0.583
 4354SOL     OW13350   3.964   1.091   0.886
 4354SOL    HW113351   3.978   1.007   0.938
 4354SOL    HW213352   3.909   1.155   0.941
 4355SOL     OW13353   4.344   1.786   1.439
 4355SOL    HW113354   4.252   1.769   1.474
 4355SOL    HW213355   4.372   1.878   1.465
 4356SOL     OW13356   4.330   0.964   0.123
 4356SOL    HW113357   4.337   1.048   0.069
 4356SOL    HW213358   4.376   0.977   0.211
 4357SOL     OW13359   5.318   0.114   1.480
 4357SOL    HW113360   5.300   0.181   1.408
 4357SOL    HW213361   5.315   0.160   1.569
 4358SOL     OW13362   3.846   0.643   0.563
 4358SOL    HW113363   3.801   0.555   0.580
 4358SOL    HW213364   3.845   0.697   0.647
 4359SOL     OW13365   5.566   1.767   0.359
 4359SOL    HW113366   5.620   1.738   0.439
 4359SOL    HW213367   5.596   1.857   0.330
 4360SOL     OW13368   3.751   1.596   0.117
 4360SOL    HW113369   3.732   1.500   0.138
 4360SOL    HW213370   3.718   1.654   0.192
 4361SOL     OW13371   5.413   0.922   0.612
 4361SOL    HW113372   5.508   0.893   0.620
 4361SOL    HW213373   5.405   0.987   0.537
 4362SOL     OW13374   5.365   1.108   0.432
 4362SOL    HW113375   5.451   1.110   0.380
 4362SOL    HW213376   5.379   1.155   0.520
 4363SOL     OW13377   3.837   0.737   1.597
 4363SOL    HW113378   3.925   0.724   1.642
 4363SOL    HW213379   3.824   0.834   1.575
 4364SOL     OW13380   4.337   1.365   0.726
 4364SOL    HW113381   4.288   1.278   0.735
 4364SOL    HW213382   4.314   1.408   0.639
 4365SOL     OW13383   5.017   1.228   1.423
 4365SOL    HW113384   5.054   1.155   1.365
 4365SOL    HW213385   5.069   1.233   1.508
 4366SOL     OW13386   4.533   0.004   0.502
 4366SOL    HW113387   4.573   0.095   0.493
 4366SOL    HW213388   4.433   0.012   0.508
 4367SOL     OW13389   3.921   0.976   1.264
 4367SOL    HW113390   4.010   0.931   1.250
 4367SOL    HW213391   3.848   0.911   1.245
 4368SOL     OW13392   5.249   0.999   0.190
 4368SOL    HW113393   5.186   0.923   0.203
 4368SOL    HW213394   5.297   1.017   0.276
 4369SOL     OW13395   4.911   1.792   1.616
 4369SOL    HW113396   4.935   1.852   1.540
 4369SOL    HW213397   4.918   1.697   1.586
 4370SOL     OW13398   4.041   0.251   1.801
 4370SOL    HW113399   4.112   0.322   1.807
 4370SOL    HW213400   3.953   0.290   1.829
 4371SOL     OW13401   5.190   1.417   0.953
 4371SOL    HW113402   5.131   1.423   1.033
 4371SOL    HW213403   5.175   1.329   0.907
 4372SOL     OW13404   5.391   1.714   0.572
 4372SOL    HW113405   5.350   1.691   0.484
 4372SOL    HW213406   5.373   1.640   0.637
 4373SOL     OW13407   5.005   0.345   0.944
 4373SOL    HW113408   4.919   0.295   0.931
 4373SOL    HW213409   5.067   0.291   1.000
 4374SOL     OW13410   5.300   1.662   0.307
 4374SOL    HW113411   5.389   1.708   0.310
 4374SOL    HW213412   5.279   1.638   0.212
 4375SOL     OW13413   4.531   0.605   1.465
 4375SOL    HW113414   4.484   0.602   1.554
 4375SOL    HW213415   4.480   0.550   1.399
 4376SOL     OW13416   5.118   0.469   1.674
 4376SOL    HW113417   5.098   0.512   1.762
 4376SOL    HW213418   5.196   0.407   1.683
 4377SOL     OW13419   4.697   0.890   1.572
 4377SOL    HW113420   4.743   0.806   1.543
 4377SOL    HW213421   4.641   0.924   1.497
 4378SOL     OW13422   4.715   0.410   1.242
 4378SOL    HW113423   4.638   0.444   1.296
 4378SOL    HW213424   4.681   0.359   1.163
 4379SOL     OW13425   4.765   0.701   0.429
 4379SOL    HW113426   4.791   0.697   0.525
 4379SOL    HW213427   4.680   0.650   0.415
 4380SOL     OW13428   3.800   0.811   0.789
 4380SOL    HW113429   3.899   0.799   0.798
 4380SOL    HW213430   3.776   0.906   0.810
 4381SOL     OW13431   3.854   1.821   1.571
 4381SOL    HW113432   3.844   1.806   1.670
 4381SOL    HW213433   3.768   1.857   1.535
 4382SOL     OW13434   4.589   0.348   0.195
 4382SOL    HW113435   4.648   0.411   0.146
 4382SOL    HW213436   4.608   0.254   0.166
 4383SOL     OW13437   5.443   0.585   1.831
 4383SOL    HW113438   5.417   0.674   1.795
 4383SOL    HW213439   5.441   0.517   1.758
 4384SOL     OW13440   5.086   1.144   0.545
 4384SOL    HW113441   5.169   1.115   0.497
 4384SOL    HW213442   5.037   1.211   0.489
 4385SOL     OW13443   4.274   0.196   0.885
 4385SOL    HW113444   4.269   0.191   0.985
 4385SOL    HW213445   4.276   0.292   0.856
 4386SOL     OW13446   4.732   1.456   0.477
 4386SOL    HW113447   4.686   1.528   0.425
 4386SOL    HW213448   4.728   1.476   0.575
 4387SOL     OW13449   4.075   1.801   0.853
 4387SOL    HW113450   4.125   1.715   0.859
 4387SOL    HW213451   4.140   1.878   0.850
 4388SOL     OW13452   5.519   1.066   0.873
 4388SOL    HW113453   5.457   1.051   0.797
 4388SOL    HW213454   5.467   1.077   0.958
 4389SOL     OW13455   4.951   1.550   1.506
 4389SOL    HW113456   4.957   1.473   1.570
 4389SOL    HW213457   4.899   1.524   1.426
 4390SOL     OW13458   4.045   0.943   0.242
 4390SOL    HW113459   4.127   0.982   0.200
 4390SOL    HW213460   4.018   0.861   0.193
 4391SOL     OW13461   5.182   0.735   0.728
 4391SOL    HW113462   5.177   0.670   0.803
 4391SOL    HW213463   5.262   0.794   0.741
 4392SOL     OW13464   4.185   1.266   1.727
 4392SOL    HW113465   4.135   1.267   1.641
 4392SOL    HW213466   4.122   1.248   1.803
 4393SOL     OW13467   4.835   1.776   0.237
 4393SOL    HW113468   4.775   1.714   0.287
 4393SOL    HW213469   4.866   1.732   0.152
 4394SOL     OW13470   3.926   0.285   1.498
 4394SOL    HW113471   3.846   0.345   1.485
 4394SOL    HW213472   3.916   0.236   1.584
 4395SOL     OW13473   5.356   1.377   0.081
 4395SOL    HW113474   5.324   1.471   0.071
 4395SOL    HW213475   5.280   1.314   0.069
 4396SOL     OW13476   4.188   1.743   0.323
 4396SOL    HW113477   4.221   1.782   0.409
 4396SOL    HW213478   4.264   1.736   0.258
 4397SOL     OW13479   5.124   0.107   0.426
 4397SOL    HW113480   5.100   0.070   0.336
 4397SOL    HW213481   5.223   0.123   0.430
 4398SOL     OW13482   3.973   1.785   1.241
 4398SOL    HW113483   4.030   1.720   1.291
 4398SOL    HW213484   3.957   1.752   1.148
 4399SOL     OW13485   4.664   1.698   0.904
 4399SOL    HW113486   4.744   1.641   0.925
 4399SOL    HW213487   4.615   1.658   0.827
 4400SOL     OW13488   4.106   0.700   0.480
 4400SOL    HW113489   4.151   0.610   0.477
 4400SOL    HW213490   4.012   0.689   0.513
 4401SOL     OW13491   5.271   0.222   1.729
 4401SOL    HW113492   5.266   0.259   1.821
 4401SOL    HW213493   5.199   0.153   1.717
 4402SOL     OW13494   4.338   0.122   0.117
 4402SOL    HW113495   4.436   0.100   0.124
 4402SOL    HW213496   4.307   0.105   0.024
 4403SOL     OW13497   4.505   0.264   1.749
 4403SOL    HW113498   4.572   0.203   1.792
 4403SOL    HW213499   4.432   0.283   1.814
 4404SOL     OW13500   4.612   1.514   1.195
 4404SOL    HW113501   4.589   1.489   1.101
 4404SOL    HW213502   4.673   1.445   1.234
 4405SOL     OW13503   5.075   0.590   1.433
 4405SOL    HW113504   5.103   0.547   1.518
 4405SOL    HW213505   5.100   0.686   1.434
 4406SOL     OW13506   4.527   1.402   0.924
 4406SOL    HW113507   4.617   1.416   0.882
 4406SOL    HW213508   4.456   1.404   0.853
 4407SOL     OW13509   4.646   0.503   0.899
 4407SOL    HW113510   4.621   0.494   0.803
 4407SOL    HW213511   4.694   0.421   0.930
 4408SOL     OW13512   4.263   0.064   0.512
 4408SOL    HW113513   4.182   0.065   0.570
 4408SOL    HW213514   4.266   0.147   0.457
 4409SOL     OW13515   5.158   1.188   0.041
 4409SOL    HW113516   5.190   1.112   0.098
 4409SOL    HW213517   5.066   1.215   0.071
 4410SOL     OW13518   4.021   0.035   0.171
 4410SOL    HW113519   4.070   0.119   0.150
 4410SOL    HW213520   4.083  -0.030   0.216
 4411SOL     OW13521   4.659   0.236   0.480
 4411SOL    HW113522   4.611   0.277   0.402
 4411SOL    HW213523   4.758   0.234   0.461
 4412SOL     OW13524   4.800   0.683   1.464
 4412SOL    HW113525   4.720   0.622   1.467
 4412SOL    HW213526   4.881   0.630   1.440
 4413SOL     OW13527   4.951   1.570   0.793
 4413SOL    HW113528   4.972   1.644   0.728
 4413SOL    HW213529   5.019   1.570   0.866
 4414SOL     OW13530   4.183   1.152   0.741
 4414SOL    HW113531   4.112   1.125   0.806
 4414SOL    HW213532   4.157   1.124   0.648
 4415SOL     OW13533   4.995   1.797   0.591
 4415SOL    HW113534   5.039   1.861   0.527
 4415SOL    HW213535   4.945   1.849   0.661
 4416SOL     OW13536   4.756   0.549   0.016
 4416SOL    HW113537   4.715   0.631  -0.023
 4416SOL    HW213538   4.820   0.575   0.089
 4417SOL     OW13539   3.802   0.556   1.386
 4417SOL    HW113540   3.894   0.555   1.345
 4417SOL    HW213541   3.796   0.630   1.453
 4418SOL     OW13542   4.285   0.222   1.147
 4418SOL    HW113543   4.323   0.138   1.184
 4418SOL    HW213544   4.197   0.241   1.191
 4419SOL     OW13545   4.590   0.454   0.642
 4419SOL    HW113546   4.558   0.526   0.580
 4419SOL    HW213547   4.614   0.373   0.589
 4420SOL     OW13548   4.741   0.039   0.753
 4420SOL    HW113549   4.669   0.044   0.684
 4420SOL    HW213550   4.717  -0.030   0.822
 4421SOL     OW13551   5.153   1.173   0.867
 4421SOL    HW113552   5.098   1.089   0.860
 4421SOL    HW213553   5.179   1.202   0.775
 4422SOL     OW13554   5.190   0.590   0.992
 4422SOL    HW113555   5.160   0.495   0.999
 4422SOL    HW213556   5.263   0.606   1.058
 4423SOL     OW13557   5.581   0.833   0.377
 4423SOL    HW113558   5.623   0.769   0.441
 4423SOL    HW213559   5.543   0.782   0.299
 4424SOL     OW13560   4.212   1.385   0.174
 4424SOL    HW113561   4.125   1.370   0.221
 4424SOL    HW213562   4.195   1.411   0.079
 4425SOL     OW13563   5.388   1.280   0.657
 4425SOL    HW113564   5.487   1.288   0.671
 4425SOL    HW213565   5.343   1.364   0.688
 4426SOL     OW13566   5.114   0.575   0.078
 4426SOL    HW113567   5.060   0.554   0.159
 4426SOL    HW213568   5.205   0.534   0.087
 4427SOL     OW13569   4.251   0.256   0.328
 4427SOL    HW113570   4.278   0.197   0.253
 4427SOL    HW213571   4.251   0.351   0.297
 4428SOL     OW13572   5.478   1.223   1.588
 4428SOL    HW113573   5.569   1.184   1.575
 4428SOL    HW213574   5.486   1.319   1.612
 4429SOL     OW13575   4.788   1.347   1.340
 4429SOL    HW113576   4.708   1.324   1.395
 4429SOL    HW213577   4.871   1.321   1.389
 4430SOL     OW13578   5.316   1.629   1.625
 4430SOL    HW113579   5.343   1.663   1.535
 4430SOL    HW213580   5.395   1.591   1.671
 4431SOL     OW13581   4.835   1.195   1.100
 4431SOL    HW113582   4.795   1.239   1.181
 4431SOL    HW213583   4.794   1.232   1.017
 4432SOL     OW13584   5.362   1.099   1.079
 4432SOL    HW113585   5.367   1.180   1.138
 4432SOL    HW213586   5.276   1.101   1.028
 4433SOL     OW13587   4.639   0.089   1.402
 4433SOL    HW113588   4.664   0.069   1.307
 4433SOL    HW213589   4.711   0.145   1.444
 4434SOL     OW13590   4.704   1.116   1.719
 4434SOL    HW113591   4.605   1.122   1.729
 4434SOL    HW213592   4.727   1.036   1.663
 4435SOL     OW13593   4.429   1.050   0.368
 4435SOL    HW113594   4.415   1.057   0.467
 4435SOL    HW213595   4.513   0.999   0.350
 4436SOL     OW13596   4.134   0.813   1.251
 4436SOL    HW113597   4.220   0.825   1.301
 4436SOL    HW213598   4.092   0.726   1.278
 4437SOL     OW13599   4.998   0.386   1.262
 4437SOL    HW113600   5.019   0.460   1.326
 4437SOL    HW213601   4.909   0.403   1.219
 4438SOL     OW13602   3.788   1.564   1.331
 4438SOL    HW113603   3.742   1.646   1.297
 4438SOL    HW213604   3.886   1.583   1.340
 4439SOL     OW13605   4.091   1.100   0.501
 4439SOL    HW113606   4.084   1.183   0.445
 4439SOL    HW213607   4.095   1.020   0.441
 4440SOL     OW13608   4.290   0.537   0.865
 4440SOL    HW113609   4.302   0.603   0.791
 4440SOL    HW213610   4.336   0.571   0.948
 4441SOL     OW13611   4.976   1.348   0.388
 4441SOL    HW113612   5.026   1.425   0.428
 4441SOL    HW213613   4.881   1.350   0.420
 4442SOL     OW13614   4.996   1.445   1.142
 4442SOL    HW113615   5.043   1.458   1.229
 4442SOL    HW213616   4.930   1.371   1.151
 4443SOL     OW13617   5.306   0.639   0.472
 4443SOL    HW113618   5.275   0.700   0.545
 4443SOL    HW213619   5.356   0.691   0.403
 4444SOL     OW13620   4.078   1.510   1.329
 4444SOL    HW113621   4.057   1.466   1.242
 4444SOL    HW213622   4.175   1.536   1.332
 4445SOL     OW13623   4.126   0.751   1.598
 4445SOL    HW113624   4.194   0.806   1.551
 4445SOL    HW213625   4.166   0.663   1.625
 4446SOL     OW13626   5.311   0.779   1.670
 4446SOL    HW113627   5.219   0.817   1.665
 4446SOL    HW213628   5.371   0.826   1.605
 4447SOL     OW13629   4.737   0.105   1.770
 4447SOL    HW113630   4.743   0.190   1.718
 4447SOL    HW213631   4.769   0.029   1.713
 4448SOL     OW13632   4.228   0.050   1.740
 4448SOL    HW113633   4.186  -0.007   1.670
 4448SOL    HW213634   4.162   0.119   1.772
 4449SOL     OW13635   4.297   0.870   1.029
 4449SOL    HW113636   4.341   0.959   1.020
 4449SOL    HW213637   4.234   0.870   1.106
 4450SOL     OW13638   5.084   0.862   1.045
 4450SOL    HW113639   5.009   0.862   0.979
 4450SOL    HW213640   5.121   0.770   1.054
 4451SOL     OW13641   4.933   0.525   0.275
 4451SOL    HW113642   4.946   0.441   0.329
 4451SOL    HW213643   4.904   0.599   0.335
 4452SOL     OW13644   4.031   0.213   1.231
 4452SOL    HW113645   4.008   0.250   1.321
 4452SOL    HW213646   4.001   0.118   1.225
 4453SOL     OW13647   3.761   1.310   1.282
 4453SOL    HW113648   3.814   1.261   1.350
 4453SOL    HW213649   3.783   1.408   1.287
 4454SOL     OW13650   4.456   0.634   1.064
 4454SOL    HW113651   4.515   0.608   0.988
 4454SOL    HW213652   4.428   0.730   1.053
 4455SOL     OW13653   5.452   0.935   1.854
 4455SOL    HW113654   5.406   0.928   1.765
 4455SOL    HW213655   5.390   0.979   1.920
 4456SOL     OW13656   4.031   0.063   0.618
 4456SOL    HW113657   4.020   0.157   0.651
 4456SOL    HW213658   4.026   0.000   0.695
 4457SOL     OW13659   5.346   0.367   0.374
 4457SOL    HW113660   5.348   0.291   0.438
 4457SOL    HW213661   5.298   0.444   0.414
 4458SOL     OW13662   4.747   0.766   0.966
 4458SOL    HW113663   4.762   0.787   1.062
 4458SOL    HW213664   4.717   0.671   0.957
 4459SOL     OW13665   4.704   1.573   1.700
 4459SOL    HW113666   4.684   1.617   1.612
 4459SOL    HW213667   4.743   1.482   1.684
 4460SOL     OW13668   5.583   1.518   1.605
 4460SOL    HW113669   5.597   1.545   1.510
 4460SOL    HW213670   5.666   1.540   1.658
 4461SOL     OW13671   4.074   0.898   1.804
 4461SOL    HW113672   4.150   0.942   1.852
 4461SOL    HW213673   4.109   0.851   1.722
 4462SOL     OW13674   5.264   0.274   0.125
 4462SOL    HW113675   5.203   0.199   0.148
 4462SOL    HW213676   5.286   0.326   0.208
 4463SOL     OW13677   5.027   0.838   0.042
 4463SOL    HW113678   5.061   0.745   0.057
 4463SOL    HW213679   5.045   0.865  -0.053
 4464SOL     OW13680   4.792   1.333   0.849
 4464SOL    HW113681   4.799   1.249   0.794
 4464SOL    HW213682   4.854   1.402   0.813
 4465SOL     OW13683   4.043   0.810   0.949
 4465SOL    HW113684   4.136   0.846   0.954
 4465SOL    HW213685   4.037   0.725   1.001
 4466SOL     OW13686   4.063   0.509   1.006
 4466SOL    HW113687   4.011   0.426   0.989
 4466SOL    HW213688   4.140   0.514   0.942
 4467SOL     OW13689   4.862   0.380   1.678
 4467SOL    HW113690   4.817   0.443   1.742
 4467SOL    HW213691   4.955   0.411   1.661
 4468SOL     OW13692   4.884   0.207   1.477
 4468SOL    HW113693   4.884   0.271   1.554
 4468SOL    HW213694   4.912   0.255   1.394
 4469SOL     OW13695   3.812   1.801   0.927
 4469SOL    HW113696   3.770   1.715   0.900
 4469SOL    HW213697   3.906   1.804   0.893
 4470SOL     OW13698   4.228   1.568   0.910
 4470SOL    HW113699   4.294   1.642   0.919
 4470SOL    HW213700   4.272   1.489   0.868
 4471SOL     OW13701   4.726   0.796   1.238
 4471SOL    HW113702   4.767   0.764   1.324
 4471SOL    HW213703   4.630   0.769   1.235
 4472SOL     OW13704   3.764   0.544   1.114
 4472SOL    HW113705   3.849   0.511   1.073
 4472SOL    HW213706   3.777   0.559   1.212
 4473SOL     OW13707   3.913   0.520   1.722
 4473SOL    HW113708   3.972   0.480   1.652
 4473SOL    HW213709   3.855   0.591   1.681
 4474SOL     OW13710   5.093   0.950   1.660
 4474SOL    HW113711   5.132   1.039   1.680
 4474SOL    HW213712   5.103   0.930   1.563
 4475SOL     OW13713   4.539   0.572   0.325
 4475SOL    HW113714   4.546   0.483   0.279
 4475SOL    HW213715   4.445   0.606   0.317
 4476SOL     OW13716   5.381   0.604   1.206
 4476SOL    HW113717   5.343   0.535   1.268
 4476SOL    HW213718   5.463   0.568   1.162
 4477SOL     OW13719   3.976   1.564   1.744
 4477SOL    HW113720   3.946   1.621   1.820
 4477SOL    HW213721   3.969   1.467   1.770
 4478SOL     OW13722   4.395   0.464   1.269
 4478SOL    HW113723   4.361   0.375   1.239
 4478SOL    HW213724   4.421   0.518   1.189
 4479SOL     OW13725   4.654   1.678   1.465
 4479SOL    HW113726   4.630   1.660   1.370
 4479SOL    HW213727   4.684   1.772   1.475
 4480SOL     OW13728   4.197   0.500   0.191
 4480SOL    HW113729   4.258   0.580   0.195
 4480SOL    HW213730   4.102   0.531   0.198
 4481SOL     OW13731   3.883   1.137   1.466
 4481SOL    HW113732   3.905   1.076   1.542
 4481SOL    HW213733   3.893   1.088   1.380
 4482SOL     OW13734   5.071   1.059   1.234
 4482SOL    HW113735   5.095   0.996   1.160
 4482SOL    HW213736   4.981   1.099   1.216
 4483SOL     OW13737   5.026   0.855   0.309
 4483SOL    HW113738   4.940   0.824   0.351
 4483SOL    HW213739   5.022   0.841   0.210
 4484SOL     OW13740   5.483   1.747   1.154
 4484SOL    HW113741   5.544   1.777   1.081
 4484SOL    HW213742   5.445   1.658   1.132
 4485SOL     OW13743   4.976   1.731   1.128
 4485SOL    HW113744   5.060   1.736   1.074
 4485SOL    HW213745   4.953   1.635   1.146
 4486SOL     OW13746   3.807   1.258   1.022
 4486SOL    HW113747   3.802   1.257   1.122
 4486SOL    HW213748   3.724   1.217   0.984
 4487SOL     OW13749   4.412   1.662   1.716
 4487SOL    HW113750   4.356   1.743   1.725
 4487SOL    HW213751   4.464   1.666   1.630
 4488SOL     OW13752   4.627   0.086   0.133
 4488SOL    HW113753   4.678   0.087   0.047
 4488SOL    HW213754   4.683   0.044   0.204
 4489SOL     OW13755   5.450   0.135   0.523
 4489SOL    HW113756   5.523   0.118   0.456
 4489SOL    HW213757   5.419   0.048   0.561
 4490SOL     OW13758   5.112   1.573   0.477
 4490SOL    HW113759   5.179   1.585   0.403
 4490SOL    HW213760   5.072   1.662   0.500
 4491SOL     OW13761   3.854   1.794   1.851
 4491SOL    HW113762   3.813   1.720   1.904
 4491SOL    HW213763   3.918   1.845   1.909
 4492SOL     OW13764   5.004   0.927   0.672
 4492SOL    HW113765   5.064   0.846   0.674
 4492SOL    HW213766   5.044   0.996   0.612
 4493SOL     OW13767   4.554   1.273   1.422
 4493SOL    HW113768   4.549   1.306   1.517
 4493SOL    HW213769   4.468   1.292   1.376
 4494SOL     OW13770   4.396   1.616   0.154
 4494SOL    HW113771   4.405   1.626   0.055
 4494SOL    HW213772   4.356   1.527   0.175
 4495SOL     OW13773   5.374   1.720   1.394
 4495SOL    HW113774   5.427   1.730   1.310
 4495SOL    HW213775   5.347   1.810   1.428
 4496SOL     OW13776   5.565   0.175   0.963
 4496SOL    HW113777   5.604   0.090   0.927
 4496SOL    HW213778   5.467   0.177   0.944
 4497SOL     OW13779   3.987   0.326   0.720
 4497SOL    HW113780   3.908   0.377   0.686
 4497SOL    HW213781   3.978   0.311   0.818
 4498SOL     OW13782   4.918   1.612   0.031
 4498SOL    HW113783   4.924   1.519   0.068
 4498SOL    HW213784   4.859   1.612  -0.049
 4499SOL     OW13785   4.546   1.002   1.372
 4499SOL    HW113786   4.586   1.001   1.280
 4499SOL    HW213787   4.556   1.094   1.412
 4500SOL     OW13788   4.640   0.910   0.291
 4500SOL    HW113789   4.703   0.948   0.223
 4500SOL    HW213790   4.680   0.827   0.330
 4501SOL     OW13791   5.228   1.607   0.044
 4501SOL    HW113792   5.136   1.644   0.051
 4501SOL    HW213793   5.266   1.627  -0.046
 4502SOL     OW13794   4.096   1.288   1.490
 4502SOL    HW113795   4.083   1.381   1.456
 4502SOL    HW213796   4.012   1.236   1.477
 4503SOL     OW13797   5.338   1.292   1.289
 4503SOL    HW113798   5.398   1.295   1.369
 4503SOL    HW213799   5.263   1.356   1.302
 4504SOL     OW13800   4.763   1.098   0.696
 4504SOL    HW113801   4.693   1.051   0.750
 4504SOL    HW213802   4.822   1.030   0.653
 4505SOL     OW13803   4.738   0.236   0.971
 4505SOL    HW113804   4.730   0.200   0.878
 4505SOL    HW213805   4.736   0.160   1.036
 4506SOL     OW13806   4.314   1.487   0.491
 4506SOL    HW113807   4.356   1.429   0.421
 4506SOL    HW213808   4.270   1.566   0.447
 4507SOL     OW13809   5.433   0.385   1.381
 4507SOL    HW113810   5.506   0.454   1.385
 4507SOL    HW213811   5.461   0.310   1.322
 4508SOL     OW13812   3.979   1.348   0.290
 4508SOL    HW113813   3.883   1.349   0.263
 4508SOL    HW213814   3.991   1.401   0.374
 4509SOL     OW13815   3.829   1.013   1.726
 4509SOL    HW113816   3.752   0.980   1.780
 4509SOL    HW213817   3.914   0.983   1.768
 4510SOL     OW13818   4.396   0.203   1.489
 4510SOL    HW113819   4.486   0.187   1.449
 4510SOL    HW213820   4.404   0.208   1.588
 4511SOL     OW13821   3.799   0.345   0.033
 4511SOL    HW113822   3.707   0.317   0.004
 4511SOL    HW213823   3.830   0.422  -0.023
 4512SOL     OW13824   5.164   0.856   1.398
 4512SOL    HW113825   5.107   0.908   1.335
 4512SOL    HW213826   5.260   0.868   1.374
 4513SOL     OW13827   3.796   0.166   0.318
 4513SOL    HW113828   3.779   0.249   0.264
 4513SOL    HW213829   3.886   0.129   0.296
 4514SOL     OW13830   4.907   1.335   0.119
 4514SOL    HW113831   4.808   1.324   0.121
 4514SOL    HW213832   4.941   1.350   0.212
 4515SOL     OW13833   4.337   0.842   1.431
 4515SOL    HW113834   4.393   0.923   1.414
 4515SOL    HW213835   4.396   0.762   1.434
 4516SOL     OW13836   5.217   1.767   0.959
 4516SOL    HW113837   5.250   1.831   0.890
 4516SOL    HW213838   5.283   1.761   1.034
 4517SOL     OW13839   4.440   0.565   1.708
 4517SOL    HW113840   4.459   0.630   1.782
 4517SOL    HW213841   4.500   0.485   1.717
 4518SOL     OW13842   5.174   1.220   1.633
 4518SOL    HW113843   5.165   1.210   1.732
 4518SOL    HW213844   5.270   1.213   1.607
 4519SOL     OW13845   4.114   1.741   1.560
 4519SOL    HW113846   4.023   1.782   1.558
 4519SOL    HW213847   4.107   1.647   1.592
 4520SOL     OW13848   5.398   0.883   1.254
 4520SOL    HW113849   5.371   0.794   1.217
 4520SOL    HW213850   5.399   0.951   1.181
 4521SOL     OW13851   4.949   0.325   0.449
 4521SOL    HW113852   5.014   0.251   0.438
 4521SOL    HW213853   4.969   0.375   0.533
 4522SOL     OW13854   4.318   0.745   0.652
 4522SOL    HW113855   4.368   0.830   0.633
 4522SOL    HW213856   4.230   0.747   0.604
 4523SOL     OW13857   5.501   0.342   1.642
 4523SOL    HW113858   5.484   0.373   1.548
 4523SOL    HW213859   5.417   0.305   1.680
 4524SOL     OW13860   5.454   0.934   1.517
 4524SOL    HW113861   5.492   1.025   1.532
 4524SOL    HW213862   5.446   0.917   1.418
 4525SOL     OW13863   4.583   1.374   0.016
 4525SOL    HW113864   4.537   1.389   0.104
 4525SOL    HW213865   4.627   1.459  -0.014
 4526SOL     OW13866   4.385   1.790   0.953
 4526SOL    HW113867   4.339   1.878   0.940
 4526SOL    HW213868   4.484   1.802   0.946
 4527SOL     OW13869   4.583   0.956   0.861
 4527SOL    HW113870   4.637   0.887   0.909
 4527SOL    HW213871   4.551   1.025   0.927
 4528SOL     OW13872   4.807   0.984   0.087
 4528SOL    HW113873   4.784   1.037   0.005
 4528SOL    HW213874   4.888   0.928   0.068
 4529SOL     OW13875   5.585   1.569   0.851
 4529SOL    HW113876   5.514   1.557   0.781
 4529SOL    HW213877   5.586   1.490   0.911
 4530SOL     OW13878   3.945   1.314   1.844
 4530SOL    HW113879   3.880   1.241   1.823
 4530SOL    HW213880   3.949   1.328   1.942
 4531SOL     OW13881   3.803   1.240   0.653
 4531SOL    HW113882   3.802   1.193   0.741
 4531SOL    HW213883   3.885   1.212   0.602
 4532SOL     OW13884   4.396   1.391   1.624
 4532SOL    HW113885   4.318   1.341   1.662
 4532SOL    HW213886   4.393   1.486   1.655
 4533SOL     OW13887   5.548   0.192   1.227
 4533SOL    HW113888   5.544   0.102   1.271
 4533SOL    HW213889   5.551   0.181   1.128
 4534SOL     OW13890   4.152   0.424   0.520
 4534SOL    HW113891   4.182   0.352   0.458
 4534SOL    HW213892   4.113   0.384   0.603
 4535SOL     OW13893   5.429   1.487   1.104
 4535SOL    HW113894   5.336   1.462   1.077
 4535SOL    HW213895   5.455   1.437   1.186
 4536SOL     OW13896   4.041   0.547   1.280
 4536SOL    HW113897   4.079   0.488   1.352
 4536SOL    HW213898   4.081   0.521   1.192
 4537SOL     OW13899   4.536   1.586   0.687
 4537SOL    HW113900   4.568   1.596   0.593
 4537SOL    HW213901   4.457   1.524   0.689
 4538SOL     OW13902   5.148   0.214   1.112
 4538SOL    HW113903   5.200   0.149   1.167
 4538SOL    HW213904   5.099   0.277   1.173
 4539SOL     OW13905   4.725   0.034   1.154
 4539SOL    HW113906   4.662  -0.038   1.123
 4539SOL    HW213907   4.818  -0.002   1.154
 4540SOL     OW13908   4.494   1.330   0.301
 4540SOL    HW113909   4.448   1.243   0.318
 4540SOL    HW213910   4.585   1.327   0.342
 4541SOL     OW13911   4.342   1.567   1.284
 4541SOL    HW113912   4.337   1.649   1.341
 4541SOL    HW213913   4.431   1.564   1.239
 4542SOL     OW13914   5.076   0.052   0.168
 4542SOL    HW113915   5.111   0.011   0.084
 4542SOL    HW213916   4.986   0.014   0.188
 4543SOL     OW13917   5.024   0.453   0.691
 4543SOL    HW113918   4.965   0.533   0.695
 4543SOL    HW213919   5.039   0.418   0.784
 4544SOL     OW13920   5.317   0.221   0.882
 4544SOL    HW113921   5.233   0.220   0.936
 4544SOL    HW213922   5.319   0.304   0.826
 4545SOL     OW13923   3.763   1.077   0.300
 4545SOL    HW113924   3.862   1.066   0.291
 4545SOL    HW213925   3.723   0.991   0.332
 4546SOL     OW13926   4.599   1.646   0.337
 4546SOL    HW113927   4.522   1.611   0.283
 4546SOL    HW213928   4.567   1.717   0.399
 4547SOL     OW13929   3.954   0.628   1.975
 4547SOL    HW113930   3.861   0.626   2.012
 4547SOL    HW213931   3.955   0.589   1.883
 4548SOL     OW13932   3.949   0.275   2.858
 4548SOL    HW113933   3.984   0.258   2.950
 4548SOL    HW213934   3.861   0.230   2.846
 4549SOL     OW13935   3.743   0.368   2.509
 4549SOL    HW113936   3.661   0.411   2.548
 4549SOL    HW213937   3.715   0.295   2.446
 4550SOL     OW13938   4.293   1.275   3.027
 4550SOL    HW113939   4.200   1.268   2.990
 4550SOL    HW213940   4.304   1.364   3.071
 4551SOL     OW13941   5.279   1.511   2.565
 4551SOL    HW113942   5.222   1.495   2.646
 4551SOL    HW213943   5.220   1.521   2.485
 4552SOL     OW13944   4.859   0.703   2.579
 4552SOL    HW113945   4.916   0.781   2.554
 4552SOL    HW213946   4.799   0.729   2.655
 4553SOL     OW13947   5.479   0.607   2.093
 4553SOL    HW113948   5.467   0.594   1.994
 4553SOL    HW213949   5.449   0.526   2.142
 4554SOL     OW13950   4.492   1.144   2.885
 4554SOL    HW113951   4.414   1.161   2.945
 4554SOL    HW213952   4.526   1.231   2.849
 4555SOL     OW13953   4.574   0.798   3.685
 4555SOL    HW113954   4.570   0.874   3.750
 4555SOL    HW213955   4.596   0.834   3.594
 4556SOL     OW13956   4.409   1.012   2.527
 4556SOL    HW113957   4.478   0.996   2.597
 4556SOL    HW213958   4.336   1.069   2.565
 4557SOL     OW13959   4.410   1.161   3.665
 4557SOL    HW113960   4.470   1.240   3.679
 4557SOL    HW213961   4.324   1.192   3.624
 4558SOL     OW13962   4.059   1.435   2.923
 4558SOL    HW113963   3.981   1.404   2.870
 4558SOL    HW213964   4.117   1.493   2.866
 4559SOL     OW13965   5.184   1.505   3.201
 4559SOL    HW113966   5.208   1.599   3.227
 4559SOL    HW213967   5.168   1.451   3.283
 4560SOL     OW13968   4.162   0.392   3.361
 4560SOL    HW113969   4.244   0.336   3.370
 4560SOL    HW213970   4.081   0.334   3.365
 4561SOL     OW13971   5.327   0.447   2.599
 4561SOL    HW113972   5.253   0.493   2.549
 4561SOL    HW213973   5.378   0.515   2.652
 4562SOL     OW13974   3.955   1.713   2.345
 4562SOL    HW113975   3.989   1.790   2.399
 4562SOL    HW213976   3.999   1.713   2.255
 4563SOL     OW13977   4.851   1.341   3.552
 4563SOL    HW113978   4.898   1.341   3.640
 4563SOL    HW213979   4.803   1.254   3.541
 4564SOL     OW13980   3.954   1.434   2.400
 4564SOL    HW113981   3.928   1.530   2.400
 4564SOL    HW213982   3.883   1.380   2.445
 4565SOL     OW13983   3.964   1.091   2.748
 4565SOL    HW113984   3.978   1.007   2.800
 4565SOL    HW213985   3.909   1.155   2.803
 4566SOL     OW13986   4.344   1.786   3.301
 4566SOL    HW113987   4.252   1.769   3.336
 4566SOL    HW213988   4.372   1.878   3.327
 4567SOL     OW13989   4.330   0.964   1.985
 4567SOL    HW113990   4.337   1.048   1.931
 4567SOL    HW213991   4.376   0.977   2.073
 4568SOL     OW13992   5.318   0.114   3.342
 4568SOL    HW113993   5.300   0.181   3.270
 4568SOL    HW213994   5.315   0.160   3.431
 4569SOL     OW13995   3.846   0.643   2.425
 4569SOL    HW113996   3.801   0.555   2.442
 4569SOL    HW213997   3.845   0.697   2.509
 4570SOL     OW13998   5.566   1.767   2.221
 4570SOL    HW113999   5.620   1.738   2.301
 4570SOL    HW214000   5.596   1.857   2.192
 4571SOL     OW14001   3.751   1.596   1.979
 4571SOL    HW114002   3.732   1.500   2.000
 4571SOL    HW214003   3.718   1.654   2.054
 4572SOL     OW14004   5.413   0.922   2.474
 4572SOL    HW114005   5.508   0.893   2.482
 4572SOL    HW214006   5.405   0.987   2.399
 4573SOL     OW14007   5.365   1.108   2.294
 4573SOL    HW114008   5.451   1.110   2.242
 4573SOL    HW214009   5.379   1.155   2.382
 4574SOL     OW14010   3.837   0.737   3.459
 4574SOL    HW114011   3.925   0.724   3.504
 4574SOL    HW214012   3.824   0.834   3.437
 4575SOL     OW14013   4.337   1.365   2.588
 4575SOL    HW114014   4.288   1.278   2.597
 4575SOL    HW214015   4.314   1.408   2.501
 4576SOL     OW14016   5.017   1.228   3.285
 4576SOL    HW114017   5.054   1.155   3.227
 4576SOL    HW214018   5.069   1.233   3.370
 4577SOL     OW14019   4.533   0.004   2.364
 4577SOL    HW114020   4.573   0.095   2.355
 4577SOL    HW214021   4.433   0.012   2.370
 4578SOL     OW14022   3.921   0.976   3.126
 4578SOL    HW114023   4.010   0.931   3.112
 4578SOL    HW214024   3.848   0.911   3.107
 4579SOL     OW14025   5.249   0.999   2.052
 4579SOL    HW114026   5.186   0.923   2.065
 4579SOL    HW214027   5.297   1.017   2.138
 4580SOL     OW14028   4.911   1.792   3.478
 4580SOL    HW114029   4.935   1.852   3.402
 4580SOL    HW214030   4.918   1.697   3.448
 4581SOL     OW14031   4.041   0.251   3.663
 4581SOL    HW114032   4.112   0.322   3.669
 4581SOL    HW214033   3.953   0.290   3.691
 4582SOL     OW14034   5.190   1.417   2.815
 4582SOL    HW114035   5.131   1.423   2.895
 4582SOL    HW214036   5.175   1.329   2.769
 4583SOL     OW14037   5.391   1.714   2.434
 4583SOL    HW114038   5.350   1.691   2.346
 4583SOL    HW214039   5.373   1.640   2.499
 4584SOL     OW14040   4.322   0.729   2.132
 4584SOL    HW114041   4.346   0.798   2.064
 4584SOL    HW214042   4.244   0.762   2.186
 4585SOL     OW14043   5.005   0.345   2.806
 4585SOL    HW114044   4.919   0.295   2.793
 4585SOL    HW214045   5.067   0.291   2.862
 4586SOL     OW14046   5.300   1.662   2.169
 4586SOL    HW114047   5.389   1.708   2.172
 4586SOL    HW214048   5.279   1.638   2.074
 4587SOL     OW14049   4.531   0.605   3.327
 4587SOL    HW114050   4.484   0.602   3.416
 4587SOL    HW214051   4.480   0.550   3.261
 4588SOL     OW14052   5.118   0.469   3.536
 4588SOL    HW114053   5.098   0.512   3.624
 4588SOL    HW214054   5.196   0.407   3.545
 4589SOL     OW14055   4.697   0.890   3.434
 4589SOL    HW114056   4.743   0.806   3.405
 4589SOL    HW214057   4.641   0.924   3.359
 4590SOL     OW14058   4.715   0.410   3.104
 4590SOL    HW114059   4.638   0.444   3.158
 4590SOL    HW214060   4.681   0.359   3.025
 4591SOL     OW14061   4.765   0.701   2.291
 4591SOL    HW114062   4.791   0.697   2.387
 4591SOL    HW214063   4.680   0.650   2.277
 4592SOL     OW14064   3.800   0.811   2.651
 4592SOL    HW114065   3.899   0.799   2.660
 4592SOL    HW214066   3.776   0.906   2.672
 4593SOL     OW14067   3.854   1.821   3.433
 4593SOL    HW114068   3.844   1.806   3.532
 4593SOL    HW214069   3.768   1.857   3.397
 4594SOL     OW14070   4.589   0.348   2.057
 4594SOL    HW114071   4.648   0.411   2.008
 4594SOL    HW214072   4.608   0.254   2.028
 4595SOL     OW14073   5.443   0.585   3.693
 4595SOL    HW114074   5.417   0.674   3.657
 4595SOL    HW214075   5.441   0.517   3.620
 4596SOL     OW14076   5.086   1.144   2.407
 4596SOL    HW114077   5.169   1.115   2.359
 4596SOL    HW214078   5.037   1.211   2.351
 4597SOL     OW14079   4.274   0.196   2.747
 4597SOL    HW114080   4.269   0.191   2.847
 4597SOL    HW214081   4.276   0.292   2.718
 4598SOL     OW14082   4.732   1.456   2.339
 4598SOL    HW114083   4.686   1.528   2.287
 4598SOL    HW214084   4.728   1.476   2.437
 4599SOL     OW14085   4.075   1.801   2.715
 4599SOL    HW114086   4.125   1.715   2.721
 4599SOL    HW214087   4.140   1.878   2.712
 4600SOL     OW14088   5.519   1.066   2.735
 4600SOL    HW114089   5.457   1.051   2.659
 4600SOL    HW214090   5.467   1.077   2.820
 4601SOL     OW14091   4.951   1.550   3.368
 4601SOL    HW114092   4.957   1.473   3.432
 4601SOL    HW214093   4.899   1.524   3.288
 4602SOL     OW14094   4.045   0.943   2.104
 4602SOL    HW114095   4.127   0.982   2.062
 4602SOL    HW214096   4.018   0.861   2.055
 4603SOL     OW14097   5.182   0.735   2.590
 4603SOL    HW114098   5.177   0.670   2.665
 4603SOL    HW214099   5.262   0.794   2.603
 4604SOL     OW14100   4.185   1.266   3.589
 4604SOL    HW114101   4.135   1.267   3.503
 4604SOL    HW214102   4.122   1.248   3.665
 4605SOL     OW14103   4.835   1.776   2.099
 4605SOL    HW114104   4.775   1.714   2.149
 4605SOL    HW214105   4.866   1.732   2.014
 4606SOL     OW14106   3.926   0.285   3.360
 4606SOL    HW114107   3.846   0.345   3.347
 4606SOL    HW214108   3.916   0.236   3.446
 4607SOL     OW14109   5.356   1.377   1.943
 4607SOL    HW114110   5.324   1.471   1.933
 4607SOL    HW214111   5.280   1.314   1.931
 4608SOL     OW14112   4.188   1.743   2.185
 4608SOL    HW114113   4.221   1.782   2.271
 4608SOL    HW214114   4.264   1.736   2.120
 4609SOL     OW14115   5.124   0.107   2.288
 4609SOL    HW114116   5.100   0.070   2.198
 4609SOL    HW214117   5.223   0.123   2.292
 4610SOL     OW14118   3.973   1.785   3.103
 4610SOL    HW114119   4.030   1.720   3.153
 4610SOL    HW214120   3.957   1.752   3.010
 4611SOL     OW14121   4.664   1.698   2.766
 4611SOL    HW114122   4.744   1.641   2.787
 4611SOL    HW214123   4.615   1.658   2.689
 4612SOL     OW14124   4.106   0.700   2.342
 4612SOL    HW114125   4.151   0.610   2.339
 4612SOL    HW214126   4.012   0.689   2.375
 4613SOL     OW14127   5.271   0.222   3.591
 4613SOL    HW114128   5.266   0.259   3.683
 4613SOL    HW214129   5.199   0.153   3.579
 4614SOL     OW14130   4.338   0.122   1.979
 4614SOL    HW114131   4.436   0.100   1.986
 4614SOL    HW214132   4.307   0.105   1.886
 4615SOL     OW14133   4.505   0.264   3.611
 4615SOL    HW114134   4.572   0.203   3.654
 4615SOL    HW214135   4.432   0.283   3.676
 4616SOL     OW14136   4.612   1.514   3.057
 4616SOL    HW114137   4.589   1.489   2.963
 4616SOL    HW214138   4.673   1.445   3.096
 4617SOL     OW14139   5.075   0.590   3.295
 4617SOL    HW114140   5.103   0.547   3.380
 4617SOL    HW214141   5.100   0.686   3.296
 4618SOL     OW14142   4.527   1.402   2.786
 4618SOL    HW114143   4.617   1.416   2.744
 4618SOL    HW214144   4.456   1.404   2.715
 4619SOL     OW14145   4.646   0.503   2.761
 4619SOL    HW114146   4.621   0.494   2.665
 4619SOL    HW214147   4.694   0.421   2.792
 4620SOL     OW14148   4.263   0.064   2.374
 4620SOL    HW114149   4.182   0.065   2.432
 4620SOL    HW214150   4.266   0.147   2.319
 4621SOL     OW14151   5.158   1.188   1.903
 4621SOL    HW114152   5.190   1.112   1.960
 4621SOL    HW214153   5.066   1.215   1.933
 4622SOL     OW14154   4.021   0.035   2.033
 4622SOL    HW114155   4.070   0.119   2.012
 4622SOL    HW214156   4.083  -0.030   2.078
 4623SOL     OW14157   4.659   0.236   2.342
 4623SOL    HW114158   4.611   0.277   2.264
 4623SOL    HW214159   4.758   0.234   2.323
 4624SOL     OW14160   4.800   0.683   3.326
 4624SOL    HW114161   4.720   0.622   3.329
 4624SOL    HW214162   4.881   0.630   3.302
 4625SOL     OW14163   4.951   1.570   2.655
 4625SOL    HW114164   4.972   1.644   2.590
 4625SOL    HW214165   5.019   1.570   2.728
 4626SOL     OW14166   4.183   1.152   2.603
 4626SOL    HW114167   4.112   1.125   2.668
 4626SOL    HW214168   4.157   1.124   2.510
 4627SOL     OW14169   4.995   1.797   2.453
 4627SOL    HW114170   5.039   1.861   2.389
 4627SOL    HW214171   4.945   1.849   2.523
 4628SOL     OW14172   4.756   0.549   1.878
 4628SOL    HW114173   4.715   0.631   1.839
 4628SOL    HW214174   4.820   0.575   1.951
 4629SOL     OW14175   3.802   0.556   3.248
 4629SOL    HW114176   3.894   0.555   3.207
 4629SOL    HW214177   3.796   0.630   3.315
 4630SOL     OW14178   4.285   0.222   3.009
 4630SOL    HW114179   4.323   0.138   3.046
 4630SOL    HW214180   4.197   0.241   3.053
 4631SOL     OW14181   4.590   0.454   2.504
 4631SOL    HW114182   4.558   0.526   2.442
 4631SOL    HW214183   4.614   0.373   2.451
 4632SOL     OW14184   4.741   0.039   2.615
 4632SOL    HW114185   4.669   0.044   2.546
 4632SOL    HW214186   4.717  -0.030   2.684
 4633SOL     OW14187   5.153   1.173   2.729
 4633SOL    HW114188   5.098   1.089   2.722
 4633SOL    HW214189   5.179   1.202   2.637
 4634SOL     OW14190   5.190   0.590   2.854
 4634SOL    HW114191   5.160   0.495   2.861
 4634SOL    HW214192   5.263   0.606   2.920
 4635SOL     OW14193   5.581   0.833   2.239
 4635SOL    HW114194   5.623   0.769   2.303
 4635SOL    HW214195   5.543   0.782   2.161
 4636SOL     OW14196   4.212   1.385   2.036
 4636SOL    HW114197   4.125   1.370   2.083
 4636SOL    HW214198   4.195   1.411   1.941
 4637SOL     OW14199   5.388   1.280   2.519
 4637SOL    HW114200   5.487   1.288   2.533
 4637SOL    HW214201   5.343   1.364   2.550
 4638SOL     OW14202   5.114   0.575   1.940
 4638SOL    HW114203   5.060   0.554   2.021
 4638SOL    HW214204   5.205   0.534   1.949
 4639SOL     OW14205   4.251   0.256   2.190
 4639SOL    HW114206   4.278   0.197   2.115
 4639SOL    HW214207   4.251   0.351   2.159
 4640SOL     OW14208   5.478   1.223   3.450
 4640SOL    HW114209   5.569   1.184   3.437
 4640SOL    HW214210   5.486   1.319   3.474
 4641SOL     OW14211   4.788   1.347   3.202
 4641SOL    HW114212   4.708   1.324   3.257
 4641SOL    HW214213   4.871   1.321   3.251
 4642SOL     OW14214   5.316   1.629   3.487
 4642SOL    HW114215   5.343   1.663   3.397
 4642SOL    HW214216   5.395   1.591   3.533
 4643SOL     OW14217   4.835   1.195   2.962
 4643SOL    HW114218   4.795   1.239   3.043
 4643SOL    HW214219   4.794   1.232   2.879
 4644SOL     OW14220   5.362   1.099   2.941
 4644SOL    HW114221   5.367   1.180   3.000
 4644SOL    HW214222   5.276   1.101   2.890
 4645SOL     OW14223   4.639   0.089   3.264
 4645SOL    HW114224   4.664   0.069   3.169
 4645SOL    HW214225   4.711   0.145   3.306
 4646SOL     OW14226   4.704   1.116   3.581
 4646SOL    HW114227   4.605   1.122   3.591
 4646SOL    HW214228   4.727   1.036   3.525
 4647SOL     OW14229   4.429   1.050   2.230
 4647SOL    HW114230   4.415   1.057   2.329
 4647SOL    HW214231   4.513   0.999   2.212
 4648SOL     OW14232   4.134   0.813   3.113
 4648SOL    HW114233   4.220   0.825   3.163
 4648SOL    HW214234   4.092   0.726   3.140
 4649SOL     OW14235   4.998   0.386   3.124
 4649SOL    HW114236   5.019   0.460   3.188
 4649SOL    HW214237   4.909   0.403   3.081
 4650SOL     OW14238   3.788   1.564   3.193
 4650SOL    HW114239   3.742   1.646   3.159
 4650SOL    HW214240   3.886   1.583   3.202
 4651SOL     OW14241   4.091   1.100   2.363
 4651SOL    HW114242   4.084   1.183   2.307
 4651SOL    HW214243   4.095   1.020   2.303
 4652SOL     OW14244   4.290   0.537   2.727
 4652SOL    HW114245   4.302   0.603   2.653
 4652SOL    HW214246   4.336   0.571   2.810
 4653SOL     OW14247   4.976   1.348   2.250
 4653SOL    HW114248   5.026   1.425   2.290
 4653SOL    HW214249   4.881   1.350   2.282
 4654SOL     OW14250   4.996   1.445   3.004
 4654SOL    HW114251   5.043   1.458   3.091
 4654SOL    HW214252   4.930   1.371   3.013
 4655SOL     OW14253   5.306   0.639   2.334
 4655SOL    HW114254   5.275   0.700   2.407
 4655SOL    HW214255   5.356   0.691   2.265
 4656SOL     OW14256   4.078   1.510   3.191
 4656SOL    HW114257   4.057   1.466   3.104
 4656SOL    HW214258   4.175   1.536   3.194
 4657SOL     OW14259   4.126   0.751   3.460
 4657SOL    HW114260   4.194   0.806   3.413
 4657SOL    HW214261   4.166   0.663   3.487
 4658SOL     OW14262   5.311   0.779   3.532
 4658SOL    HW114263   5.219   0.817   3.527
 4658SOL    HW214264   5.371   0.826   3.467
 4659SOL     OW14265   4.737   0.105   3.632
 4659SOL    HW114266   4.743   0.190   3.580
 4659SOL    HW214267   4.769   0.029   3.575
 4660SOL     OW14268   4.228   0.050   3.602
 4660SOL    HW114269   4.186  -0.007   3.532
 4660SOL    HW214270   4.162   0.119   3.634
 4661SOL     OW14271   4.297   0.870   2.891
 4661SOL    HW114272   4.341   0.959   2.882
 4661SOL    HW214273   4.234   0.870   2.968
 4662SOL     OW14274   5.084   0.862   2.907
 4662SOL    HW114275   5.009   0.862   2.841
 4662SOL    HW214276   5.121   0.770   2.916
 4663SOL     OW14277   4.933   0.525   2.137
 4663SOL    HW114278   4.946   0.441   2.191
 4663SOL    HW214279   4.904   0.599   2.197
 4664SOL     OW14280   4.031   0.213   3.093
 4664SOL    HW114281   4.008   0.250   3.183
 4664SOL    HW214282   4.001   0.118   3.087
 4665SOL     OW14283   3.761   1.310   3.144
 4665SOL    HW114284   3.814   1.261   3.212
 4665SOL    HW214285   3.783   1.408   3.149
 4666SOL     OW14286   4.456   0.634   2.926
 4666SOL    HW114287   4.515   0.608   2.850
 4666SOL    HW214288   4.428   0.730   2.915
 4667SOL     OW14289   5.452   0.935   3.716
 4667SOL    HW114290   5.406   0.928   3.627
 4667SOL    HW214291   5.390   0.979   3.782
 4668SOL     OW14292   4.031   0.063   2.480
 4668SOL    HW114293   4.020   0.157   2.513
 4668SOL    HW214294   4.026   0.000   2.557
 4669SOL     OW14295   5.346   0.367   2.236
 4669SOL    HW114296   5.348   0.291   2.300
 4669SOL    HW214297   5.298   0.444   2.276
 4670SOL     OW14298   4.747   0.766   2.828
 4670SOL    HW114299   4.762   0.787   2.924
 4670SOL    HW214300   4.717   0.671   2.819
 4671SOL     OW14301   4.704   1.573   3.562
 4671SOL    HW114302   4.684   1.617   3.474
 4671SOL    HW214303   4.743   1.482   3.546
 4672SOL     OW14304   5.583   1.518   3.467
 4672SOL    HW114305   5.597   1.545   3.372
 4672SOL    HW214306   5.666   1.540   3.520
 4673SOL     OW14307   4.074   0.898   3.666
 4673SOL    HW114308   4.150   0.942   3.714
 4673SOL    HW214309   4.109   0.851   3.584
 4674SOL     OW14310   5.264   0.274   1.987
 4674SOL    HW114311   5.203   0.199   2.010
 4674SOL    HW214312   5.286   0.326   2.070
 4675SOL     OW14313   5.027   0.838   1.904
 4675SOL    HW114314   5.061   0.745   1.919
 4675SOL    HW214315   5.045   0.865   1.809
 4676SOL     OW14316   4.792   1.333   2.711
 4676SOL    HW114317   4.799   1.249   2.656
 4676SOL    HW214318   4.854   1.402   2.675
 4677SOL     OW14319   4.043   0.810   2.811
 4677SOL    HW114320   4.136   0.846   2.816
 4677SOL    HW214321   4.037   0.725   2.863
 4678SOL     OW14322   4.063   0.509   2.868
 4678SOL    HW114323   4.011   0.426   2.851
 4678SOL    HW214324   4.140   0.514   2.804
 4679SOL     OW14325   4.862   0.380   3.540
 4679SOL    HW114326   4.817   0.443   3.604
 4679SOL    HW214327   4.955   0.411   3.523
 4680SOL     OW14328   4.884   0.207   3.339
 4680SOL    HW114329   4.884   0.271   3.416
 4680SOL    HW214330   4.912   0.255   3.256
 4681SOL     OW14331   3.732   1.326   2.062
 4681SOL    HW114332   3.639   1.347   2.031
 4681SOL    HW214333   3.742   1.227   2.075
 4682SOL     OW14334   3.812   1.801   2.789
 4682SOL    HW114335   3.770   1.715   2.762
 4682SOL    HW214336   3.906   1.804   2.755
 4683SOL     OW14337   4.228   1.568   2.772
 4683SOL    HW114338   4.294   1.642   2.781
 4683SOL    HW214339   4.272   1.489   2.730
 4684SOL     OW14340   4.726   0.796   3.100
 4684SOL    HW114341   4.767   0.764   3.186
 4684SOL    HW214342   4.630   0.769   3.097
 4685SOL     OW14343   3.764   0.544   2.976
 4685SOL    HW114344   3.849   0.511   2.935
 4685SOL    HW214345   3.777   0.559   3.074
 4686SOL     OW14346   3.913   0.520   3.584
 4686SOL    HW114347   3.972   0.480   3.514
 4686SOL    HW214348   3.855   0.591   3.543
 4687SOL     OW14349   5.093   0.950   3.522
 4687SOL    HW114350   5.132   1.039   3.542
 4687SOL    HW214351   5.103   0.930   3.425
 4688SOL     OW14352   4.539   0.572   2.187
 4688SOL    HW114353   4.546   0.483   2.141
 4688SOL    HW214354   4.445   0.606   2.179
 4689SOL     OW14355   5.381   0.604   3.068
 4689SOL    HW114356   5.343   0.535   3.130
 4689SOL    HW214357   5.463   0.568   3.024
 4690SOL     OW14358   3.976   1.564   3.606
 4690SOL    HW114359   3.946   1.621   3.682
 4690SOL    HW214360   3.969   1.467   3.632
 4691SOL     OW14361   4.395   0.464   3.131
 4691SOL    HW114362   4.361   0.375   3.101
 4691SOL    HW214363   4.421   0.518   3.051
 4692SOL     OW14364   4.654   1.678   3.327
 4692SOL    HW114365   4.630   1.660   3.232
 4692SOL    HW214366   4.684   1.772   3.337
 4693SOL     OW14367   4.197   0.500   2.053
 4693SOL    HW114368   4.258   0.580   2.057
 4693SOL    HW214369   4.102   0.531   2.060
 4694SOL     OW14370   3.883   1.137   3.328
 4694SOL    HW114371   3.905   1.076   3.404
 4694SOL    HW214372   3.893   1.088   3.242
 4695SOL     OW14373   5.071   1.059   3.096
 4695SOL    HW114374   5.095   0.996   3.022
 4695SOL    HW214375   4.981   1.099   3.078
 4696SOL     OW14376   5.026   0.855   2.171
 4696SOL    HW114377   4.940   0.824   2.213
 4696SOL    HW214378   5.022   0.841   2.072
 4697SOL     OW14379   5.483   1.747   3.016
 4697SOL    HW114380   5.544   1.777   2.943
 4697SOL    HW214381   5.445   1.658   2.994
 4698SOL     OW14382   4.976   1.731   2.990
 4698SOL    HW114383   5.060   1.736   2.936
 4698SOL    HW214384   4.953   1.635   3.008
 4699SOL     OW14385   3.807   1.258   2.884
 4699SOL    HW114386   3.802   1.257   2.984
 4699SOL    HW214387   3.724   1.217   2.846
 4700SOL     OW14388   4.412   1.662   3.578
 4700SOL    HW114389   4.356   1.743   3.587
 4700SOL    HW214390   4.464   1.666   3.492
 4701SOL     OW14391   5.450   0.135   2.385
 4701SOL    HW114392   5.523   0.118   2.318
 4701SOL    HW214393   5.419   0.048   2.423
 4702SOL     OW14394   5.112   1.573   2.339
 4702SOL    HW114395   5.179   1.585   2.265
 4702SOL    HW214396   5.072   1.662   2.362
 4703SOL     OW14397   3.854   1.794   3.713
 4703SOL    HW114398   3.813   1.720   3.766
 4703SOL    HW214399   3.918   1.845   3.771
 4704SOL     OW14400   5.004   0.927   2.534
 4704SOL    HW114401   5.064   0.846   2.536
 4704SOL    HW214402   5.044   0.996   2.474
 4705SOL     OW14403   4.554   1.273   3.284
 4705SOL    HW114404   4.549   1.306   3.379
 4705SOL    HW214405   4.468   1.292   3.238
 4706SOL     OW14406   4.396   1.616   2.016
 4706SOL    HW114407   4.405   1.626   1.917
 4706SOL    HW214408   4.356   1.527   2.037
 4707SOL     OW14409   5.374   1.720   3.256
 4707SOL    HW114410   5.427   1.730   3.172
 4707SOL    HW214411   5.347   1.810   3.290
 4708SOL     OW14412   5.565   0.175   2.825
 4708SOL    HW114413   5.604   0.090   2.789
 4708SOL    HW214414   5.467   0.177   2.806
 4709SOL     OW14415   3.987   0.326   2.582
 4709SOL    HW114416   3.908   0.377   2.548
 4709SOL    HW214417   3.978   0.311   2.680
 4710SOL     OW14418   4.918   1.612   1.893
 4710SOL    HW114419   4.924   1.519   1.930
 4710SOL    HW214420   4.859   1.612   1.813
 4711SOL     OW14421   4.546   1.002   3.234
 4711SOL    HW114422   4.586   1.001   3.142
 4711SOL    HW214423   4.556   1.094   3.274
 4712SOL     OW14424   4.640   0.910   2.153
 4712SOL    HW114425   4.703   0.948   2.085
 4712SOL    HW214426   4.680   0.827   2.192
 4713SOL     OW14427   5.228   1.607   1.906
 4713SOL    HW114428   5.136   1.644   1.913
 4713SOL    HW214429   5.266   1.627   1.816
 4714SOL     OW14430   4.096   1.288   3.352
 4714SOL    HW114431   4.083   1.381   3.318
 4714SOL    HW214432   4.012   1.236   3.339
 4715SOL     OW14433   5.338   1.292   3.151
 4715SOL    HW114434   5.398   1.295   3.231
 4715SOL    HW214435   5.263   1.356   3.164
 4716SOL     OW14436   4.763   1.098   2.558
 4716SOL    HW114437   4.693   1.051   2.612
 4716SOL    HW214438   4.822   1.030   2.515
 4717SOL     OW14439   4.738   0.236   2.833
 4717SOL    HW114440   4.730   0.200   2.740
 4717SOL    HW214441   4.736   0.160   2.898
 4718SOL     OW14442   4.314   1.487   2.353
 4718SOL    HW114443   4.356   1.429   2.283
 4718SOL    HW214444   4.270   1.566   2.309
 4719SOL     OW14445   5.433   0.385   3.243
 4719SOL    HW114446   5.506   0.454   3.247
 4719SOL    HW214447   5.461   0.310   3.184
 4720SOL     OW14448   3.979   1.348   2.152
 4720SOL    HW114449   3.883   1.349   2.125
 4720SOL    HW214450   3.991   1.401   2.236
 4721SOL     OW14451   3.829   1.013   3.588
 4721SOL    HW114452   3.752   0.980   3.642
 4721SOL    HW214453   3.914   0.983   3.630
 4722SOL     OW14454   4.396   0.203   3.351
 4722SOL    HW114455   4.486   0.187   3.311
 4722SOL    HW214456   4.404   0.208   3.450
 4723SOL     OW14457   3.799   0.345   1.895
 4723SOL    HW114458   3.707   0.317   1.866
 4723SOL    HW214459   3.830   0.422   1.839
 4724SOL     OW14460   5.164   0.856   3.260
 4724SOL    HW114461   5.107   0.908   3.197
 4724SOL    HW214462   5.260   0.868   3.236
 4725SOL     OW14463   3.796   0.166   2.180
 4725SOL    HW114464   3.779   0.249   2.126
 4725SOL    HW214465   3.886   0.129   2.158
 4726SOL     OW14466   4.907   1.335   1.981
 4726SOL    HW114467   4.808   1.324   1.983
 4726SOL    HW214468   4.941   1.350   2.074
 4727SOL     OW14469   4.337   0.842   3.293
 4727SOL    HW114470   4.393   0.923   3.276
 4727SOL    HW214471   4.396   0.762   3.296
 4728SOL     OW14472   5.217   1.767   2.821
 4728SOL    HW114473   5.250   1.831   2.752
 4728SOL    HW214474   5.283   1.761   2.896
 4729SOL     OW14475   4.440   0.565   3.570
 4729SOL    HW114476   4.459   0.630   3.644
 4729SOL    HW214477   4.500   0.485   3.579
 4730SOL     OW14478   5.174   1.220   3.495
 4730SOL    HW114479   5.165   1.210   3.594
 4730SOL    HW214480   5.270   1.213   3.469
 4731SOL     OW14481   4.114   1.741   3.422
 4731SOL    HW114482   4.023   1.782   3.420
 4731SOL    HW214483   4.107   1.647   3.454
 4732SOL     OW14484   5.398   0.883   3.116
 4732SOL    HW114485   5.371   0.794   3.079
 4732SOL    HW214486   5.399   0.951   3.043
 4733SOL     OW14487   4.949   0.325   2.311
 4733SOL    HW114488   5.014   0.251   2.300
 4733SOL    HW214489   4.969   0.375   2.395
 4734SOL     OW14490   4.318   0.745   2.514
 4734SOL    HW114491   4.368   0.830   2.495
 4734SOL    HW214492   4.230   0.747   2.466
 4735SOL     OW14493   5.501   0.342   3.504
 4735SOL    HW114494   5.484   0.373   3.410
 4735SOL    HW214495   5.417   0.305   3.542
 4736SOL     OW14496   5.454   0.934   3.379
 4736SOL    HW114497   5.492   1.025   3.394
 4736SOL    HW214498   5.446   0.917   3.280
 4737SOL     OW14499   4.583   1.374   1.878
 4737SOL    HW114500   4.537   1.389   1.966
 4737SOL    HW214501   4.627   1.459   1.848
 4738SOL     OW14502   4.385   1.790   2.815
 4738SOL    HW114503   4.339   1.878   2.802
 4738SOL    HW214504   4.484   1.802   2.808
 4739SOL     OW14505   4.583   0.956   2.723
 4739SOL    HW114506   4.637   0.887   2.771
 4739SOL    HW214507   4.551   1.025   2.789
 4740SOL     OW14508   4.807   0.984   1.949
 4740SOL    HW114509   4.784   1.037   1.867
 4740SOL    HW214510   4.888   0.928   1.930
 4741SOL     OW14511   5.585   1.569   2.713
 4741SOL    HW114512   5.514   1.557   2.643
 4741SOL    HW214513   5.586   1.490   2.773
 4742SOL     OW14514   3.945   1.314   3.706
 4742SOL    HW114515   3.880   1.241   3.685
 4742SOL    HW214516   3.949   1.328   3.804
 4743SOL     OW14517   3.803   1.240   2.515
 4743SOL    HW114518   3.802   1.193   2.603
 4743SOL    HW214519   3.885   1.212   2.464
 4744SOL     OW14520   4.396   1.391   3.486
 4744SOL    HW114521   4.318   1.341   3.524
 4744SOL    HW214522   4.393   1.486   3.517
 4745SOL     OW14523   5.548   0.192   3.089
 4745SOL    HW114524   5.544   0.102   3.133
 4745SOL    HW214525   5.551   0.181   2.990
 4746SOL     OW14526   4.152   0.424   2.382
 4746SOL    HW114527   4.182   0.352   2.320
 4746SOL    HW214528   4.113   0.384   2.465
 4747SOL     OW14529   5.429   1.487   2.966
 4747SOL    HW114530   5.336   1.462   2.939
 4747SOL    HW214531   5.455   1.437   3.048
 4748SOL     OW14532   4.041   0.547   3.142
 4748SOL    HW114533   4.079   0.488   3.214
 4748SOL    HW214534   4.081   0.521   3.054
 4749SOL     OW14535   4.536   1.586   2.549
 4749SOL    HW114536   4.568   1.596   2.455
 4749SOL    HW214537   4.457   1.524   2.551
 4750SOL     OW14538   5.148   0.214   2.974
 4750SOL    HW114539   5.200   0.149   3.029
 4750SOL    HW214540   5.099   0.277   3.035
 4751SOL     OW14541   4.725   0.034   3.016
 4751SOL    HW114542   4.662  -0.038   2.985
 4751SOL    HW214543   4.818  -0.002   3.016
 4752SOL     OW14544   4.494   1.330   2.163
 4752SOL    HW114545   4.448   1.243   2.180
 4752SOL    HW214546   4.585   1.327   2.204
 4753SOL     OW14547   4.342   1.567   3.146
 4753SOL    HW114548   4.337   1.649   3.203
 4753SOL    HW214549   4.431   1.564   3.101
 4754SOL     OW14550   5.076   0.052   2.030
 4754SOL    HW114551   5.111   0.011   1.946
 4754SOL    HW214552   4.986   0.014   2.050
 4755SOL     OW14553   5.024   0.453   2.553
 4755SOL    HW114554   4.965   0.533   2.557
 4755SOL    HW214555   5.039   0.418   2.646
 4756SOL     OW14556   5.317   0.221   2.744
 4756SOL    HW114557   5.233   0.220   2.798
 4756SOL    HW214558   5.319   0.304   2.688
 4757SOL     OW14559   3.763   1.077   2.162
 4757SOL    HW114560   3.862   1.066   2.153
 4757SOL    HW214561   3.723   0.991   2.194
 4758SOL     OW14562   4.599   1.646   2.199
 4758SOL    HW114563   4.522   1.611   2.145
 4758SOL    HW214564   4.567   1.717   2.261
 4759SOL     OW14565   3.954   0.628   3.837
 4759SOL    HW114566   3.861   0.626   3.874
 4759SOL    HW214567   3.955   0.589   3.745
 4760SOL     OW14568   3.949   0.275   4.720
 4760SOL    HW114569   3.984   0.258   4.812
 4760SOL    HW214570   3.861   0.230   4.708
 4761SOL     OW14571   3.743   0.368   4.371
 4761SOL    HW114572   3.661   0.411   4.410
 4761SOL    HW214573   3.715   0.295   4.308
 4762SOL     OW14574   4.293   1.275   4.889
 4762SOL    HW114575   4.200   1.268   4.852
 4762SOL    HW214576   4.304   1.364   4.933
 4763SOL     OW14577   5.279   1.511   4.427
 4763SOL    HW114578   5.222   1.495   4.508
 4763SOL    HW214579   5.220   1.521   4.347
 4764SOL     OW14580   4.859   0.703   4.441
 4764SOL    HW114581   4.916   0.781   4.416
 4764SOL    HW214582   4.799   0.729   4.517
 4765SOL     OW14583   5.479   0.607   3.955
 4765SOL    HW114584   5.467   0.594   3.856
 4765SOL    HW214585   5.449   0.526   4.004
 4766SOL     OW14586   4.492   1.144   4.747
 4766SOL    HW114587   4.414   1.161   4.807
 4766SOL    HW214588   4.526   1.231   4.711
 4767SOL     OW14589   4.574   0.798   5.547
 4767SOL    HW114590   4.570   0.874   5.612
 4767SOL    HW214591   4.596   0.834   5.456
 4768SOL     OW14592   4.409   1.012   4.389
 4768SOL    HW114593   4.478   0.996   4.459
 4768SOL    HW214594   4.336   1.069   4.427
 4769SOL     OW14595   4.410   1.161   5.527
 4769SOL    HW114596   4.470   1.240   5.541
 4769SOL    HW214597   4.324   1.192   5.486
 4770SOL     OW14598   4.059   1.435   4.785
 4770SOL    HW114599   3.981   1.404   4.732
 4770SOL    HW214600   4.117   1.493   4.728
 4771SOL     OW14601   5.184   1.505   5.063
 4771SOL    HW114602   5.208   1.599   5.089
 4771SOL    HW214603   5.168   1.451   5.145
 4772SOL     OW14604   4.162   0.392   5.223
 4772SOL    HW114605   4.244   0.336   5.232
 4772SOL    HW214606   4.081   0.334   5.227
 4773SOL     OW14607   5.327   0.447   4.461
 4773SOL    HW114608   5.253   0.493   4.411
 4773SOL    HW214609   5.378   0.515   4.514
 4774SOL     OW14610   3.955   1.713   4.207
 4774SOL    HW114611   3.989   1.790   4.261
 4774SOL    HW214612   3.999   1.713   4.117
 4775SOL     OW14613   4.851   1.341   5.414
 4775SOL    HW114614   4.898   1.341   5.502
 4775SOL    HW214615   4.803   1.254   5.403
 4776SOL     OW14616   3.954   1.434   4.262
 4776SOL    HW114617   3.928   1.530   4.262
 4776SOL    HW214618   3.883   1.380   4.307
 4777SOL     OW14619   3.964   1.091   4.610
 4777SOL    HW114620   3.978   1.007   4.662
 4777SOL    HW214621   3.909   1.155   4.665
 4778SOL     OW14622   4.344   1.786   5.163
 4778SOL    HW114623   4.252   1.769   5.198
 4778SOL    HW214624   4.372   1.878   5.189
 4779SOL     OW14625   4.330   0.964   3.847
 4779SOL    HW114626   4.337   1.048   3.793
 4779SOL    HW214627   4.376   0.977   3.935
 4780SOL     OW14628   5.318   0.114   5.204
 4780SOL    HW114629   5.300   0.181   5.132
 4780SOL    HW214630   5.315   0.160   5.293
 4781SOL     OW14631   3.846   0.643   4.287
 4781SOL    HW114632   3.801   0.555   4.304
 4781SOL    HW214633   3.845   0.697   4.371
 4782SOL     OW14634   5.566   1.767   4.083
 4782SOL    HW114635   5.620   1.738   4.163
 4782SOL    HW214636   5.596   1.857   4.054
 4783SOL     OW14637   3.751   1.596   3.841
 4783SOL    HW114638   3.732   1.500   3.862
 4783SOL    HW214639   3.718   1.654   3.916
 4784SOL     OW14640   5.413   0.922   4.336
 4784SOL    HW114641   5.508   0.893   4.344
 4784SOL    HW214642   5.405   0.987   4.261
 4785SOL     OW14643   5.365   1.108   4.156
 4785SOL    HW114644   5.451   1.110   4.104
 4785SOL    HW214645   5.379   1.155   4.244
 4786SOL     OW14646   3.837   0.737   5.321
 4786SOL    HW114647   3.925   0.724   5.366
 4786SOL    HW214648   3.824   0.834   5.299
 4787SOL     OW14649   4.337   1.365   4.450
 4787SOL    HW114650   4.288   1.278   4.459
 4787SOL    HW214651   4.314   1.408   4.363
 4788SOL     OW14652   5.017   1.228   5.147
 4788SOL    HW114653   5.054   1.155   5.089
 4788SOL    HW214654   5.069   1.233   5.232
 4789SOL     OW14655   4.533   0.004   4.226
 4789SOL    HW114656   4.573   0.095   4.217
 4789SOL    HW214657   4.433   0.012   4.232
 4790SOL     OW14658   3.921   0.976   4.988
 4790SOL    HW114659   4.010   0.931   4.974
 4790SOL    HW214660   3.848   0.911   4.969
 4791SOL     OW14661   5.249   0.999   3.914
 4791SOL    HW114662   5.186   0.923   3.927
 4791SOL    HW214663   5.297   1.017   4.000
 4792SOL     OW14664   4.911   1.792   5.340
 4792SOL    HW114665   4.935   1.852   5.264
 4792SOL    HW214666   4.918   1.697   5.310
 4793SOL     OW14667   4.041   0.251   5.525
 4793SOL    HW114668   4.112   0.322   5.531
 4793SOL    HW214669   3.953   0.290   5.553
 4794SOL     OW14670   5.190   1.417   4.677
 4794SOL    HW114671   5.131   1.423   4.757
 4794SOL    HW214672   5.175   1.329   4.631
 4795SOL     OW14673   5.391   1.714   4.296
 4795SOL    HW114674   5.350   1.691   4.208
 4795SOL    HW214675   5.373   1.640   4.361
 4796SOL     OW14676   4.322   0.729   3.994
 4796SOL    HW114677   4.346   0.798   3.926
 4796SOL    HW214678   4.244   0.762   4.048
 4797SOL     OW14679   5.005   0.345   4.668
 4797SOL    HW114680   4.919   0.295   4.655
 4797SOL    HW214681   5.067   0.291   4.724
 4798SOL     OW14682   5.300   1.662   4.031
 4798SOL    HW114683   5.389   1.708   4.034
 4798SOL    HW214684   5.279   1.638   3.936
 4799SOL     OW14685   4.531   0.605   5.189
 4799SOL    HW114686   4.484   0.602   5.278
 4799SOL    HW214687   4.480   0.550   5.123
 4800SOL     OW14688   5.118   0.469   5.398
 4800SOL    HW114689   5.098   0.512   5.486
 4800SOL    HW214690   5.196   0.407   5.407
 4801SOL     OW14691   4.697   0.890   5.296
 4801SOL    HW114692   4.743   0.806   5.267
 4801SOL    HW214693   4.641   0.924   5.221
 4802SOL     OW14694   4.715   0.410   4.966
 4802SOL    HW114695   4.638   0.444   5.020
 4802SOL    HW214696   4.681   0.359   4.887
 4803SOL     OW14697   4.765   0.701   4.153
 4803SOL    HW114698   4.791   0.697   4.249
 4803SOL    HW214699   4.680   0.650   4.139
 4804SOL     OW14700   3.800   0.811   4.513
 4804SOL    HW114701   3.899   0.799   4.522
 4804SOL    HW214702   3.776   0.906   4.534
 4805SOL     OW14703   3.854   1.821   5.295
 4805SOL    HW114704   3.844   1.806   5.394
 4805SOL    HW214705   3.768   1.857   5.259
 4806SOL     OW14706   4.589   0.348   3.919
 4806SOL    HW114707   4.648   0.411   3.870
 4806SOL    HW214708   4.608   0.254   3.890
 4807SOL     OW14709   5.443   0.585   5.555
 4807SOL    HW114710   5.417   0.674   5.519
 4807SOL    HW214711   5.441   0.517   5.482
 4808SOL     OW14712   5.086   1.144   4.269
 4808SOL    HW114713   5.169   1.115   4.221
 4808SOL    HW214714   5.037   1.211   4.213
 4809SOL     OW14715   4.274   0.196   4.609
 4809SOL    HW114716   4.269   0.191   4.709
 4809SOL    HW214717   4.276   0.292   4.580
 4810SOL     OW14718   4.732   1.456   4.201
 4810SOL    HW114719   4.686   1.528   4.149
 4810SOL    HW214720   4.728   1.476   4.299
 4811SOL     OW14721   4.075   1.801   4.577
 4811SOL    HW114722   4.125   1.715   4.583
 4811SOL    HW214723   4.140   1.878   4.574
 4812SOL     OW14724   5.519   1.066   4.597
 4812SOL    HW114725   5.457   1.051   4.521
 4812SOL    HW214726   5.467   1.077   4.682
 4813SOL     OW14727   4.951   1.550   5.230
 4813SOL    HW114728   4.957   1.473   5.294
 4813SOL    HW214729   4.899   1.524   5.150
 4814SOL     OW14730   4.045   0.943   3.966
 4814SOL    HW114731   4.127   0.982   3.924
 4814SOL    HW214732   4.018   0.861   3.917
 4815SOL     OW14733   5.182   0.735   4.452
 4815SOL    HW114734   5.177   0.670   4.527
 4815SOL    HW214735   5.262   0.794   4.465
 4816SOL     OW14736   4.185   1.266   5.451
 4816SOL    HW114737   4.135   1.267   5.365
 4816SOL    HW214738   4.122   1.248   5.527
 4817SOL     OW14739   4.835   1.776   3.961
 4817SOL    HW114740   4.775   1.714   4.011
 4817SOL    HW214741   4.866   1.732   3.876
 4818SOL     OW14742   3.926   0.285   5.222
 4818SOL    HW114743   3.846   0.345   5.209
 4818SOL    HW214744   3.916   0.236   5.308
 4819SOL     OW14745   5.356   1.377   3.805
 4819SOL    HW114746   5.324   1.471   3.795
 4819SOL    HW214747   5.280   1.314   3.793
 4820SOL     OW14748   4.188   1.743   4.047
 4820SOL    HW114749   4.221   1.782   4.133
 4820SOL    HW214750   4.264   1.736   3.982
 4821SOL     OW14751   5.124   0.107   4.150
 4821SOL    HW114752   5.100   0.070   4.060
 4821SOL    HW214753   5.223   0.123   4.154
 4822SOL     OW14754   3.973   1.785   4.965
 4822SOL    HW114755   4.030   1.720   5.015
 4822SOL    HW214756   3.957   1.752   4.872
 4823SOL     OW14757   4.664   1.698   4.628
 4823SOL    HW114758   4.744   1.641   4.649
 4823SOL    HW214759   4.615   1.658   4.551
 4824SOL     OW14760   4.106   0.700   4.204
 4824SOL    HW114761   4.151   0.610   4.201
 4824SOL    HW214762   4.012   0.689   4.237
 4825SOL     OW14763   5.271   0.222   5.453
 4825SOL    HW114764   5.266   0.259   5.545
 4825SOL    HW214765   5.199   0.153   5.441
 4826SOL     OW14766   4.338   0.122   3.841
 4826SOL    HW114767   4.436   0.100   3.848
 4826SOL    HW214768   4.307   0.105   3.748
 4827SOL     OW14769   4.505   0.264   5.473
 4827SOL    HW114770   4.572   0.203   5.516
 4827SOL    HW214771   4.432   0.283   5.538
 4828SOL     OW14772   4.612   1.514   4.919
 4828SOL    HW114773   4.589   1.489   4.825
 4828SOL    HW214774   4.673   1.445   4.958
 4829SOL     OW14775   5.075   0.590   5.157
 4829SOL    HW114776   5.103   0.547   5.242
 4829SOL    HW214777   5.100   0.686   5.158
 4830SOL     OW14778   4.527   1.402   4.648
 4830SOL    HW114779   4.617   1.416   4.606
 4830SOL    HW214780   4.456   1.404   4.577
 4831SOL     OW14781   4.646   0.503   4.623
 4831SOL    HW114782   4.621   0.494   4.527
 4831SOL    HW214783   4.694   0.421   4.654
 4832SOL     OW14784   4.263   0.064   4.236
 4832SOL    HW114785   4.182   0.065   4.294
 4832SOL    HW214786   4.266   0.147   4.181
 4833SOL     OW14787   5.158   1.188   3.765
 4833SOL    HW114788   5.190   1.112   3.822
 4833SOL    HW214789   5.066   1.215   3.795
 4834SOL     OW14790   4.021   0.035   3.895
 4834SOL    HW114791   4.070   0.119   3.874
 4834SOL    HW214792   4.083  -0.030   3.940
 4835SOL     OW14793   4.659   0.236   4.204
 4835SOL    HW114794   4.611   0.277   4.126
 4835SOL    HW214795   4.758   0.234   4.185
 4836SOL     OW14796   4.800   0.683   5.188
 4836SOL    HW114797   4.720   0.622   5.191
 4836SOL    HW214798   4.881   0.630   5.164
 4837SOL     OW14799   4.951   1.570   4.517
 4837SOL    HW114800   4.972   1.644   4.452
 4837SOL    HW214801   5.019   1.570   4.590
 4838SOL     OW14802   4.183   1.152   4.465
 4838SOL    HW114803   4.112   1.125   4.530
 4838SOL    HW214804   4.157   1.124   4.372
 4839SOL     OW14805   4.995   1.797   4.315
 4839SOL    HW114806   5.039   1.861   4.251
 4839SOL    HW214807   4.945   1.849   4.385
 4840SOL     OW14808   4.756   0.549   3.740
 4840SOL    HW114809   4.715   0.631   3.701
 4840SOL    HW214810   4.820   0.575   3.813
 4841SOL     OW14811   3.802   0.556   5.110
 4841SOL    HW114812   3.894   0.555   5.069
 4841SOL    HW214813   3.796   0.630   5.177
 4842SOL     OW14814   4.285   0.222   4.871
 4842SOL    HW114815   4.323   0.138   4.908
 4842SOL    HW214816   4.197   0.241   4.915
 4843SOL     OW14817   4.590   0.454   4.366
 4843SOL    HW114818   4.558   0.526   4.304
 4843SOL    HW214819   4.614   0.373   4.313
 4844SOL     OW14820   4.741   0.039   4.477
 4844SOL    HW114821   4.669   0.044   4.408
 4844SOL    HW214822   4.717  -0.030   4.546
 4845SOL     OW14823   5.153   1.173   4.591
 4845SOL    HW114824   5.098   1.089   4.584
 4845SOL    HW214825   5.179   1.202   4.499
 4846SOL     OW14826   5.190   0.590   4.716
 4846SOL    HW114827   5.160   0.495   4.723
 4846SOL    HW214828   5.263   0.606   4.782
 4847SOL     OW14829   5.581   0.833   4.101
 4847SOL    HW114830   5.623   0.769   4.165
 4847SOL    HW214831   5.543   0.782   4.023
 4848SOL     OW14832   4.212   1.385   3.898
 4848SOL    HW114833   4.125   1.370   3.945
 4848SOL    HW214834   4.195   1.411   3.803
 4849SOL     OW14835   5.388   1.280   4.381
 4849SOL    HW114836   5.487   1.288   4.395
 4849SOL    HW214837   5.343   1.364   4.412
 4850SOL     OW14838   5.114   0.575   3.802
 4850SOL    HW114839   5.060   0.554   3.883
 4850SOL    HW214840   5.205   0.534   3.811
 4851SOL     OW14841   4.251   0.256   4.052
 4851SOL    HW114842   4.278   0.197   3.977
 4851SOL    HW214843   4.251   0.351   4.021
 4852SOL     OW14844   5.478   1.223   5.312
 4852SOL    HW114845   5.569   1.184   5.299
 4852SOL    HW214846   5.486   1.319   5.336
 4853SOL     OW14847   4.788   1.347   5.064
 4853SOL    HW114848   4.708   1.324   5.119
 4853SOL    HW214849   4.871   1.321   5.113
 4854SOL     OW14850   5.316   1.629   5.349
 4854SOL    HW114851   5.343   1.663   5.259
 4854SOL    HW214852   5.395   1.591   5.395
 4855SOL     OW14853   4.835   1.195   4.824
 4855SOL    HW114854   4.795   1.239   4.905
 4855SOL    HW214855   4.794   1.232   4.741
 4856SOL     OW14856   5.362   1.099   4.803
 4856SOL    HW114857   5.367   1.180   4.862
 4856SOL    HW214858   5.276   1.101   4.752
 4857SOL     OW14859   4.639   0.089   5.126
 4857SOL    HW114860   4.664   0.069   5.031
 4857SOL    HW214861   4.711   0.145   5.168
 4858SOL     OW14862   4.704   1.116   5.443
 4858SOL    HW114863   4.605   1.122   5.453
 4858SOL    HW214864   4.727   1.036   5.387
 4859SOL     OW14865   4.429   1.050   4.092
 4859SOL    HW114866   4.415   1.057   4.191
 4859SOL    HW214867   4.513   0.999   4.074
 4860SOL     OW14868   4.134   0.813   4.975
 4860SOL    HW114869   4.220   0.825   5.025
 4860SOL    HW214870   4.092   0.726   5.002
 4861SOL     OW14871   4.998   0.386   4.986
 4861SOL    HW114872   5.019   0.460   5.050
 4861SOL    HW214873   4.909   0.403   4.943
 4862SOL     OW14874   3.788   1.564   5.055
 4862SOL    HW114875   3.742   1.646   5.021
 4862SOL    HW214876   3.886   1.583   5.064
 4863SOL     OW14877   4.091   1.100   4.225
 4863SOL    HW114878   4.084   1.183   4.169
 4863SOL    HW214879   4.095   1.020   4.165
 4864SOL     OW14880   4.290   0.537   4.589
 4864SOL    HW114881   4.302   0.603   4.515
 4864SOL    HW214882   4.336   0.571   4.672
 4865SOL     OW14883   4.976   1.348   4.112
 4865SOL    HW114884   5.026   1.425   4.152
 4865SOL    HW214885   4.881   1.350   4.144
 4866SOL     OW14886   4.996   1.445   4.866
 4866SOL    HW114887   5.043   1.458   4.953
 4866SOL    HW214888   4.930   1.371   4.875
 4867SOL     OW14889   5.306   0.639   4.196
 4867SOL    HW114890   5.275   0.700   4.269
 4867SOL    HW214891   5.356   0.691   4.127
 4868SOL     OW14892   4.078   1.510   5.053
 4868SOL    HW114893   4.057   1.466   4.966
 4868SOL    HW214894   4.175   1.536   5.056
 4869SOL     OW14895   4.126   0.751   5.322
 4869SOL    HW114896   4.194   0.806   5.275
 4869SOL    HW214897   4.166   0.663   5.349
 4870SOL     OW14898   5.311   0.779   5.394
 4870SOL    HW114899   5.219   0.817   5.389
 4870SOL    HW214900   5.371   0.826   5.329
 4871SOL     OW14901   4.737   0.105   5.494
 4871SOL    HW114902   4.743   0.190   5.442
 4871SOL    HW214903   4.769   0.029   5.437
 4872SOL     OW14904   4.228   0.050   5.464
 4872SOL    HW114905   4.186  -0.007   5.394
 4872SOL    HW214906   4.162   0.119   5.496
 4873SOL     OW14907   4.297   0.870   4.753
 4873SOL    HW114908   4.341   0.959   4.744
 4873SOL    HW214909   4.234   0.870   4.830
 4874SOL     OW14910   5.084   0.862   4.769
 4874SOL    HW114911   5.009   0.862   4.703
 4874SOL    HW214912   5.121   0.770   4.778
 4875SOL     OW14913   4.933   0.525   3.999
 4875SOL    HW114914   4.946   0.441   4.053
 4875SOL    HW214915   4.904   0.599   4.059
 4876SOL     OW14916   4.031   0.213   4.955
 4876SOL    HW114917   4.008   0.250   5.045
 4876SOL    HW214918   4.001   0.118   4.949
 4877SOL     OW14919   3.761   1.310   5.006
 4877SOL    HW114920   3.814   1.261   5.074
 4877SOL    HW214921   3.783   1.408   5.011
 4878SOL     OW14922   4.456   0.634   4.788
 4878SOL    HW114923   4.515   0.608   4.712
 4878SOL    HW214924   4.428   0.730   4.777
 4879SOL     OW14925   5.452   0.935   5.578
 4879SOL    HW114926   5.406   0.928   5.489
 4879SOL    HW214927   5.390   0.979   5.644
 4880SOL     OW14928   4.031   0.063   4.342
 4880SOL    HW114929   4.020   0.157   4.375
 4880SOL    HW214930   4.026   0.000   4.419
 4881SOL     OW14931   5.346   0.367   4.098
 4881SOL    HW114932   5.348   0.291   4.162
 4881SOL    HW214933   5.298   0.444   4.138
 4882SOL     OW14934   4.747   0.766   4.690
 4882SOL    HW114935   4.762   0.787   4.786
 4882SOL    HW214936   4.717   0.671   4.681
 4883SOL     OW14937   4.704   1.573   5.424
 4883SOL    HW114938   4.684   1.617   5.336
 4883SOL    HW214939   4.743   1.482   5.408
 4884SOL     OW14940   5.583   1.518   5.329
 4884SOL    HW114941   5.597   1.545   5.234
 4884SOL    HW214942   5.666   1.540   5.382
 4885SOL     OW14943   4.074   0.898   5.528
 4885SOL    HW114944   4.150   0.942   5.576
 4885SOL    HW214945   4.109   0.851   5.446
 4886SOL     OW14946   5.264   0.274   3.849
 4886SOL    HW114947   5.203   0.199   3.872
 4886SOL    HW214948   5.286   0.326   3.932
 4887SOL     OW14949   5.027   0.838   3.766
 4887SOL    HW114950   5.061   0.745   3.781
 4887SOL    HW214951   5.045   0.865   3.671
 4888SOL     OW14952   4.792   1.333   4.573
 4888SOL    HW114953   4.799   1.249   4.518
 4888SOL    HW214954   4.854   1.402   4.537
 4889SOL     OW14955   4.043   0.810   4.673
 4889SOL    HW114956   4.136   0.846   4.678
 4889SOL    HW214957   4.037   0.725   4.725
 4890SOL     OW14958   4.063   0.509   4.730
 4890SOL    HW114959   4.011   0.426   4.713
 4890SOL    HW214960   4.140   0.514   4.666
 4891SOL     OW14961   4.862   0.380   5.402
 4891SOL    HW114962   4.817   0.443   5.466
 4891SOL    HW214963   4.955   0.411   5.385
 4892SOL     OW14964   4.884   0.207   5.201
 4892SOL    HW114965   4.884   0.271   5.278
 4892SOL    HW214966   4.912   0.255   5.118
 4893SOL     OW14967   3.732   1.326   3.924
 4893SOL    HW114968   3.639   1.347   3.893
 4893SOL    HW214969   3.742   1.227   3.937
 4894SOL     OW14970   3.812   1.801   4.651
 4894SOL    HW114971   3.770   1.715   4.624
 4894SOL    HW214972   3.906   1.804   4.617
 4895SOL     OW14973   4.228   1.568   4.634
 4895SOL    HW114974   4.294   1.642   4.643
 4895SOL    HW214975   4.272   1.489   4.592
 4896SOL     OW14976   4.726   0.796   4.962
 4896SOL    HW114977   4.767   0.764   5.048
 4896SOL    HW214978   4.630   0.769   4.959
 4897SOL     OW14979   3.764   0.544   4.838
 4897SOL    HW114980   3.849   0.511   4.797
 4897SOL    HW214981   3.777   0.559   4.936
 4898SOL     OW14982   3.913   0.520   5.446
 4898SOL    HW114983   3.972   0.480   5.376
 4898SOL    HW214984   3.855   0.591   5.405
 4899SOL     OW14985   5.093   0.950   5.384
 4899SOL    HW114986   5.132   1.039   5.404
 4899SOL    HW214987   5.103   0.930   5.287
 4900SOL     OW14988   4.539   0.572   4.049
 4900SOL    HW114989   4.546   0.483   4.003
 4900SOL    HW214990   4.445   0.606   4.041
 4901SOL     OW14991   5.381   0.604   4.930
 4901SOL    HW114992   5.343   0.535   4.992
 4901SOL    HW214993   5.463   0.568   4.886
 4902SOL     OW14994   3.976   1.564   5.468
 4902SOL    HW114995   3.946   1.621   5.544
 4902SOL    HW214996   3.969   1.467   5.494
 4903SOL     OW14997   4.395   0.464   4.993
 4903SOL    HW114998   4.361   0.375   4.963
 4903SOL    HW214999   4.421   0.518   4.913
 4904SOL     OW15000   4.654   1.678   5.189
 4904SOL    HW115001   4.630   1.660   5.094
 4904SOL    HW215002   4.684   1.772   5.199
 4905SOL     OW15003   4.197   0.500   3.915
 4905SOL    HW115004   4.258   0.580   3.919
 4905SOL    HW215005   4.102   0.531   3.922
 4906SOL     OW15006   3.883   1.137   5.190
 4906SOL    HW115007   3.905   1.076   5.266
 4906SOL    HW215008   3.893   1.088   5.104
 4907SOL     OW15009   5.071   1.059   4.958
 4907SOL    HW115010   5.095   0.996   4.884
 4907SOL    HW215011   4.981   1.099   4.940
 4908SOL     OW15012   5.026   0.855   4.033
 4908SOL    HW115013   4.940   0.824   4.075
 4908SOL    HW215014   5.022   0.841   3.934
 4909SOL     OW15015   5.483   1.747   4.878
 4909SOL    HW115016   5.544   1.777   4.805
 4909SOL    HW215017   5.445   1.658   4.856
 4910SOL     OW15018   4.976   1.731   4.852
 4910SOL    HW115019   5.060   1.736   4.798
 4910SOL    HW215020   4.953   1.635   4.870
 4911SOL     OW15021   3.807   1.258   4.746
 4911SOL    HW115022   3.802   1.257   4.846
 4911SOL    HW215023   3.724   1.217   4.708
 4912SOL     OW15024   4.412   1.662   5.440
 4912SOL    HW115025   4.356   1.743   5.449
 4912SOL    HW215026   4.464   1.666   5.354
 4913SOL     OW15027   5.450   0.135   4.247
 4913SOL    HW115028   5.523   0.118   4.180
 4913SOL    HW215029   5.419   0.048   4.285
 4914SOL     OW15030   5.112   1.573   4.201
 4914SOL    HW115031   5.179   1.585   4.127
 4914SOL    HW215032   5.072   1.662   4.224
 4915SOL     OW15033   3.854   1.794   5.575
 4915SOL    HW115034   3.813   1.720   5.628
 4915SOL    HW215035   3.918   1.845   5.633
 4916SOL     OW15036   5.004   0.927   4.396
 4916SOL    HW115037   5.064   0.846   4.398
 4916SOL    HW215038   5.044   0.996   4.336
 4917SOL     OW15039   4.554   1.273   5.146
 4917SOL    HW115040   4.549   1.306   5.241
 4917SOL    HW215041   4.468   1.292   5.100
 4918SOL     OW15042   4.396   1.616   3.878
 4918SOL    HW115043   4.405   1.626   3.779
 4918SOL    HW215044   4.356   1.527   3.899
 4919SOL     OW15045   5.374   1.720   5.118
 4919SOL    HW115046   5.427   1.730   5.034
 4919SOL    HW215047   5.347   1.810   5.152
 4920SOL     OW15048   5.565   0.175   4.687
 4920SOL    HW115049   5.604   0.090   4.651
 4920SOL    HW215050   5.467   0.177   4.668
 4921SOL     OW15051   3.987   0.326   4.444
 4921SOL    HW115052   3.908   0.377   4.410
 4921SOL    HW215053   3.978   0.311   4.542
 4922SOL     OW15054   4.918   1.612   3.755
 4922SOL    HW115055   4.924   1.519   3.792
 4922SOL    HW215056   4.859   1.612   3.675
 4923SOL     OW15057   4.546   1.002   5.096
 4923SOL    HW115058   4.586   1.001   5.004
 4923SOL    HW215059   4.556   1.094   5.136
 4924SOL     OW15060   4.640   0.910   4.015
 4924SOL    HW115061   4.703   0.948   3.947
 4924SOL    HW215062   4.680   0.827   4.054
 4925SOL     OW15063   5.228   1.607   3.768
 4925SOL    HW115064   5.136   1.644   3.775
 4925SOL    HW215065   5.266   1.627   3.678
 4926SOL     OW15066   4.096   1.288   5.214
 4926SOL    HW115067   4.083   1.381   5.180
 4926SOL    HW215068   4.012   1.236   5.201
 4927SOL     OW15069   5.338   1.292   5.013
 4927SOL    HW115070   5.398   1.295   5.093
 4927SOL    HW215071   5.263   1.356   5.026
 4928SOL     OW15072   4.763   1.098   4.420
 4928SOL    HW115073   4.693   1.051   4.474
 4928SOL    HW215074   4.822   1.030   4.377
 4929SOL     OW15075   4.738   0.236   4.695
 4929SOL    HW115076   4.730   0.200   4.602
 4929SOL    HW215077   4.736   0.160   4.760
 4930SOL     OW15078   4.314   1.487   4.215
 4930SOL    HW115079   4.356   1.429   4.145
 4930SOL    HW215080   4.270   1.566   4.171
 4931SOL     OW15081   5.433   0.385   5.105
 4931SOL    HW115082   5.506   0.454   5.109
 4931SOL    HW215083   5.461   0.310   5.046
 4932SOL     OW15084   3.979   1.348   4.014
 4932SOL    HW115085   3.883   1.349   3.987
 4932SOL    HW215086   3.991   1.401   4.098
 4933SOL     OW15087   3.829   1.013   5.450
 4933SOL    HW115088   3.752   0.980   5.504
 4933SOL    HW215089   3.914   0.983   5.492
 4934SOL     OW15090   4.396   0.203   5.213
 4934SOL    HW115091   4.486   0.187   5.173
 4934SOL    HW215092   4.404   0.208   5.312
 4935SOL     OW15093   3.799   0.345   3.757
 4935SOL    HW115094   3.707   0.317   3.728
 4935SOL    HW215095   3.830   0.422   3.701
 4936SOL     OW15096   5.164   0.856   5.122
 4936SOL    HW115097   5.107   0.908   5.059
 4936SOL    HW215098   5.260   0.868   5.098
 4937SOL     OW15099   3.796   0.166   4.042
 4937SOL    HW115100   3.779   0.249   3.988
 4937SOL    HW215101   3.886   0.129   4.020
 4938SOL     OW15102   4.907   1.335   3.843
 4938SOL    HW115103   4.808   1.324   3.845
 4938SOL    HW215104   4.941   1.350   3.936
 4939SOL     OW15105   4.337   0.842   5.155
 4939SOL    HW115106   4.393   0.923   5.138
 4939SOL    HW215107   4.396   0.762   5.158
 4940SOL     OW15108   5.217   1.767   4.683
 4940SOL    HW115109   5.250   1.831   4.614
 4940SOL    HW215110   5.283   1.761   4.758
 4941SOL     OW15111   4.440   0.565   5.432
 4941SOL    HW115112   4.459   0.630   5.506
 4941SOL    HW215113   4.500   0.485   5.441
 4942SOL     OW15114   5.174   1.220   5.357
 4942SOL    HW115115   5.165   1.210   5.456
 4942SOL    HW215116   5.270   1.213   5.331
 4943SOL     OW15117   4.114   1.741   5.284
 4943SOL    HW115118   4.023   1.782   5.282
 4943SOL    HW215119   4.107   1.647   5.316
 4944SOL     OW15120   5.398   0.883   4.978
 4944SOL    HW115121   5.371   0.794   4.941
 4944SOL    HW215122   5.399   0.951   4.905
 4945SOL     OW15123   4.949   0.325   4.173
 4945SOL    HW115124   5.014   0.251   4.162
 4945SOL    HW215125   4.969   0.375   4.257
 4946SOL     OW15126   4.318   0.745   4.376
 4946SOL    HW115127   4.368   0.830   4.357
 4946SOL    HW215128   4.230   0.747   4.328
 4947SOL     OW15129   5.501   0.342   5.366
 4947SOL    HW115130   5.484   0.373   5.272
 4947SOL    HW215131   5.417   0.305   5.404
 4948SOL     OW15132   5.454   0.934   5.241
 4948SOL    HW115133   5.492   1.025   5.256
 4948SOL    HW215134   5.446   0.917   5.142
 4949SOL     OW15135   4.583   1.374   3.740
 4949SOL    HW115136   4.537   1.389   3.828
 4949SOL    HW215137   4.627   1.459   3.710
 4950SOL     OW15138   4.385   1.790   4.677
 4950SOL    HW115139   4.339   1.878   4.664
 4950SOL    HW215140   4.484   1.802   4.670
 4951SOL     OW15141   4.583   0.956   4.585
 4951SOL    HW115142   4.637   0.887   4.633
 4951SOL    HW215143   4.551   1.025   4.651
 4952SOL     OW15144   4.807   0.984   3.811
 4952SOL    HW115145   4.784   1.037   3.729
 4952SOL    HW215146   4.888   0.928   3.792
 4953SOL     OW15147   5.585   1.569   4.575
 4953SOL    HW115148   5.514   1.557   4.505
 4953SOL    HW215149   5.586   1.490   4.635
 4954SOL     OW15150   3.945   1.314   5.568
 4954SOL    HW115151   3.880   1.241   5.547
 4954SOL    HW215152   3.949   1.328   5.666
 4955SOL     OW15153   3.803   1.240   4.377
 4955SOL    HW115154   3.802   1.193   4.465
 4955SOL    HW215155   3.885   1.212   4.326
 4956SOL     OW15156   4.396   1.391   5.348
 4956SOL    HW115157   4.318   1.341   5.386
 4956SOL    HW215158   4.393   1.486   5.379
 4957SOL     OW15159   5.548   0.192   4.951
 4957SOL    HW115160   5.544   0.102   4.995
 4957SOL    HW215161   5.551   0.181   4.852
 4958SOL     OW15162   4.152   0.424   4.244
 4958SOL    HW115163   4.182   0.352   4.182
 4958SOL    HW215164   4.113   0.384   4.327
 4959SOL     OW15165   5.429   1.487   4.828
 4959SOL    HW115166   5.336   1.462   4.801
 4959SOL    HW215167   5.455   1.437   4.910
 4960SOL     OW15168   4.041   0.547   5.004
 4960SOL    HW115169   4.079   0.488   5.076
 4960SOL    HW215170   4.081   0.521   4.916
 4961SOL     OW15171   4.536   1.586   4.411
 4961SOL    HW115172   4.568   1.596   4.317
 4961SOL    HW215173   4.457   1.524   4.413
 4962SOL     OW15174   5.148   0.214   4.836
 4962SOL    HW115175   5.200   0.149   4.891
 4962SOL    HW215176   5.099   0.277   4.897
 4963SOL     OW15177   4.725   0.034   4.878
 4963SOL    HW115178   4.662  -0.038   4.847
 4963SOL    HW215179   4.818  -0.002   4.878
 4964SOL     OW15180   4.494   1.330   4.025
 4964SOL    HW115181   4.448   1.243   4.042
 4964SOL    HW215182   4.585   1.327   4.066
 4965SOL     OW15183   4.342   1.567   5.008
 4965SOL    HW115184   4.337   1.649   5.065
 4965SOL    HW215185   4.431   1.564   4.963
 4966SOL     OW15186   5.076   0.052   3.892
 4966SOL    HW115187   5.111   0.011   3.808
 4966SOL    HW215188   4.986   0.014   3.912
 4967SOL     OW15189   5.024   0.453   4.415
 4967SOL    HW115190   4.965   0.533   4.419
 4967SOL    HW215191   5.039   0.418   4.508
 4968SOL     OW15192   5.317   0.221   4.606
 4968SOL    HW115193   5.233   0.220   4.660
 4968SOL    HW215194   5.319   0.304   4.550
 4969SOL     OW15195   3.763   1.077   4.024
 4969SOL    HW115196   3.862   1.066   4.015
 4969SOL    HW215197   3.723   0.991   4.056
 4970SOL     OW15198   4.599   1.646   4.061
 4970SOL    HW115199   4.522   1.611   4.007
 4970SOL    HW215200   4.567   1.717   4.123
 4971SOL     OW15201   3.954   0.628   5.699
 4971SOL    HW115202   3.861   0.626   5.736
 4971SOL    HW215203   3.955   0.589   5.607
 4972SOL     OW15204   5.479   0.607   5.817
 4972SOL    HW115205   5.467   0.594   5.718
 4972SOL    HW215206   5.449   0.526   5.866
 4973SOL     OW15207   3.955   1.713   6.069
 4973SOL    HW115208   3.989   1.790   6.123
 4973SOL    HW215209   3.999   1.713   5.979
 4974SOL     OW15210   4.330   0.964   5.709
 4974SOL    HW115211   4.337   1.048   5.655
 4974SOL    HW215212   4.376   0.977   5.797
 4975SOL     OW15213   5.566   1.767   5.945
 4975SOL    HW115214   5.620   1.738   6.025
 4975SOL    HW215215   5.596   1.857   5.916
 4976SOL     OW15216   3.751   1.596   5.703
 4976SOL    HW115217   3.732   1.500   5.724
 4976SOL    HW215218   3.718   1.654   5.778
 4977SOL     OW15219   5.413   0.922   6.198
 4977SOL    HW115220   5.508   0.893   6.206
 4977SOL    HW215221   5.405   0.987   6.123
 4978SOL     OW15222   5.365   1.108   6.018
 4978SOL    HW115223   5.451   1.110   5.966
 4978SOL    HW215224   5.379   1.155   6.106
 4979SOL     OW15225   5.249   0.999   5.776
 4979SOL    HW115226   5.186   0.923   5.789
 4979SOL    HW215227   5.297   1.017   5.862
 4980SOL     OW15228   4.322   0.729   5.856
 4980SOL    HW115229   4.346   0.798   5.788
 4980SOL    HW215230   4.244   0.762   5.910
 4981SOL     OW15231   4.589   0.348   5.781
 4981SOL    HW115232   4.648   0.411   5.732
 4981SOL    HW215233   4.608   0.254   5.752
 4982SOL     OW15234   4.045   0.943   5.828
 4982SOL    HW115235   4.127   0.982   5.786
 4982SOL    HW215236   4.018   0.861   5.779
 4983SOL     OW15237   4.835   1.776   5.823
 4983SOL    HW115238   4.775   1.714   5.873
 4983SOL    HW215239   4.866   1.732   5.738
 4984SOL     OW15240   5.356   1.377   5.667
 4984SOL    HW115241   5.324   1.471   5.657
 4984SOL    HW215242   5.280   1.314   5.655
 4985SOL     OW15243   4.188   1.743   5.909
 4985SOL    HW115244   4.221   1.782   5.995
 4985SOL    HW215245   4.264   1.736   5.844
 4986SOL     OW15246   4.338   0.122   5.703
 4986SOL    HW115247   4.436   0.100   5.710
 4986SOL    HW215248   4.307   0.105   5.610
 4987SOL     OW15249   5.158   1.188   5.627
 4987SOL    HW115250   5.190   1.112   5.684
 4987SOL    HW215251   5.066   1.215   5.657
 4988SOL     OW15252   4.021   0.035   5.757
 4988SOL    HW115253   4.070   0.119   5.736
 4988SOL    HW215254   4.083  -0.030   5.802
 4989SOL     OW15255   4.756   0.549   5.602
 4989SOL    HW115256   4.715   0.631   5.563
 4989SOL    HW215257   4.820   0.575   5.675
 4990SOL     OW15258   5.581   0.833   5.963
 4990SOL    HW115259   5.623   0.769   6.027
 4990SOL    HW215260   5.543   0.782   5.885
 4991SOL     OW15261   4.212   1.385   5.760
 4991SOL    HW115262   4.125   1.370   5.807
 4991SOL    HW215263   4.195   1.411   5.665
 4992SOL     OW15264   5.388   1.280   6.243
 4992SOL    HW115265   5.487   1.288   6.257
 4992SOL    HW215266   5.343   1.364   6.274
 4993SOL     OW15267   5.114   0.575   5.664
 4993SOL    HW115268   5.060   0.554   5.745
 4993SOL    HW215269   5.205   0.534   5.673
 4994SOL     OW15270   4.251   0.256   5.914
 4994SOL    HW115271   4.278   0.197   5.839
 4994SOL    HW215272   4.251   0.351   5.883
 4995SOL     OW15273   4.091   1.100   6.087
 4995SOL    HW115274   4.084   1.183   6.031
 4995SOL    HW215275   4.095   1.020   6.027
 4996SOL     OW15276   4.933   0.525   5.861
 4996SOL    HW115277   4.946   0.441   5.915
 4996SOL    HW215278   4.904   0.599   5.921
 4997SOL     OW15279   5.264   0.274   5.711
 4997SOL    HW115280   5.203   0.199   5.734
 4997SOL    HW215281   5.286   0.326   5.794
 4998SOL     OW15282   5.027   0.838   5.628
 4998SOL    HW115283   5.061   0.745   5.643
 4998SOL    HW215284   5.045   0.865   5.533
 4999SOL     OW15285   3.732   1.326   5.786
 4999SOL    HW115286   3.639   1.347   5.755
 4999SOL    HW215287   3.742   1.227   5.799
 5000SOL     OW15288   4.539   0.572   5.911
 5000SOL    HW115289   4.546   0.483   5.865
 5000SOL    HW215290   4.445   0.606   5.903
 5001SOL     OW15291   4.197   0.500   5.777
 5001SOL    HW115292   4.258   0.580   5.781
 5001SOL    HW215293   4.102   0.531   5.784
 5002SOL     OW15294   5.450   0.135   6.109
 5002SOL    HW115295   5.523   0.118   6.042
 5002SOL    HW215296   5.419   0.048   6.147
 5003SOL     OW15297   4.396   1.616   5.740
 5003SOL    HW115298   4.405   1.626   5.641
 5003SOL    HW215299   4.356   1.527   5.761
 5004SOL     OW15300   4.918   1.612   5.617
 5004SOL    HW115301   4.924   1.519   5.654
 5004SOL    HW215302   4.859   1.612   5.537
 5005SOL     OW15303   4.640   0.910   5.877
 5005SOL    HW115304   4.703   0.948   5.809
 5005SOL    HW215305   4.680   0.827   5.916
 5006SOL     OW15306   5.228   1.607   5.630
 5006SOL    HW115307   5.136   1.644   5.637
 5006SOL    HW215308   5.266   1.627   5.540
 5007SOL     OW15309   4.763   1.098   6.282
 5007SOL    HW115310   4.693   1.051   6.336
 5007SOL    HW215311   4.822   1.030   6.239
 5008SOL     OW15312   3.979   1.348   5.876
 5008SOL    HW115313   3.883   1.349   5.849
 5008SOL    HW215314   3.991   1.401   5.960
 5009SOL     OW15315   3.799   0.345   5.619
 5009SOL    HW115316   3.707   0.317   5.590
 5009SOL    HW215317   3.830   0.422   5.563
 5010SOL     OW15318   3.796   0.166   5.904
 5010SOL    HW115319   3.779   0.249   5.850
 5010SOL    HW215320   3.886   0.129   5.882
 5011SOL     OW15321   4.907   1.335   5.705
 5011SOL    HW115322   4.808   1.324   5.707
 5011SOL    HW215323   4.941   1.350   5.798
 5012SOL     OW15324   4.949   0.325   6.035
 5012SOL    HW115325   5.014   0.251   6.024
 5012SOL    HW215326   4.969   0.375   6.119
 5013SOL     OW15327   4.583   1.374   5.602
 5013SOL    HW115328   4.537   1.389   5.690
 5013SOL    HW215329   4.627   1.459   5.572
 5014SOL     OW15330   4.807   0.984   5.673
 5014SOL    HW115331   4.784   1.037   5.591
 5014SOL    HW215332   4.888   0.928   5.654
 5015SOL     OW15333   5.076   0.052   5.754
 5015SOL    HW115334   5.111   0.011   5.670
 5015SOL    HW215335   4.986   0.014   5.774
 5016SOL     OW15336   3.763   1.077   5.886
 5016SOL    HW115337   3.862   1.066   5.877
 5016SOL    HW215338   3.723   0.991   5.918
 5017SOL     OW15339   4.599   1.646   5.923
 5017SOL    HW115340   4.522   1.611   5.869
 5017SOL    HW215341   4.567   1.717   5.985
 5018SOL     OW15342   3.954   2.490   0.113
 5018SOL    HW115343   3.861   2.488   0.150
 5018SOL    HW215344   3.955   2.451   0.021
 5019SOL     OW15345   3.949   2.137   0.996
 5019SOL    HW115346   3.984   2.120   1.088
 5019SOL    HW215347   3.861   2.092   0.984
 5020SOL     OW15348   3.743   2.230   0.647
 5020SOL    HW115349   3.661   2.273   0.686
 5020SOL    HW215350   3.715   2.157   0.584
 5021SOL     OW15351   4.293   3.137   1.165
 5021SOL    HW115352   4.200   3.130   1.128
 5021SOL    HW215353   4.304   3.226   1.209
 5022SOL     OW15354   5.279   3.373   0.703
 5022SOL    HW115355   5.222   3.357   0.784
 5022SOL    HW215356   5.220   3.383   0.623
 5023SOL     OW15357   4.859   2.565   0.717
 5023SOL    HW115358   4.916   2.643   0.692
 5023SOL    HW215359   4.799   2.591   0.793
 5024SOL     OW15360   5.479   2.469   0.231
 5024SOL    HW115361   5.467   2.456   0.132
 5024SOL    HW215362   5.449   2.388   0.280
 5025SOL     OW15363   4.492   3.006   1.023
 5025SOL    HW115364   4.414   3.023   1.083
 5025SOL    HW215365   4.526   3.093   0.987
 5026SOL     OW15366   4.574   2.660   1.823
 5026SOL    HW115367   4.570   2.736   1.888
 5026SOL    HW215368   4.596   2.696   1.732
 5027SOL     OW15369   4.409   2.874   0.665
 5027SOL    HW115370   4.478   2.858   0.735
 5027SOL    HW215371   4.336   2.931   0.703
 5028SOL     OW15372   4.410   3.023   1.803
 5028SOL    HW115373   4.470   3.102   1.817
 5028SOL    HW215374   4.324   3.054   1.762
 5029SOL     OW15375   4.059   3.297   1.061
 5029SOL    HW115376   3.981   3.266   1.008
 5029SOL    HW215377   4.117   3.355   1.004
 5030SOL     OW15378   5.184   3.367   1.339
 5030SOL    HW115379   5.208   3.461   1.365
 5030SOL    HW215380   5.168   3.313   1.421
 5031SOL     OW15381   4.162   2.254   1.499
 5031SOL    HW115382   4.244   2.198   1.508
 5031SOL    HW215383   4.081   2.196   1.503
 5032SOL     OW15384   5.327   2.309   0.737
 5032SOL    HW115385   5.253   2.355   0.687
 5032SOL    HW215386   5.378   2.377   0.790
 5033SOL     OW15387   3.955   3.575   0.483
 5033SOL    HW115388   3.989   3.652   0.537
 5033SOL    HW215389   3.999   3.575   0.393
 5034SOL     OW15390   4.851   3.203   1.690
 5034SOL    HW115391   4.898   3.203   1.778
 5034SOL    HW215392   4.803   3.116   1.679
 5035SOL     OW15393   3.954   3.296   0.538
 5035SOL    HW115394   3.928   3.392   0.538
 5035SOL    HW215395   3.883   3.242   0.583
 5036SOL     OW15396   3.964   2.953   0.886
 5036SOL    HW115397   3.978   2.869   0.938
 5036SOL    HW215398   3.909   3.017   0.941
 5037SOL     OW15399   4.344   3.648   1.439
 5037SOL    HW115400   4.252   3.631   1.474
 5037SOL    HW215401   4.372   3.740   1.465
 5038SOL     OW15402   4.330   2.826   0.123
 5038SOL    HW115403   4.337   2.910   0.069
 5038SOL    HW215404   4.376   2.839   0.211
 5039SOL     OW15405   5.318   1.976   1.480
 5039SOL    HW115406   5.300   2.043   1.408
 5039SOL    HW215407   5.315   2.022   1.569
 5040SOL     OW15408   3.846   2.505   0.563
 5040SOL    HW115409   3.801   2.417   0.580
 5040SOL    HW215410   3.845   2.559   0.647
 5041SOL     OW15411   5.566   3.629   0.359
 5041SOL    HW115412   5.620   3.600   0.439
 5041SOL    HW215413   5.596   3.719   0.330
 5042SOL     OW15414   3.751   3.458   0.117
 5042SOL    HW115415   3.732   3.362   0.138
 5042SOL    HW215416   3.718   3.516   0.192
 5043SOL     OW15417   5.413   2.784   0.612
 5043SOL    HW115418   5.508   2.755   0.620
 5043SOL    HW215419   5.405   2.849   0.537
 5044SOL     OW15420   5.365   2.970   0.432
 5044SOL    HW115421   5.451   2.972   0.380
 5044SOL    HW215422   5.379   3.017   0.520
 5045SOL     OW15423   3.837   2.599   1.597
 5045SOL    HW115424   3.925   2.586   1.642
 5045SOL    HW215425   3.824   2.696   1.575
 5046SOL     OW15426   4.337   3.227   0.726
 5046SOL    HW115427   4.288   3.140   0.735
 5046SOL    HW215428   4.314   3.270   0.639
 5047SOL     OW15429   5.017   3.090   1.423
 5047SOL    HW115430   5.054   3.017   1.365
 5047SOL    HW215431   5.069   3.095   1.508
 5048SOL     OW15432   4.533   1.866   0.502
 5048SOL    HW115433   4.573   1.957   0.493
 5048SOL    HW215434   4.433   1.874   0.508
 5049SOL     OW15435   3.921   2.838   1.264
 5049SOL    HW115436   4.010   2.793   1.250
 5049SOL    HW215437   3.848   2.773   1.245
 5050SOL     OW15438   5.249   2.861   0.190
 5050SOL    HW115439   5.186   2.785   0.203
 5050SOL    HW215440   5.297   2.879   0.276
 5051SOL     OW15441   4.911   3.654   1.616
 5051SOL    HW115442   4.935   3.714   1.540
 5051SOL    HW215443   4.918   3.559   1.586
 5052SOL     OW15444   4.041   2.113   1.801
 5052SOL    HW115445   4.112   2.184   1.807
 5052SOL    HW215446   3.953   2.152   1.829
 5053SOL     OW15447   5.190   3.279   0.953
 5053SOL    HW115448   5.131   3.285   1.033
 5053SOL    HW215449   5.175   3.191   0.907
 5054SOL     OW15450   5.391   3.576   0.572
 5054SOL    HW115451   5.350   3.553   0.484
 5054SOL    HW215452   5.373   3.502   0.637
 5055SOL     OW15453   4.322   2.591   0.270
 5055SOL    HW115454   4.346   2.660   0.202
 5055SOL    HW215455   4.244   2.624   0.324
 5056SOL     OW15456   5.005   2.207   0.944
 5056SOL    HW115457   4.919   2.157   0.931
 5056SOL    HW215458   5.067   2.153   1.000
 5057SOL     OW15459   5.300   3.524   0.307
 5057SOL    HW115460   5.389   3.570   0.310
 5057SOL    HW215461   5.279   3.500   0.212
 5058SOL     OW15462   4.531   2.467   1.465
 5058SOL    HW115463   4.484   2.464   1.554
 5058SOL    HW215464   4.480   2.412   1.399
 5059SOL     OW15465   5.118   2.331   1.674
 5059SOL    HW115466   5.098   2.374   1.762
 5059SOL    HW215467   5.196   2.269   1.683
 5060SOL     OW15468   4.697   2.752   1.572
 5060SOL    HW115469   4.743   2.668   1.543
 5060SOL    HW215470   4.641   2.786   1.497
 5061SOL     OW15471   4.715   2.272   1.242
 5061SOL    HW115472   4.638   2.306   1.296
 5061SOL    HW215473   4.681   2.221   1.163
 5062SOL     OW15474   4.765   2.563   0.429
 5062SOL    HW115475   4.791   2.559   0.525
 5062SOL    HW215476   4.680   2.512   0.415
 5063SOL     OW15477   3.800   2.673   0.789
 5063SOL    HW115478   3.899   2.661   0.798
 5063SOL    HW215479   3.776   2.768   0.810
 5064SOL     OW15480   3.854   3.683   1.571
 5064SOL    HW115481   3.844   3.668   1.670
 5064SOL    HW215482   3.768   3.719   1.535
 5065SOL     OW15483   4.589   2.210   0.195
 5065SOL    HW115484   4.648   2.273   0.146
 5065SOL    HW215485   4.608   2.116   0.166
 5066SOL     OW15486   5.443   2.447   1.831
 5066SOL    HW115487   5.417   2.536   1.795
 5066SOL    HW215488   5.441   2.379   1.758
 5067SOL     OW15489   5.086   3.006   0.545
 5067SOL    HW115490   5.169   2.977   0.497
 5067SOL    HW215491   5.037   3.073   0.489
 5068SOL     OW15492   4.274   2.058   0.885
 5068SOL    HW115493   4.269   2.053   0.985
 5068SOL    HW215494   4.276   2.154   0.856
 5069SOL     OW15495   4.732   3.318   0.477
 5069SOL    HW115496   4.686   3.390   0.425
 5069SOL    HW215497   4.728   3.338   0.575
 5070SOL     OW15498   4.075   3.663   0.853
 5070SOL    HW115499   4.125   3.577   0.859
 5070SOL    HW215500   4.140   3.740   0.850
 5071SOL     OW15501   5.519   2.928   0.873
 5071SOL    HW115502   5.457   2.913   0.797
 5071SOL    HW215503   5.467   2.939   0.958
 5072SOL     OW15504   4.951   3.412   1.506
 5072SOL    HW115505   4.957   3.335   1.570
 5072SOL    HW215506   4.899   3.386   1.426
 5073SOL     OW15507   4.045   2.805   0.242
 5073SOL    HW115508   4.127   2.844   0.200
 5073SOL    HW215509   4.018   2.723   0.193
 5074SOL     OW15510   5.182   2.597   0.728
 5074SOL    HW115511   5.177   2.532   0.803
 5074SOL    HW215512   5.262   2.656   0.741
 5075SOL     OW15513   4.185   3.128   1.727
 5075SOL    HW115514   4.135   3.129   1.641
 5075SOL    HW215515   4.122   3.110   1.803
 5076SOL     OW15516   4.835   3.638   0.237
 5076SOL    HW115517   4.775   3.576   0.287
 5076SOL    HW215518   4.866   3.594   0.152
 5077SOL     OW15519   3.926   2.147   1.498
 5077SOL    HW115520   3.846   2.207   1.485
 5077SOL    HW215521   3.916   2.098   1.584
 5078SOL     OW15522   5.356   3.239   0.081
 5078SOL    HW115523   5.324   3.333   0.071
 5078SOL    HW215524   5.280   3.176   0.069
 5079SOL     OW15525   4.188   3.605   0.323
 5079SOL    HW115526   4.221   3.644   0.409
 5079SOL    HW215527   4.264   3.598   0.258
 5080SOL     OW15528   5.124   1.969   0.426
 5080SOL    HW115529   5.100   1.932   0.336
 5080SOL    HW215530   5.223   1.985   0.430
 5081SOL     OW15531   3.973   3.647   1.241
 5081SOL    HW115532   4.030   3.582   1.291
 5081SOL    HW215533   3.957   3.614   1.148
 5082SOL     OW15534   4.664   3.560   0.904
 5082SOL    HW115535   4.744   3.503   0.925
 5082SOL    HW215536   4.615   3.520   0.827
 5083SOL     OW15537   4.106   2.562   0.480
 5083SOL    HW115538   4.151   2.472   0.477
 5083SOL    HW215539   4.012   2.551   0.513
 5084SOL     OW15540   5.271   2.084   1.729
 5084SOL    HW115541   5.266   2.121   1.821
 5084SOL    HW215542   5.199   2.015   1.717
 5085SOL     OW15543   4.338   1.984   0.117
 5085SOL    HW115544   4.436   1.962   0.124
 5085SOL    HW215545   4.307   1.967   0.024
 5086SOL     OW15546   4.505   2.126   1.749
 5086SOL    HW115547   4.572   2.065   1.792
 5086SOL    HW215548   4.432   2.145   1.814
 5087SOL     OW15549   4.612   3.376   1.195
 5087SOL    HW115550   4.589   3.351   1.101
 5087SOL    HW215551   4.673   3.307   1.234
 5088SOL     OW15552   5.075   2.452   1.433
 5088SOL    HW115553   5.103   2.409   1.518
 5088SOL    HW215554   5.100   2.548   1.434
 5089SOL     OW15555   4.527   3.264   0.924
 5089SOL    HW115556   4.617   3.278   0.882
 5089SOL    HW215557   4.456   3.266   0.853
 5090SOL     OW15558   4.646   2.365   0.899
 5090SOL    HW115559   4.621   2.356   0.803
 5090SOL    HW215560   4.694   2.283   0.930
 5091SOL     OW15561   4.263   1.926   0.512
 5091SOL    HW115562   4.182   1.927   0.570
 5091SOL    HW215563   4.266   2.009   0.457
 5092SOL     OW15564   5.158   3.050   0.041
 5092SOL    HW115565   5.190   2.974   0.098
 5092SOL    HW215566   5.066   3.077   0.071
 5093SOL     OW15567   4.659   2.098   0.480
 5093SOL    HW115568   4.611   2.139   0.402
 5093SOL    HW215569   4.758   2.096   0.461
 5094SOL     OW15570   4.800   2.545   1.464
 5094SOL    HW115571   4.720   2.484   1.467
 5094SOL    HW215572   4.881   2.492   1.440
 5095SOL     OW15573   4.951   3.432   0.793
 5095SOL    HW115574   4.972   3.506   0.728
 5095SOL    HW215575   5.019   3.432   0.866
 5096SOL     OW15576   4.183   3.014   0.741
 5096SOL    HW115577   4.112   2.987   0.806
 5096SOL    HW215578   4.157   2.986   0.648
 5097SOL     OW15579   4.995   3.659   0.591
 5097SOL    HW115580   5.039   3.723   0.527
 5097SOL    HW215581   4.945   3.711   0.661
 5098SOL     OW15582   4.756   2.411   0.016
 5098SOL    HW115583   4.715   2.493  -0.023
 5098SOL    HW215584   4.820   2.437   0.089
 5099SOL     OW15585   3.802   2.418   1.386
 5099SOL    HW115586   3.894   2.417   1.345
 5099SOL    HW215587   3.796   2.492   1.453
 5100SOL     OW15588   4.285   2.084   1.147
 5100SOL    HW115589   4.323   2.000   1.184
 5100SOL    HW215590   4.197   2.103   1.191
 5101SOL     OW15591   4.590   2.316   0.642
 5101SOL    HW115592   4.558   2.388   0.580
 5101SOL    HW215593   4.614   2.235   0.589
 5102SOL     OW15594   4.741   1.901   0.753
 5102SOL    HW115595   4.669   1.906   0.684
 5102SOL    HW215596   4.717   1.832   0.822
 5103SOL     OW15597   5.153   3.035   0.867
 5103SOL    HW115598   5.098   2.951   0.860
 5103SOL    HW215599   5.179   3.064   0.775
 5104SOL     OW15600   5.190   2.452   0.992
 5104SOL    HW115601   5.160   2.357   0.999
 5104SOL    HW215602   5.263   2.468   1.058
 5105SOL     OW15603   5.581   2.695   0.377
 5105SOL    HW115604   5.623   2.631   0.441
 5105SOL    HW215605   5.543   2.644   0.299
 5106SOL     OW15606   4.212   3.247   0.174
 5106SOL    HW115607   4.125   3.232   0.221
 5106SOL    HW215608   4.195   3.273   0.079
 5107SOL     OW15609   5.388   3.142   0.657
 5107SOL    HW115610   5.487   3.150   0.671
 5107SOL    HW215611   5.343   3.226   0.688
 5108SOL     OW15612   5.114   2.437   0.078
 5108SOL    HW115613   5.060   2.416   0.159
 5108SOL    HW215614   5.205   2.396   0.087
 5109SOL     OW15615   4.251   2.118   0.328
 5109SOL    HW115616   4.278   2.059   0.253
 5109SOL    HW215617   4.251   2.213   0.297
 5110SOL     OW15618   5.478   3.085   1.588
 5110SOL    HW115619   5.569   3.046   1.575
 5110SOL    HW215620   5.486   3.181   1.612
 5111SOL     OW15621   4.788   3.209   1.340
 5111SOL    HW115622   4.708   3.186   1.395
 5111SOL    HW215623   4.871   3.183   1.389
 5112SOL     OW15624   5.316   3.491   1.625
 5112SOL    HW115625   5.343   3.525   1.535
 5112SOL    HW215626   5.395   3.453   1.671
 5113SOL     OW15627   4.835   3.057   1.100
 5113SOL    HW115628   4.795   3.101   1.181
 5113SOL    HW215629   4.794   3.094   1.017
 5114SOL     OW15630   5.362   2.961   1.079
 5114SOL    HW115631   5.367   3.042   1.138
 5114SOL    HW215632   5.276   2.963   1.028
 5115SOL     OW15633   4.639   1.951   1.402
 5115SOL    HW115634   4.664   1.931   1.307
 5115SOL    HW215635   4.711   2.007   1.444
 5116SOL     OW15636   4.704   2.978   1.719
 5116SOL    HW115637   4.605   2.984   1.729
 5116SOL    HW215638   4.727   2.898   1.663
 5117SOL     OW15639   4.429   2.912   0.368
 5117SOL    HW115640   4.415   2.919   0.467
 5117SOL    HW215641   4.513   2.861   0.350
 5118SOL     OW15642   4.134   2.675   1.251
 5118SOL    HW115643   4.220   2.687   1.301
 5118SOL    HW215644   4.092   2.588   1.278
 5119SOL     OW15645   4.998   2.248   1.262
 5119SOL    HW115646   5.019   2.322   1.326
 5119SOL    HW215647   4.909   2.265   1.219
 5120SOL     OW15648   3.788   3.426   1.331
 5120SOL    HW115649   3.742   3.508   1.297
 5120SOL    HW215650   3.886   3.445   1.340
 5121SOL     OW15651   4.091   2.962   0.501
 5121SOL    HW115652   4.084   3.045   0.445
 5121SOL    HW215653   4.095   2.882   0.441
 5122SOL     OW15654   4.290   2.399   0.865
 5122SOL    HW115655   4.302   2.465   0.791
 5122SOL    HW215656   4.336   2.433   0.948
 5123SOL     OW15657   4.976   3.210   0.388
 5123SOL    HW115658   5.026   3.287   0.428
 5123SOL    HW215659   4.881   3.212   0.420
 5124SOL     OW15660   4.996   3.307   1.142
 5124SOL    HW115661   5.043   3.320   1.229
 5124SOL    HW215662   4.930   3.233   1.151
 5125SOL     OW15663   5.306   2.501   0.472
 5125SOL    HW115664   5.275   2.562   0.545
 5125SOL    HW215665   5.356   2.553   0.403
 5126SOL     OW15666   4.078   3.372   1.329
 5126SOL    HW115667   4.057   3.328   1.242
 5126SOL    HW215668   4.175   3.398   1.332
 5127SOL     OW15669   4.126   2.613   1.598
 5127SOL    HW115670   4.194   2.668   1.551
 5127SOL    HW215671   4.166   2.525   1.625
 5128SOL     OW15672   5.311   2.641   1.670
 5128SOL    HW115673   5.219   2.679   1.665
 5128SOL    HW215674   5.371   2.688   1.605
 5129SOL     OW15675   4.737   1.967   1.770
 5129SOL    HW115676   4.743   2.052   1.718
 5129SOL    HW215677   4.769   1.891   1.713
 5130SOL     OW15678   4.228   1.912   1.740
 5130SOL    HW115679   4.186   1.855   1.670
 5130SOL    HW215680   4.162   1.981   1.772
 5131SOL     OW15681   4.297   2.732   1.029
 5131SOL    HW115682   4.341   2.821   1.020
 5131SOL    HW215683   4.234   2.732   1.106
 5132SOL     OW15684   5.084   2.724   1.045
 5132SOL    HW115685   5.009   2.724   0.979
 5132SOL    HW215686   5.121   2.632   1.054
 5133SOL     OW15687   4.933   2.387   0.275
 5133SOL    HW115688   4.946   2.303   0.329
 5133SOL    HW215689   4.904   2.461   0.335
 5134SOL     OW15690   4.031   2.075   1.231
 5134SOL    HW115691   4.008   2.112   1.321
 5134SOL    HW215692   4.001   1.980   1.225
 5135SOL     OW15693   3.761   3.172   1.282
 5135SOL    HW115694   3.814   3.123   1.350
 5135SOL    HW215695   3.783   3.270   1.287
 5136SOL     OW15696   4.456   2.496   1.064
 5136SOL    HW115697   4.515   2.470   0.988
 5136SOL    HW215698   4.428   2.592   1.053
 5137SOL     OW15699   5.452   2.797   1.854
 5137SOL    HW115700   5.406   2.790   1.765
 5137SOL    HW215701   5.390   2.841   1.920
 5138SOL     OW15702   4.031   1.925   0.618
 5138SOL    HW115703   4.020   2.019   0.651
 5138SOL    HW215704   4.026   1.862   0.695
 5139SOL     OW15705   5.346   2.229   0.374
 5139SOL    HW115706   5.348   2.153   0.438
 5139SOL    HW215707   5.298   2.306   0.414
 5140SOL     OW15708   4.747   2.628   0.966
 5140SOL    HW115709   4.762   2.649   1.062
 5140SOL    HW215710   4.717   2.533   0.957
 5141SOL     OW15711   4.704   3.435   1.700
 5141SOL    HW115712   4.684   3.479   1.612
 5141SOL    HW215713   4.743   3.344   1.684
 5142SOL     OW15714   5.583   3.380   1.605
 5142SOL    HW115715   5.597   3.407   1.510
 5142SOL    HW215716   5.666   3.402   1.658
 5143SOL     OW15717   4.074   2.760   1.804
 5143SOL    HW115718   4.150   2.804   1.852
 5143SOL    HW215719   4.109   2.713   1.722
 5144SOL     OW15720   5.264   2.136   0.125
 5144SOL    HW115721   5.203   2.061   0.148
 5144SOL    HW215722   5.286   2.188   0.208
 5145SOL     OW15723   5.027   2.700   0.042
 5145SOL    HW115724   5.061   2.607   0.057
 5145SOL    HW215725   5.045   2.727  -0.053
 5146SOL     OW15726   4.792   3.195   0.849
 5146SOL    HW115727   4.799   3.111   0.794
 5146SOL    HW215728   4.854   3.264   0.813
 5147SOL     OW15729   4.043   2.672   0.949
 5147SOL    HW115730   4.136   2.708   0.954
 5147SOL    HW215731   4.037   2.587   1.001
 5148SOL     OW15732   4.063   2.371   1.006
 5148SOL    HW115733   4.011   2.288   0.989
 5148SOL    HW215734   4.140   2.376   0.942
 5149SOL     OW15735   4.862   2.242   1.678
 5149SOL    HW115736   4.817   2.305   1.742
 5149SOL    HW215737   4.955   2.273   1.661
 5150SOL     OW15738   4.884   2.069   1.477
 5150SOL    HW115739   4.884   2.133   1.554
 5150SOL    HW215740   4.912   2.117   1.394
 5151SOL     OW15741   3.812   3.663   0.927
 5151SOL    HW115742   3.770   3.577   0.900
 5151SOL    HW215743   3.906   3.666   0.893
 5152SOL     OW15744   4.228   3.430   0.910
 5152SOL    HW115745   4.294   3.504   0.919
 5152SOL    HW215746   4.272   3.351   0.868
 5153SOL     OW15747   4.726   2.658   1.238
 5153SOL    HW115748   4.767   2.626   1.324
 5153SOL    HW215749   4.630   2.631   1.235
 5154SOL     OW15750   3.764   2.406   1.114
 5154SOL    HW115751   3.849   2.373   1.073
 5154SOL    HW215752   3.777   2.421   1.212
 5155SOL     OW15753   3.913   2.382   1.722
 5155SOL    HW115754   3.972   2.342   1.652
 5155SOL    HW215755   3.855   2.453   1.681
 5156SOL     OW15756   5.093   2.812   1.660
 5156SOL    HW115757   5.132   2.901   1.680
 5156SOL    HW215758   5.103   2.792   1.563
 5157SOL     OW15759   4.539   2.434   0.325
 5157SOL    HW115760   4.546   2.345   0.279
 5157SOL    HW215761   4.445   2.468   0.317
 5158SOL     OW15762   5.381   2.466   1.206
 5158SOL    HW115763   5.343   2.397   1.268
 5158SOL    HW215764   5.463   2.430   1.162
 5159SOL     OW15765   3.976   3.426   1.744
 5159SOL    HW115766   3.946   3.483   1.820
 5159SOL    HW215767   3.969   3.329   1.770
 5160SOL     OW15768   4.395   2.326   1.269
 5160SOL    HW115769   4.361   2.237   1.239
 5160SOL    HW215770   4.421   2.380   1.189
 5161SOL     OW15771   4.654   3.540   1.465
 5161SOL    HW115772   4.630   3.522   1.370
 5161SOL    HW215773   4.684   3.634   1.475
 5162SOL     OW15774   4.197   2.362   0.191
 5162SOL    HW115775   4.258   2.442   0.195
 5162SOL    HW215776   4.102   2.393   0.198
 5163SOL     OW15777   3.883   2.999   1.466
 5163SOL    HW115778   3.905   2.938   1.542
 5163SOL    HW215779   3.893   2.950   1.380
 5164SOL     OW15780   5.071   2.921   1.234
 5164SOL    HW115781   5.095   2.858   1.160
 5164SOL    HW215782   4.981   2.961   1.216
 5165SOL     OW15783   5.026   2.717   0.309
 5165SOL    HW115784   4.940   2.686   0.351
 5165SOL    HW215785   5.022   2.703   0.210
 5166SOL     OW15786   5.483   3.609   1.154
 5166SOL    HW115787   5.544   3.639   1.081
 5166SOL    HW215788   5.445   3.520   1.132
 5167SOL     OW15789   4.976   3.593   1.128
 5167SOL    HW115790   5.060   3.598   1.074
 5167SOL    HW215791   4.953   3.497   1.146
 5168SOL     OW15792   3.807   3.120   1.022
 5168SOL    HW115793   3.802   3.119   1.122
 5168SOL    HW215794   3.724   3.079   0.984
 5169SOL     OW15795   4.412   3.524   1.716
 5169SOL    HW115796   4.356   3.605   1.725
 5169SOL    HW215797   4.464   3.528   1.630
 5170SOL     OW15798   4.627   1.948   0.133
 5170SOL    HW115799   4.678   1.949   0.047
 5170SOL    HW215800   4.683   1.906   0.204
 5171SOL     OW15801   5.450   1.997   0.523
 5171SOL    HW115802   5.523   1.980   0.456
 5171SOL    HW215803   5.419   1.910   0.561
 5172SOL     OW15804   5.112   3.435   0.477
 5172SOL    HW115805   5.179   3.447   0.403
 5172SOL    HW215806   5.072   3.524   0.500
 5173SOL     OW15807   5.004   2.789   0.672
 5173SOL    HW115808   5.064   2.708   0.674
 5173SOL    HW215809   5.044   2.858   0.612
 5174SOL     OW15810   4.554   3.135   1.422
 5174SOL    HW115811   4.549   3.168   1.517
 5174SOL    HW215812   4.468   3.154   1.376
 5175SOL     OW15813   4.396   3.478   0.154
 5175SOL    HW115814   4.405   3.488   0.055
 5175SOL    HW215815   4.356   3.389   0.175
 5176SOL     OW15816   5.374   3.582   1.394
 5176SOL    HW115817   5.427   3.592   1.310
 5176SOL    HW215818   5.347   3.672   1.428
 5177SOL     OW15819   5.565   2.037   0.963
 5177SOL    HW115820   5.604   1.952   0.927
 5177SOL    HW215821   5.467   2.039   0.944
 5178SOL     OW15822   3.987   2.188   0.720
 5178SOL    HW115823   3.908   2.239   0.686
 5178SOL    HW215824   3.978   2.173   0.818
 5179SOL     OW15825   4.918   3.474   0.031
 5179SOL    HW115826   4.924   3.381   0.068
 5179SOL    HW215827   4.859   3.474  -0.049
 5180SOL     OW15828   4.546   2.864   1.372
 5180SOL    HW115829   4.586   2.863   1.280
 5180SOL    HW215830   4.556   2.956   1.412
 5181SOL     OW15831   4.640   2.772   0.291
 5181SOL    HW115832   4.703   2.810   0.223
 5181SOL    HW215833   4.680   2.689   0.330
 5182SOL     OW15834   5.228   3.469   0.044
 5182SOL    HW115835   5.136   3.506   0.051
 5182SOL    HW215836   5.266   3.489  -0.046
 5183SOL     OW15837   4.096   3.150   1.490
 5183SOL    HW115838   4.083   3.243   1.456
 5183SOL    HW215839   4.012   3.098   1.477
 5184SOL     OW15840   5.338   3.154   1.289
 5184SOL    HW115841   5.398   3.157   1.369
 5184SOL    HW215842   5.263   3.218   1.302
 5185SOL     OW15843   4.763   2.960   0.696
 5185SOL    HW115844   4.693   2.913   0.750
 5185SOL    HW215845   4.822   2.892   0.653
 5186SOL     OW15846   4.738   2.098   0.971
 5186SOL    HW115847   4.730   2.062   0.878
 5186SOL    HW215848   4.736   2.022   1.036
 5187SOL     OW15849   4.314   3.349   0.491
 5187SOL    HW115850   4.356   3.291   0.421
 5187SOL    HW215851   4.270   3.428   0.447
 5188SOL     OW15852   5.433   2.247   1.381
 5188SOL    HW115853   5.506   2.316   1.385
 5188SOL    HW215854   5.461   2.172   1.322
 5189SOL     OW15855   3.979   3.210   0.290
 5189SOL    HW115856   3.883   3.211   0.263
 5189SOL    HW215857   3.991   3.263   0.374
 5190SOL     OW15858   3.829   2.875   1.726
 5190SOL    HW115859   3.752   2.842   1.780
 5190SOL    HW215860   3.914   2.845   1.768
 5191SOL     OW15861   4.396   2.065   1.489
 5191SOL    HW115862   4.486   2.049   1.449
 5191SOL    HW215863   4.404   2.070   1.588
 5192SOL     OW15864   3.799   2.207   0.033
 5192SOL    HW115865   3.707   2.179   0.004
 5192SOL    HW215866   3.830   2.284  -0.023
 5193SOL     OW15867   5.164   2.718   1.398
 5193SOL    HW115868   5.107   2.770   1.335
 5193SOL    HW215869   5.260   2.730   1.374
 5194SOL     OW15870   3.796   2.028   0.318
 5194SOL    HW115871   3.779   2.111   0.264
 5194SOL    HW215872   3.886   1.991   0.296
 5195SOL     OW15873   4.907   3.197   0.119
 5195SOL    HW115874   4.808   3.186   0.121
 5195SOL    HW215875   4.941   3.212   0.212
 5196SOL     OW15876   4.337   2.704   1.431
 5196SOL    HW115877   4.393   2.785   1.414
 5196SOL    HW215878   4.396   2.624   1.434
 5197SOL     OW15879   5.217   3.629   0.959
 5197SOL    HW115880   5.250   3.693   0.890
 5197SOL    HW215881   5.283   3.623   1.034
 5198SOL     OW15882   4.440   2.427   1.708
 5198SOL    HW115883   4.459   2.492   1.782
 5198SOL    HW215884   4.500   2.347   1.717
 5199SOL     OW15885   5.174   3.082   1.633
 5199SOL    HW115886   5.165   3.072   1.732
 5199SOL    HW215887   5.270   3.075   1.607
 5200SOL     OW15888   4.114   3.603   1.560
 5200SOL    HW115889   4.023   3.644   1.558
 5200SOL    HW215890   4.107   3.509   1.592
 5201SOL     OW15891   5.398   2.745   1.254
 5201SOL    HW115892   5.371   2.656   1.217
 5201SOL    HW215893   5.399   2.813   1.181
 5202SOL     OW15894   4.949   2.187   0.449
 5202SOL    HW115895   5.014   2.113   0.438
 5202SOL    HW215896   4.969   2.237   0.533
 5203SOL     OW15897   4.318   2.607   0.652
 5203SOL    HW115898   4.368   2.692   0.633
 5203SOL    HW215899   4.230   2.609   0.604
 5204SOL     OW15900   5.501   2.204   1.642
 5204SOL    HW115901   5.484   2.235   1.548
 5204SOL    HW215902   5.417   2.167   1.680
 5205SOL     OW15903   5.454   2.796   1.517
 5205SOL    HW115904   5.492   2.887   1.532
 5205SOL    HW215905   5.446   2.779   1.418
 5206SOL     OW15906   4.583   3.236   0.016
 5206SOL    HW115907   4.537   3.251   0.104
 5206SOL    HW215908   4.627   3.321  -0.014
 5207SOL     OW15909   4.385   3.652   0.953
 5207SOL    HW115910   4.339   3.740   0.940
 5207SOL    HW215911   4.484   3.664   0.946
 5208SOL     OW15912   4.583   2.818   0.861
 5208SOL    HW115913   4.637   2.749   0.909
 5208SOL    HW215914   4.551   2.887   0.927
 5209SOL     OW15915   4.807   2.846   0.087
 5209SOL    HW115916   4.784   2.899   0.005
 5209SOL    HW215917   4.888   2.790   0.068
 5210SOL     OW15918   5.585   3.431   0.851
 5210SOL    HW115919   5.514   3.419   0.781
 5210SOL    HW215920   5.586   3.352   0.911
 5211SOL     OW15921   3.803   3.102   0.653
 5211SOL    HW115922   3.802   3.055   0.741
 5211SOL    HW215923   3.885   3.074   0.602
 5212SOL     OW15924   4.396   3.253   1.624
 5212SOL    HW115925   4.318   3.203   1.662
 5212SOL    HW215926   4.393   3.348   1.655
 5213SOL     OW15927   5.548   2.054   1.227
 5213SOL    HW115928   5.544   1.964   1.271
 5213SOL    HW215929   5.551   2.043   1.128
 5214SOL     OW15930   4.152   2.286   0.520
 5214SOL    HW115931   4.182   2.214   0.458
 5214SOL    HW215932   4.113   2.246   0.603
 5215SOL     OW15933   5.429   3.349   1.104
 5215SOL    HW115934   5.336   3.324   1.077
 5215SOL    HW215935   5.455   3.299   1.186
 5216SOL     OW15936   4.041   2.409   1.280
 5216SOL    HW115937   4.079   2.350   1.352
 5216SOL    HW215938   4.081   2.383   1.192
 5217SOL     OW15939   4.536   3.448   0.687
 5217SOL    HW115940   4.568   3.458   0.593
 5217SOL    HW215941   4.457   3.386   0.689
 5218SOL     OW15942   5.148   2.076   1.112
 5218SOL    HW115943   5.200   2.011   1.167
 5218SOL    HW215944   5.099   2.139   1.173
 5219SOL     OW15945   4.725   1.896   1.154
 5219SOL    HW115946   4.662   1.824   1.123
 5219SOL    HW215947   4.818   1.860   1.154
 5220SOL     OW15948   4.494   3.192   0.301
 5220SOL    HW115949   4.448   3.105   0.318
 5220SOL    HW215950   4.585   3.189   0.342
 5221SOL     OW15951   4.342   3.429   1.284
 5221SOL    HW115952   4.337   3.511   1.341
 5221SOL    HW215953   4.431   3.426   1.239
 5222SOL     OW15954   5.076   1.914   0.168
 5222SOL    HW115955   5.111   1.873   0.084
 5222SOL    HW215956   4.986   1.876   0.188
 5223SOL     OW15957   5.024   2.315   0.691
 5223SOL    HW115958   4.965   2.395   0.695
 5223SOL    HW215959   5.039   2.280   0.784
 5224SOL     OW15960   5.317   2.083   0.882
 5224SOL    HW115961   5.233   2.082   0.936
 5224SOL    HW215962   5.319   2.166   0.826
 5225SOL     OW15963   3.763   2.939   0.300
 5225SOL    HW115964   3.862   2.928   0.291
 5225SOL    HW215965   3.723   2.853   0.332
 5226SOL     OW15966   4.599   3.508   0.337
 5226SOL    HW115967   4.522   3.473   0.283
 5226SOL    HW215968   4.567   3.579   0.399
 5227SOL     OW15969   3.954   2.490   1.975
 5227SOL    HW115970   3.861   2.488   2.012
 5227SOL    HW215971   3.955   2.451   1.883
 5228SOL     OW15972   3.949   2.137   2.858
 5228SOL    HW115973   3.984   2.120   2.950
 5228SOL    HW215974   3.861   2.092   2.846
 5229SOL     OW15975   3.743   2.230   2.509
 5229SOL    HW115976   3.661   2.273   2.548
 5229SOL    HW215977   3.715   2.157   2.446
 5230SOL     OW15978   4.293   3.137   3.027
 5230SOL    HW115979   4.200   3.130   2.990
 5230SOL    HW215980   4.304   3.226   3.071
 5231SOL     OW15981   5.279   3.373   2.565
 5231SOL    HW115982   5.222   3.357   2.646
 5231SOL    HW215983   5.220   3.383   2.485
 5232SOL     OW15984   4.859   2.565   2.579
 5232SOL    HW115985   4.916   2.643   2.554
 5232SOL    HW215986   4.799   2.591   2.655
 5233SOL     OW15987   5.479   2.469   2.093
 5233SOL    HW115988   5.467   2.456   1.994
 5233SOL    HW215989   5.449   2.388   2.142
 5234SOL     OW15990   4.492   3.006   2.885
 5234SOL    HW115991   4.414   3.023   2.945
 5234SOL    HW215992   4.526   3.093   2.849
 5235SOL     OW15993   4.574   2.660   3.685
 5235SOL    HW115994   4.570   2.736   3.750
 5235SOL    HW215995   4.596   2.696   3.594
 5236SOL     OW15996   4.409   2.874   2.527
 5236SOL    HW115997   4.478   2.858   2.597
 5236SOL    HW215998   4.336   2.931   2.565
 5237SOL     OW15999   4.410   3.023   3.665
 5237SOL    HW116000   4.470   3.102   3.679
 5237SOL    HW216001   4.324   3.054   3.624
 5238SOL     OW16002   4.059   3.297   2.923
 5238SOL    HW116003   3.981   3.266   2.870
 5238SOL    HW216004   4.117   3.355   2.866
 5239SOL     OW16005   5.184   3.367   3.201
 5239SOL    HW116006   5.208   3.461   3.227
 5239SOL    HW216007   5.168   3.313   3.283
 5240SOL     OW16008   4.162   2.254   3.361
 5240SOL    HW116009   4.244   2.198   3.370
 5240SOL    HW216010   4.081   2.196   3.365
 5241SOL     OW16011   5.327   2.309   2.599
 5241SOL    HW116012   5.253   2.355   2.549
 5241SOL    HW216013   5.378   2.377   2.652
 5242SOL     OW16014   4.851   3.203   3.552
 5242SOL    HW116015   4.898   3.203   3.640
 5242SOL    HW216016   4.803   3.116   3.541
 5243SOL     OW16017   4.344   3.648   3.301
 5243SOL    HW116018   4.252   3.631   3.336
 5243SOL    HW216019   4.372   3.740   3.327
 5244SOL     OW16020   4.330   2.826   1.985
 5244SOL    HW116021   4.337   2.910   1.931
 5244SOL    HW216022   4.376   2.839   2.073
 5245SOL     OW16023   5.318   1.976   3.342
 5245SOL    HW116024   5.300   2.043   3.270
 5245SOL    HW216025   5.315   2.022   3.431
 5246SOL     OW16026   3.846   2.505   2.425
 5246SOL    HW116027   3.801   2.417   2.442
 5246SOL    HW216028   3.845   2.559   2.509
 5247SOL     OW16029   5.566   3.629   2.221
 5247SOL    HW116030   5.620   3.600   2.301
 5247SOL    HW216031   5.596   3.719   2.192
 5248SOL     OW16032   5.413   2.784   2.474
 5248SOL    HW116033   5.508   2.755   2.482
 5248SOL    HW216034   5.405   2.849   2.399
 5249SOL     OW16035   5.365   2.970   2.294
 5249SOL    HW116036   5.451   2.972   2.242
 5249SOL    HW216037   5.379   3.017   2.382
 5250SOL     OW16038   3.837   2.599   3.459
 5250SOL    HW116039   3.925   2.586   3.504
 5250SOL    HW216040   3.824   2.696   3.437
 5251SOL     OW16041   4.337   3.227   2.588
 5251SOL    HW116042   4.288   3.140   2.597
 5251SOL    HW216043   4.314   3.270   2.501
 5252SOL     OW16044   5.017   3.090   3.285
 5252SOL    HW116045   5.054   3.017   3.227
 5252SOL    HW216046   5.069   3.095   3.370
 5253SOL     OW16047   4.533   1.866   2.364
 5253SOL    HW116048   4.573   1.957   2.355
 5253SOL    HW216049   4.433   1.874   2.370
 5254SOL     OW16050   3.921   2.838   3.126
 5254SOL    HW116051   4.010   2.793   3.112
 5254SOL    HW216052   3.848   2.773   3.107
 5255SOL     OW16053   5.249   2.861   2.052
 5255SOL    HW116054   5.186   2.785   2.065
 5255SOL    HW216055   5.297   2.879   2.138
 5256SOL     OW16056   4.911   3.654   3.478
 5256SOL    HW116057   4.935   3.714   3.402
 5256SOL    HW216058   4.918   3.559   3.448
 5257SOL     OW16059   4.041   2.113   3.663
 5257SOL    HW116060   4.112   2.184   3.669
 5257SOL    HW216061   3.953   2.152   3.691
 5258SOL     OW16062   5.190   3.279   2.815
 5258SOL    HW116063   5.131   3.285   2.895
 5258SOL    HW216064   5.175   3.191   2.769
 5259SOL     OW16065   5.391   3.576   2.434
 5259SOL    HW116066   5.350   3.553   2.346
 5259SOL    HW216067   5.373   3.502   2.499
 5260SOL     OW16068   4.322   2.591   2.132
 5260SOL    HW116069   4.346   2.660   2.064
 5260SOL    HW216070   4.244   2.624   2.186
 5261SOL     OW16071   5.005   2.207   2.806
 5261SOL    HW116072   4.919   2.157   2.793
 5261SOL    HW216073   5.067   2.153   2.862
 5262SOL     OW16074   5.300   3.524   2.169
 5262SOL    HW116075   5.389   3.570   2.172
 5262SOL    HW216076   5.279   3.500   2.074
 5263SOL     OW16077   4.531   2.467   3.327
 5263SOL    HW116078   4.484   2.464   3.416
 5263SOL    HW216079   4.480   2.412   3.261
 5264SOL     OW16080   5.118   2.331   3.536
 5264SOL    HW116081   5.098   2.374   3.624
 5264SOL    HW216082   5.196   2.269   3.545
 5265SOL     OW16083   4.697   2.752   3.434
 5265SOL    HW116084   4.743   2.668   3.405
 5265SOL    HW216085   4.641   2.786   3.359
 5266SOL     OW16086   4.715   2.272   3.104
 5266SOL    HW116087   4.638   2.306   3.158
 5266SOL    HW216088   4.681   2.221   3.025
 5267SOL     OW16089   4.765   2.563   2.291
 5267SOL    HW116090   4.791   2.559   2.387
 5267SOL    HW216091   4.680   2.512   2.277
 5268SOL     OW16092   3.800   2.673   2.651
 5268SOL    HW116093   3.899   2.661   2.660
 5268SOL    HW216094   3.776   2.768   2.672
 5269SOL     OW16095   3.854   3.683   3.433
 5269SOL    HW116096   3.844   3.668   3.532
 5269SOL    HW216097   3.768   3.719   3.397
 5270SOL     OW16098   4.589   2.210   2.057
 5270SOL    HW116099   4.648   2.273   2.008
 5270SOL    HW216100   4.608   2.116   2.028
 5271SOL     OW16101   5.443   2.447   3.693
 5271SOL    HW116102   5.417   2.536   3.657
 5271SOL    HW216103   5.441   2.379   3.620
 5272SOL     OW16104   5.086   3.006   2.407
 5272SOL    HW116105   5.169   2.977   2.359
 5272SOL    HW216106   5.037   3.073   2.351
 5273SOL     OW16107   4.274   2.058   2.747
 5273SOL    HW116108   4.269   2.053   2.847
 5273SOL    HW216109   4.276   2.154   2.718
 5274SOL     OW16110   4.732   3.318   2.339
 5274SOL    HW116111   4.686   3.390   2.287
 5274SOL    HW216112   4.728   3.338   2.437
 5275SOL     OW16113   4.075   3.663   2.715
 5275SOL    HW116114   4.125   3.577   2.721
 5275SOL    HW216115   4.140   3.740   2.712
 5276SOL     OW16116   5.519   2.928   2.735
 5276SOL    HW116117   5.457   2.913   2.659
 5276SOL    HW216118   5.467   2.939   2.820
 5277SOL     OW16119   4.951   3.412   3.368
 5277SOL    HW116120   4.957   3.335   3.432
 5277SOL    HW216121   4.899   3.386   3.288
 5278SOL     OW16122   4.045   2.805   2.104
 5278SOL    HW116123   4.127   2.844   2.062
 5278SOL    HW216124   4.018   2.723   2.055
 5279SOL     OW16125   5.182   2.597   2.590
 5279SOL    HW116126   5.177   2.532   2.665
 5279SOL    HW216127   5.262   2.656   2.603
 5280SOL     OW16128   4.185   3.128   3.589
 5280SOL    HW116129   4.135   3.129   3.503
 5280SOL    HW216130   4.122   3.110   3.665
 5281SOL     OW16131   4.835   3.638   2.099
 5281SOL    HW116132   4.775   3.576   2.149
 5281SOL    HW216133   4.866   3.594   2.014
 5282SOL     OW16134   3.926   2.147   3.360
 5282SOL    HW116135   3.846   2.207   3.347
 5282SOL    HW216136   3.916   2.098   3.446
 5283SOL     OW16137   5.356   3.239   1.943
 5283SOL    HW116138   5.324   3.333   1.933
 5283SOL    HW216139   5.280   3.176   1.931
 5284SOL     OW16140   5.124   1.969   2.288
 5284SOL    HW116141   5.100   1.932   2.198
 5284SOL    HW216142   5.223   1.985   2.292
 5285SOL     OW16143   3.973   3.647   3.103
 5285SOL    HW116144   4.030   3.582   3.153
 5285SOL    HW216145   3.957   3.614   3.010
 5286SOL     OW16146   4.664   3.560   2.766
 5286SOL    HW116147   4.744   3.503   2.787
 5286SOL    HW216148   4.615   3.520   2.689
 5287SOL     OW16149   4.106   2.562   2.342
 5287SOL    HW116150   4.151   2.472   2.339
 5287SOL    HW216151   4.012   2.551   2.375
 5288SOL     OW16152   5.271   2.084   3.591
 5288SOL    HW116153   5.266   2.121   3.683
 5288SOL    HW216154   5.199   2.015   3.579
 5289SOL     OW16155   4.338   1.984   1.979
 5289SOL    HW116156   4.436   1.962   1.986
 5289SOL    HW216157   4.307   1.967   1.886
 5290SOL     OW16158   4.505   2.126   3.611
 5290SOL    HW116159   4.572   2.065   3.654
 5290SOL    HW216160   4.432   2.145   3.676
 5291SOL     OW16161   4.612   3.376   3.057
 5291SOL    HW116162   4.589   3.351   2.963
 5291SOL    HW216163   4.673   3.307   3.096
 5292SOL     OW16164   5.075   2.452   3.295
 5292SOL    HW116165   5.103   2.409   3.380
 5292SOL    HW216166   5.100   2.548   3.296
 5293SOL     OW16167   4.527   3.264   2.786
 5293SOL    HW116168   4.617   3.278   2.744
 5293SOL    HW216169   4.456   3.266   2.715
 5294SOL     OW16170   4.646   2.365   2.761
 5294SOL    HW116171   4.621   2.356   2.665
 5294SOL    HW216172   4.694   2.283   2.792
 5295SOL     OW16173   4.263   1.926   2.374
 5295SOL    HW116174   4.182   1.927   2.432
 5295SOL    HW216175   4.266   2.009   2.319
 5296SOL     OW16176   5.158   3.050   1.903
 5296SOL    HW116177   5.190   2.974   1.960
 5296SOL    HW216178   5.066   3.077   1.933
 5297SOL     OW16179   4.021   1.897   2.033
 5297SOL    HW116180   4.070   1.981   2.012
 5297SOL    HW216181   4.083   1.832   2.078
 5298SOL     OW16182   4.659   2.098   2.342
 5298SOL    HW116183   4.611   2.139   2.264
 5298SOL    HW216184   4.758   2.096   2.323
 5299SOL     OW16185   4.800   2.545   3.326
 5299SOL    HW116186   4.720   2.484   3.329
 5299SOL    HW216187   4.881   2.492   3.302
 5300SOL     OW16188   4.951   3.432   2.655
 5300SOL    HW116189   4.972   3.506   2.590
 5300SOL    HW216190   5.019   3.432   2.728
 5301SOL     OW16191   4.995   3.659   2.453
 5301SOL    HW116192   5.039   3.723   2.389
 5301SOL    HW216193   4.945   3.711   2.523
 5302SOL     OW16194   4.756   2.411   1.878
 5302SOL    HW116195   4.715   2.493   1.839
 5302SOL    HW216196   4.820   2.437   1.951
 5303SOL     OW16197   3.802   2.418   3.248
 5303SOL    HW116198   3.894   2.417   3.207
 5303SOL    HW216199   3.796   2.492   3.315
 5304SOL     OW16200   4.285   2.084   3.009
 5304SOL    HW116201   4.323   2.000   3.046
 5304SOL    HW216202   4.197   2.103   3.053
 5305SOL     OW16203   4.590   2.316   2.504
 5305SOL    HW116204   4.558   2.388   2.442
 5305SOL    HW216205   4.614   2.235   2.451
 5306SOL     OW16206   4.741   1.901   2.615
 5306SOL    HW116207   4.669   1.906   2.546
 5306SOL    HW216208   4.717   1.832   2.684
 5307SOL     OW16209   5.153   3.035   2.729
 5307SOL    HW116210   5.098   2.951   2.722
 5307SOL    HW216211   5.179   3.064   2.637
 5308SOL     OW16212   5.190   2.452   2.854
 5308SOL    HW116213   5.160   2.357   2.861
 5308SOL    HW216214   5.263   2.468   2.920
 5309SOL     OW16215   5.581   2.695   2.239
 5309SOL    HW116216   5.623   2.631   2.303
 5309SOL    HW216217   5.543   2.644   2.161
 5310SOL     OW16218   4.212   3.247   2.036
 5310SOL    HW116219   4.125   3.232   2.083
 5310SOL    HW216220   4.195   3.273   1.941
 5311SOL     OW16221   5.388   3.142   2.519
 5311SOL    HW116222   5.487   3.150   2.533
 5311SOL    HW216223   5.343   3.226   2.550
 5312SOL     OW16224   5.114   2.437   1.940
 5312SOL    HW116225   5.060   2.416   2.021
 5312SOL    HW216226   5.205   2.396   1.949
 5313SOL     OW16227   4.251   2.118   2.190
 5313SOL    HW116228   4.278   2.059   2.115
 5313SOL    HW216229   4.251   2.213   2.159
 5314SOL     OW16230   5.478   3.085   3.450
 5314SOL    HW116231   5.569   3.046   3.437
 5314SOL    HW216232   5.486   3.181   3.474
 5315SOL     OW16233   4.788   3.209   3.202
 5315SOL    HW116234   4.708   3.186   3.257
 5315SOL    HW216235   4.871   3.183   3.251
 5316SOL     OW16236   5.316   3.491   3.487
 5316SOL    HW116237   5.343   3.525   3.397
 5316SOL    HW216238   5.395   3.453   3.533
 5317SOL     OW16239   4.835   3.057   2.962
 5317SOL    HW116240   4.795   3.101   3.043
 5317SOL    HW216241   4.794   3.094   2.879
 5318SOL     OW16242   5.362   2.961   2.941
 5318SOL    HW116243   5.367   3.042   3.000
 5318SOL    HW216244   5.276   2.963   2.890
 5319SOL     OW16245   4.639   1.951   3.264
 5319SOL    HW116246   4.664   1.931   3.169
 5319SOL    HW216247   4.711   2.007   3.306
 5320SOL     OW16248   4.704   2.978   3.581
 5320SOL    HW116249   4.605   2.984   3.591
 5320SOL    HW216250   4.727   2.898   3.525
 5321SOL     OW16251   4.429   2.912   2.230
 5321SOL    HW116252   4.415   2.919   2.329
 5321SOL    HW216253   4.513   2.861   2.212
 5322SOL     OW16254   4.134   2.675   3.113
 5322SOL    HW116255   4.220   2.687   3.163
 5322SOL    HW216256   4.092   2.588   3.140
 5323SOL     OW16257   4.998   2.248   3.124
 5323SOL    HW116258   5.019   2.322   3.188
 5323SOL    HW216259   4.909   2.265   3.081
 5324SOL     OW16260   3.788   3.426   3.193
 5324SOL    HW116261   3.742   3.508   3.159
 5324SOL    HW216262   3.886   3.445   3.202
 5325SOL     OW16263   4.091   2.962   2.363
 5325SOL    HW116264   4.084   3.045   2.307
 5325SOL    HW216265   4.095   2.882   2.303
 5326SOL     OW16266   4.290   2.399   2.727
 5326SOL    HW116267   4.302   2.465   2.653
 5326SOL    HW216268   4.336   2.433   2.810
 5327SOL     OW16269   4.976   3.210   2.250
 5327SOL    HW116270   5.026   3.287   2.290
 5327SOL    HW216271   4.881   3.212   2.282
 5328SOL     OW16272   4.996   3.307   3.004
 5328SOL    HW116273   5.043   3.320   3.091
 5328SOL    HW216274   4.930   3.233   3.013
 5329SOL     OW16275   5.306   2.501   2.334
 5329SOL    HW116276   5.275   2.562   2.407
 5329SOL    HW216277   5.356   2.553   2.265
 5330SOL     OW16278   4.078   3.372   3.191
 5330SOL    HW116279   4.057   3.328   3.104
 5330SOL    HW216280   4.175   3.398   3.194
 5331SOL     OW16281   4.126   2.613   3.460
 5331SOL    HW116282   4.194   2.668   3.413
 5331SOL    HW216283   4.166   2.525   3.487
 5332SOL     OW16284   5.311   2.641   3.532
 5332SOL    HW116285   5.219   2.679   3.527
 5332SOL    HW216286   5.371   2.688   3.467
 5333SOL     OW16287   4.737   1.967   3.632
 5333SOL    HW116288   4.743   2.052   3.580
 5333SOL    HW216289   4.769   1.891   3.575
 5334SOL     OW16290   4.228   1.912   3.602
 5334SOL    HW116291   4.186   1.855   3.532
 5334SOL    HW216292   4.162   1.981   3.634
 5335SOL     OW16293   4.297   2.732   2.891
 5335SOL    HW116294   4.341   2.821   2.882
 5335SOL    HW216295   4.234   2.732   2.968
 5336SOL     OW16296   5.084   2.724   2.907
 5336SOL    HW116297   5.009   2.724   2.841
 5336SOL    HW216298   5.121   2.632   2.916
 5337SOL     OW16299   4.933   2.387   2.137
 5337SOL    HW116300   4.946   2.303   2.191
 5337SOL    HW216301   4.904   2.461   2.197
 5338SOL     OW16302   4.031   2.075   3.093
 5338SOL    HW116303   4.008   2.112   3.183
 5338SOL    HW216304   4.001   1.980   3.087
 5339SOL     OW16305   3.761   3.172   3.144
 5339SOL    HW116306   3.814   3.123   3.212
 5339SOL    HW216307   3.783   3.270   3.149
 5340SOL     OW16308   4.456   2.496   2.926
 5340SOL    HW116309   4.515   2.470   2.850
 5340SOL    HW216310   4.428   2.592   2.915
 5341SOL     OW16311   5.452   2.797   3.716
 5341SOL    HW116312   5.406   2.790   3.627
 5341SOL    HW216313   5.390   2.841   3.782
 5342SOL     OW16314   4.031   1.925   2.480
 5342SOL    HW116315   4.020   2.019   2.513
 5342SOL    HW216316   4.026   1.862   2.557
 5343SOL     OW16317   5.346   2.229   2.236
 5343SOL    HW116318   5.348   2.153   2.300
 5343SOL    HW216319   5.298   2.306   2.276
 5344SOL     OW16320   4.747   2.628   2.828
 5344SOL    HW116321   4.762   2.649   2.924
 5344SOL    HW216322   4.717   2.533   2.819
 5345SOL     OW16323   4.704   3.435   3.562
 5345SOL    HW116324   4.684   3.479   3.474
 5345SOL    HW216325   4.743   3.344   3.546
 5346SOL     OW16326   5.583   3.380   3.467
 5346SOL    HW116327   5.597   3.407   3.372
 5346SOL    HW216328   5.666   3.402   3.520
 5347SOL     OW16329   4.074   2.760   3.666
 5347SOL    HW116330   4.150   2.804   3.714
 5347SOL    HW216331   4.109   2.713   3.584
 5348SOL     OW16332   5.264   2.136   1.987
 5348SOL    HW116333   5.203   2.061   2.010
 5348SOL    HW216334   5.286   2.188   2.070
 5349SOL     OW16335   5.027   2.700   1.904
 5349SOL    HW116336   5.061   2.607   1.919
 5349SOL    HW216337   5.045   2.727   1.809
 5350SOL     OW16338   4.792   3.195   2.711
 5350SOL    HW116339   4.799   3.111   2.656
 5350SOL    HW216340   4.854   3.264   2.675
 5351SOL     OW16341   4.043   2.672   2.811
 5351SOL    HW116342   4.136   2.708   2.816
 5351SOL    HW216343   4.037   2.587   2.863
 5352SOL     OW16344   4.063   2.371   2.868
 5352SOL    HW116345   4.011   2.288   2.851
 5352SOL    HW216346   4.140   2.376   2.804
 5353SOL     OW16347   4.862   2.242   3.540
 5353SOL    HW116348   4.817   2.305   3.604
 5353SOL    HW216349   4.955   2.273   3.523
 5354SOL     OW16350   4.884   2.069   3.339
 5354SOL    HW116351   4.884   2.133   3.416
 5354SOL    HW216352   4.912   2.117   3.256
 5355SOL     OW16353   4.228   3.430   2.772
 5355SOL    HW116354   4.294   3.504   2.781
 5355SOL    HW216355   4.272   3.351   2.730
 5356SOL     OW16356   4.726   2.658   3.100
 5356SOL    HW116357   4.767   2.626   3.186
 5356SOL    HW216358   4.630   2.631   3.097
 5357SOL     OW16359   3.764   2.406   2.976
 5357SOL    HW116360   3.849   2.373   2.935
 5357SOL    HW216361   3.777   2.421   3.074
 5358SOL     OW16362   3.913   2.382   3.584
 5358SOL    HW116363   3.972   2.342   3.514
 5358SOL    HW216364   3.855   2.453   3.543
 5359SOL     OW16365   5.093   2.812   3.522
 5359SOL    HW116366   5.132   2.901   3.542
 5359SOL    HW216367   5.103   2.792   3.425
 5360SOL     OW16368   4.539   2.434   2.187
 5360SOL    HW116369   4.546   2.345   2.141
 5360SOL    HW216370   4.445   2.468   2.179
 5361SOL     OW16371   5.381   2.466   3.068
 5361SOL    HW116372   5.343   2.397   3.130
 5361SOL    HW216373   5.463   2.430   3.024
 5362SOL     OW16374   3.976   3.426   3.606
 5362SOL    HW116375   3.946   3.483   3.682
 5362SOL    HW216376   3.969   3.329   3.632
 5363SOL     OW16377   4.395   2.326   3.131
 5363SOL    HW116378   4.361   2.237   3.101
 5363SOL    HW216379   4.421   2.380   3.051
 5364SOL     OW16380   4.654   3.540   3.327
 5364SOL    HW116381   4.630   3.522   3.232
 5364SOL    HW216382   4.684   3.634   3.337
 5365SOL     OW16383   4.197   2.362   2.053
 5365SOL    HW116384   4.258   2.442   2.057
 5365SOL    HW216385   4.102   2.393   2.060
 5366SOL     OW16386   3.883   2.999   3.328
 5366SOL    HW116387   3.905   2.938   3.404
 5366SOL    HW216388   3.893   2.950   3.242
 5367SOL     OW16389   5.071   2.921   3.096
 5367SOL    HW116390   5.095   2.858   3.022
 5367SOL    HW216391   4.981   2.961   3.078
 5368SOL     OW16392   5.026   2.717   2.171
 5368SOL    HW116393   4.940   2.686   2.213
 5368SOL    HW216394   5.022   2.703   2.072
 5369SOL     OW16395   5.483   3.609   3.016
 5369SOL    HW116396   5.544   3.639   2.943
 5369SOL    HW216397   5.445   3.520   2.994
 5370SOL     OW16398   4.976   3.593   2.990
 5370SOL    HW116399   5.060   3.598   2.936
 5370SOL    HW216400   4.953   3.497   3.008
 5371SOL     OW16401   3.807   3.120   2.884
 5371SOL    HW116402   3.802   3.119   2.984
 5371SOL    HW216403   3.724   3.079   2.846
 5372SOL     OW16404   4.412   3.524   3.578
 5372SOL    HW116405   4.356   3.605   3.587
 5372SOL    HW216406   4.464   3.528   3.492
 5373SOL     OW16407   5.450   1.997   2.385
 5373SOL    HW116408   5.523   1.980   2.318
 5373SOL    HW216409   5.419   1.910   2.423
 5374SOL     OW16410   5.112   3.435   2.339
 5374SOL    HW116411   5.179   3.447   2.265
 5374SOL    HW216412   5.072   3.524   2.362
 5375SOL     OW16413   3.854   3.656   3.713
 5375SOL    HW116414   3.813   3.582   3.766
 5375SOL    HW216415   3.918   3.707   3.771
 5376SOL     OW16416   5.004   2.789   2.534
 5376SOL    HW116417   5.064   2.708   2.536
 5376SOL    HW216418   5.044   2.858   2.474
 5377SOL     OW16419   4.554   3.135   3.284
 5377SOL    HW116420   4.549   3.168   3.379
 5377SOL    HW216421   4.468   3.154   3.238
 5378SOL     OW16422   4.396   3.478   2.016
 5378SOL    HW116423   4.405   3.488   1.917
 5378SOL    HW216424   4.356   3.389   2.037
 5379SOL     OW16425   5.374   3.582   3.256
 5379SOL    HW116426   5.427   3.592   3.172
 5379SOL    HW216427   5.347   3.672   3.290
 5380SOL     OW16428   5.565   2.037   2.825
 5380SOL    HW116429   5.604   1.952   2.789
 5380SOL    HW216430   5.467   2.039   2.806
 5381SOL     OW16431   3.987   2.188   2.582
 5381SOL    HW116432   3.908   2.239   2.548
 5381SOL    HW216433   3.978   2.173   2.680
 5382SOL     OW16434   4.918   3.474   1.893
 5382SOL    HW116435   4.924   3.381   1.930
 5382SOL    HW216436   4.859   3.474   1.813
 5383SOL     OW16437   4.546   2.864   3.234
 5383SOL    HW116438   4.586   2.863   3.142
 5383SOL    HW216439   4.556   2.956   3.274
 5384SOL     OW16440   4.640   2.772   2.153
 5384SOL    HW116441   4.703   2.810   2.085
 5384SOL    HW216442   4.680   2.689   2.192
 5385SOL     OW16443   5.228   3.469   1.906
 5385SOL    HW116444   5.136   3.506   1.913
 5385SOL    HW216445   5.266   3.489   1.816
 5386SOL     OW16446   4.096   3.150   3.352
 5386SOL    HW116447   4.083   3.243   3.318
 5386SOL    HW216448   4.012   3.098   3.339
 5387SOL     OW16449   5.338   3.154   3.151
 5387SOL    HW116450   5.398   3.157   3.231
 5387SOL    HW216451   5.263   3.218   3.164
 5388SOL     OW16452   4.763   2.960   2.558
 5388SOL    HW116453   4.693   2.913   2.612
 5388SOL    HW216454   4.822   2.892   2.515
 5389SOL     OW16455   4.738   2.098   2.833
 5389SOL    HW116456   4.730   2.062   2.740
 5389SOL    HW216457   4.736   2.022   2.898
 5390SOL     OW16458   4.314   3.349   2.353
 5390SOL    HW116459   4.356   3.291   2.283
 5390SOL    HW216460   4.270   3.428   2.309
 5391SOL     OW16461   5.433   2.247   3.243
 5391SOL    HW116462   5.506   2.316   3.247
 5391SOL    HW216463   5.461   2.172   3.184
 5392SOL     OW16464   3.829   2.875   3.588
 5392SOL    HW116465   3.752   2.842   3.642
 5392SOL    HW216466   3.914   2.845   3.630
 5393SOL     OW16467   4.396   2.065   3.351
 5393SOL    HW116468   4.486   2.049   3.311
 5393SOL    HW216469   4.404   2.070   3.450
 5394SOL     OW16470   3.799   2.207   1.895
 5394SOL    HW116471   3.707   2.179   1.866
 5394SOL    HW216472   3.830   2.284   1.839
 5395SOL     OW16473   5.164   2.718   3.260
 5395SOL    HW116474   5.107   2.770   3.197
 5395SOL    HW216475   5.260   2.730   3.236
 5396SOL     OW16476   3.796   2.028   2.180
 5396SOL    HW116477   3.779   2.111   2.126
 5396SOL    HW216478   3.886   1.991   2.158
 5397SOL     OW16479   4.907   3.197   1.981
 5397SOL    HW116480   4.808   3.186   1.983
 5397SOL    HW216481   4.941   3.212   2.074
 5398SOL     OW16482   4.337   2.704   3.293
 5398SOL    HW116483   4.393   2.785   3.276
 5398SOL    HW216484   4.396   2.624   3.296
 5399SOL     OW16485   5.217   3.629   2.821
 5399SOL    HW116486   5.250   3.693   2.752
 5399SOL    HW216487   5.283   3.623   2.896
 5400SOL     OW16488   4.440   2.427   3.570
 5400SOL    HW116489   4.459   2.492   3.644
 5400SOL    HW216490   4.500   2.347   3.579
 5401SOL     OW16491   5.174   3.082   3.495
 5401SOL    HW116492   5.165   3.072   3.594
 5401SOL    HW216493   5.270   3.075   3.469
 5402SOL     OW16494   4.114   3.603   3.422
 5402SOL    HW116495   4.023   3.644   3.420
 5402SOL    HW216496   4.107   3.509   3.454
 5403SOL     OW16497   5.398   2.745   3.116
 5403SOL    HW116498   5.371   2.656   3.079
 5403SOL    HW216499   5.399   2.813   3.043
 5404SOL     OW16500   4.949   2.187   2.311
 5404SOL    HW116501   5.014   2.113   2.300
 5404SOL    HW216502   4.969   2.237   2.395
 5405SOL     OW16503   4.318   2.607   2.514
 5405SOL    HW116504   4.368   2.692   2.495
 5405SOL    HW216505   4.230   2.609   2.466
 5406SOL     OW16506   5.501   2.204   3.504
 5406SOL    HW116507   5.484   2.235   3.410
 5406SOL    HW216508   5.417   2.167   3.542
 5407SOL     OW16509   5.454   2.796   3.379
 5407SOL    HW116510   5.492   2.887   3.394
 5407SOL    HW216511   5.446   2.779   3.280
 5408SOL     OW16512   4.583   3.236   1.878
 5408SOL    HW116513   4.537   3.251   1.966
 5408SOL    HW216514   4.627   3.321   1.848
 5409SOL     OW16515   4.385   3.652   2.815
 5409SOL    HW116516   4.339   3.740   2.802
 5409SOL    HW216517   4.484   3.664   2.808
 5410SOL     OW16518   4.583   2.818   2.723
 5410SOL    HW116519   4.637   2.749   2.771
 5410SOL    HW216520   4.551   2.887   2.789
 5411SOL     OW16521   4.807   2.846   1.949
 5411SOL    HW116522   4.784   2.899   1.867
 5411SOL    HW216523   4.888   2.790   1.930
 5412SOL     OW16524   5.585   3.431   2.713
 5412SOL    HW116525   5.514   3.419   2.643
 5412SOL    HW216526   5.586   3.352   2.773
 5413SOL     OW16527   3.945   3.176   3.706
 5413SOL    HW116528   3.880   3.103   3.685
 5413SOL    HW216529   3.949   3.190   3.804
 5414SOL     OW16530   4.396   3.253   3.486
 5414SOL    HW116531   4.318   3.203   3.524
 5414SOL    HW216532   4.393   3.348   3.517
 5415SOL     OW16533   5.548   2.054   3.089
 5415SOL    HW116534   5.544   1.964   3.133
 5415SOL    HW216535   5.551   2.043   2.990
 5416SOL     OW16536   4.152   2.286   2.382
 5416SOL    HW116537   4.182   2.214   2.320
 5416SOL    HW216538   4.113   2.246   2.465
 5417SOL     OW16539   5.429   3.349   2.966
 5417SOL    HW116540   5.336   3.324   2.939
 5417SOL    HW216541   5.455   3.299   3.048
 5418SOL     OW16542   4.041   2.409   3.142
 5418SOL    HW116543   4.079   2.350   3.214
 5418SOL    HW216544   4.081   2.383   3.054
 5419SOL     OW16545   4.536   3.448   2.549
 5419SOL    HW116546   4.568   3.458   2.455
 5419SOL    HW216547   4.457   3.386   2.551
 5420SOL     OW16548   5.148   2.076   2.974
 5420SOL    HW116549   5.200   2.011   3.029
 5420SOL    HW216550   5.099   2.139   3.035
 5421SOL     OW16551   4.725   1.896   3.016
 5421SOL    HW116552   4.662   1.824   2.985
 5421SOL    HW216553   4.818   1.860   3.016
 5422SOL     OW16554   4.494   3.192   2.163
 5422SOL    HW116555   4.448   3.105   2.180
 5422SOL    HW216556   4.585   3.189   2.204
 5423SOL     OW16557   4.342   3.429   3.146
 5423SOL    HW116558   4.337   3.511   3.203
 5423SOL    HW216559   4.431   3.426   3.101
 5424SOL     OW16560   5.076   1.914   2.030
 5424SOL    HW116561   5.111   1.873   1.946
 5424SOL    HW216562   4.986   1.876   2.050
 5425SOL     OW16563   5.024   2.315   2.553
 5425SOL    HW116564   4.965   2.395   2.557
 5425SOL    HW216565   5.039   2.280   2.646
 5426SOL     OW16566   5.317   2.083   2.744
 5426SOL    HW116567   5.233   2.082   2.798
 5426SOL    HW216568   5.319   2.166   2.688
 5427SOL     OW16569   3.763   2.939   2.162
 5427SOL    HW116570   3.862   2.928   2.153
 5427SOL    HW216571   3.723   2.853   2.194
 5428SOL     OW16572   4.599   3.508   2.199
 5428SOL    HW116573   4.522   3.473   2.145
 5428SOL    HW216574   4.567   3.579   2.261
 5429SOL     OW16575   3.954   2.490   3.837
 5429SOL    HW116576   3.861   2.488   3.874
 5429SOL    HW216577   3.955   2.451   3.745
 5430SOL     OW16578   3.949   2.137   4.720
 5430SOL    HW116579   3.984   2.120   4.812
 5430SOL    HW216580   3.861   2.092   4.708
 5431SOL     OW16581   3.743   2.230   4.371
 5431SOL    HW116582   3.661   2.273   4.410
 5431SOL    HW216583   3.715   2.157   4.308
 5432SOL     OW16584   4.293   3.137   4.889
 5432SOL    HW116585   4.200   3.130   4.852
 5432SOL    HW216586   4.304   3.226   4.933
 5433SOL     OW16587   5.279   3.373   4.427
 5433SOL    HW116588   5.222   3.357   4.508
 5433SOL    HW216589   5.220   3.383   4.347
 5434SOL     OW16590   4.859   2.565   4.441
 5434SOL    HW116591   4.916   2.643   4.416
 5434SOL    HW216592   4.799   2.591   4.517
 5435SOL     OW16593   5.479   2.469   3.955
 5435SOL    HW116594   5.467   2.456   3.856
 5435SOL    HW216595   5.449   2.388   4.004
 5436SOL     OW16596   4.492   3.006   4.747
 5436SOL    HW116597   4.414   3.023   4.807
 5436SOL    HW216598   4.526   3.093   4.711
 5437SOL     OW16599   4.574   2.660   5.547
 5437SOL    HW116600   4.570   2.736   5.612
 5437SOL    HW216601   4.596   2.696   5.456
 5438SOL     OW16602   4.409   2.874   4.389
 5438SOL    HW116603   4.478   2.858   4.459
 5438SOL    HW216604   4.336   2.931   4.427
 5439SOL     OW16605   4.410   3.023   5.527
 5439SOL    HW116606   4.470   3.102   5.541
 5439SOL    HW216607   4.324   3.054   5.486
 5440SOL     OW16608   4.059   3.297   4.785
 5440SOL    HW116609   3.981   3.266   4.732
 5440SOL    HW216610   4.117   3.355   4.728
 5441SOL     OW16611   5.184   3.367   5.063
 5441SOL    HW116612   5.208   3.461   5.089
 5441SOL    HW216613   5.168   3.313   5.145
 5442SOL     OW16614   4.162   2.254   5.223
 5442SOL    HW116615   4.244   2.198   5.232
 5442SOL    HW216616   4.081   2.196   5.227
 5443SOL     OW16617   5.327   2.309   4.461
 5443SOL    HW116618   5.253   2.355   4.411
 5443SOL    HW216619   5.378   2.377   4.514
 5444SOL     OW16620   3.955   3.575   4.207
 5444SOL    HW116621   3.989   3.652   4.261
 5444SOL    HW216622   3.999   3.575   4.117
 5445SOL     OW16623   4.851   3.203   5.414
 5445SOL    HW116624   4.898   3.203   5.502
 5445SOL    HW216625   4.803   3.116   5.403
 5446SOL     OW16626   3.954   3.296   4.262
 5446SOL    HW116627   3.928   3.392   4.262
 5446SOL    HW216628   3.883   3.242   4.307
 5447SOL     OW16629   3.964   2.953   4.610
 5447SOL    HW116630   3.978   2.869   4.662
 5447SOL    HW216631   3.909   3.017   4.665
 5448SOL     OW16632   4.344   3.648   5.163
 5448SOL    HW116633   4.252   3.631   5.198
 5448SOL    HW216634   4.372   3.740   5.189
 5449SOL     OW16635   4.330   2.826   3.847
 5449SOL    HW116636   4.337   2.910   3.793
 5449SOL    HW216637   4.376   2.839   3.935
 5450SOL     OW16638   5.318   1.976   5.204
 5450SOL    HW116639   5.300   2.043   5.132
 5450SOL    HW216640   5.315   2.022   5.293
 5451SOL     OW16641   3.846   2.505   4.287
 5451SOL    HW116642   3.801   2.417   4.304
 5451SOL    HW216643   3.845   2.559   4.371
 5452SOL     OW16644   5.566   3.629   4.083
 5452SOL    HW116645   5.620   3.600   4.163
 5452SOL    HW216646   5.596   3.719   4.054
 5453SOL     OW16647   3.751   3.458   3.841
 5453SOL    HW116648   3.732   3.362   3.862
 5453SOL    HW216649   3.718   3.516   3.916
 5454SOL     OW16650   5.413   2.784   4.336
 5454SOL    HW116651   5.508   2.755   4.344
 5454SOL    HW216652   5.405   2.849   4.261
 5455SOL     OW16653   5.365   2.970   4.156
 5455SOL    HW116654   5.451   2.972   4.104
 5455SOL    HW216655   5.379   3.017   4.244
 5456SOL     OW16656   3.837   2.599   5.321
 5456SOL    HW116657   3.925   2.586   5.366
 5456SOL    HW216658   3.824   2.696   5.299
 5457SOL     OW16659   4.337   3.227   4.450
 5457SOL    HW116660   4.288   3.140   4.459
 5457SOL    HW216661   4.314   3.270   4.363
 5458SOL     OW16662   5.017   3.090   5.147
 5458SOL    HW116663   5.054   3.017   5.089
 5458SOL    HW216664   5.069   3.095   5.232
 5459SOL     OW16665   4.533   1.866   4.226
 5459SOL    HW116666   4.573   1.957   4.217
 5459SOL    HW216667   4.433   1.874   4.232
 5460SOL     OW16668   3.921   2.838   4.988
 5460SOL    HW116669   4.010   2.793   4.974
 5460SOL    HW216670   3.848   2.773   4.969
 5461SOL     OW16671   5.249   2.861   3.914
 5461SOL    HW116672   5.186   2.785   3.927
 5461SOL    HW216673   5.297   2.879   4.000
 5462SOL     OW16674   4.911   3.654   5.340
 5462SOL    HW116675   4.935   3.714   5.264
 5462SOL    HW216676   4.918   3.559   5.310
 5463SOL     OW16677   4.041   2.113   5.525
 5463SOL    HW116678   4.112   2.184   5.531
 5463SOL    HW216679   3.953   2.152   5.553
 5464SOL     OW16680   5.190   3.279   4.677
 5464SOL    HW116681   5.131   3.285   4.757
 5464SOL    HW216682   5.175   3.191   4.631
 5465SOL     OW16683   5.391   3.576   4.296
 5465SOL    HW116684   5.350   3.553   4.208
 5465SOL    HW216685   5.373   3.502   4.361
 5466SOL     OW16686   4.322   2.591   3.994
 5466SOL    HW116687   4.346   2.660   3.926
 5466SOL    HW216688   4.244   2.624   4.048
 5467SOL     OW16689   5.005   2.207   4.668
 5467SOL    HW116690   4.919   2.157   4.655
 5467SOL    HW216691   5.067   2.153   4.724
 5468SOL     OW16692   5.300   3.524   4.031
 5468SOL    HW116693   5.389   3.570   4.034
 5468SOL    HW216694   5.279   3.500   3.936
 5469SOL     OW16695   4.531   2.467   5.189
 5469SOL    HW116696   4.484   2.464   5.278
 5469SOL    HW216697   4.480   2.412   5.123
 5470SOL     OW16698   5.118   2.331   5.398
 5470SOL    HW116699   5.098   2.374   5.486
 5470SOL    HW216700   5.196   2.269   5.407
 5471SOL     OW16701   4.697   2.752   5.296
 5471SOL    HW116702   4.743   2.668   5.267
 5471SOL    HW216703   4.641   2.786   5.221
 5472SOL     OW16704   4.715   2.272   4.966
 5472SOL    HW116705   4.638   2.306   5.020
 5472SOL    HW216706   4.681   2.221   4.887
 5473SOL     OW16707   4.765   2.563   4.153
 5473SOL    HW116708   4.791   2.559   4.249
 5473SOL    HW216709   4.680   2.512   4.139
 5474SOL     OW16710   3.800   2.673   4.513
 5474SOL    HW116711   3.899   2.661   4.522
 5474SOL    HW216712   3.776   2.768   4.534
 5475SOL     OW16713   3.854   3.683   5.295
 5475SOL    HW116714   3.844   3.668   5.394
 5475SOL    HW216715   3.768   3.719   5.259
 5476SOL     OW16716   4.589   2.210   3.919
 5476SOL    HW116717   4.648   2.273   3.870
 5476SOL    HW216718   4.608   2.116   3.890
 5477SOL     OW16719   5.443   2.447   5.555
 5477SOL    HW116720   5.417   2.536   5.519
 5477SOL    HW216721   5.441   2.379   5.482
 5478SOL     OW16722   5.086   3.006   4.269
 5478SOL    HW116723   5.169   2.977   4.221
 5478SOL    HW216724   5.037   3.073   4.213
 5479SOL     OW16725   4.274   2.058   4.609
 5479SOL    HW116726   4.269   2.053   4.709
 5479SOL    HW216727   4.276   2.154   4.580
 5480SOL     OW16728   4.732   3.318   4.201
 5480SOL    HW116729   4.686   3.390   4.149
 5480SOL    HW216730   4.728   3.338   4.299
 5481SOL     OW16731   4.075   3.663   4.577
 5481SOL    HW116732   4.125   3.577   4.583
 5481SOL    HW216733   4.140   3.740   4.574
 5482SOL     OW16734   5.519   2.928   4.597
 5482SOL    HW116735   5.457   2.913   4.521
 5482SOL    HW216736   5.467   2.939   4.682
 5483SOL     OW16737   4.951   3.412   5.230
 5483SOL    HW116738   4.957   3.335   5.294
 5483SOL    HW216739   4.899   3.386   5.150
 5484SOL     OW16740   4.045   2.805   3.966
 5484SOL    HW116741   4.127   2.844   3.924
 5484SOL    HW216742   4.018   2.723   3.917
 5485SOL     OW16743   5.182   2.597   4.452
 5485SOL    HW116744   5.177   2.532   4.527
 5485SOL    HW216745   5.262   2.656   4.465
 5486SOL     OW16746   4.185   3.128   5.451
 5486SOL    HW116747   4.135   3.129   5.365
 5486SOL    HW216748   4.122   3.110   5.527
 5487SOL     OW16749   4.835   3.638   3.961
 5487SOL    HW116750   4.775   3.576   4.011
 5487SOL    HW216751   4.866   3.594   3.876
 5488SOL     OW16752   3.926   2.147   5.222
 5488SOL    HW116753   3.846   2.207   5.209
 5488SOL    HW216754   3.916   2.098   5.308
 5489SOL     OW16755   5.356   3.239   3.805
 5489SOL    HW116756   5.324   3.333   3.795
 5489SOL    HW216757   5.280   3.176   3.793
 5490SOL     OW16758   4.188   3.605   4.047
 5490SOL    HW116759   4.221   3.644   4.133
 5490SOL    HW216760   4.264   3.598   3.982
 5491SOL     OW16761   5.124   1.969   4.150
 5491SOL    HW116762   5.100   1.932   4.060
 5491SOL    HW216763   5.223   1.985   4.154
 5492SOL     OW16764   3.973   3.647   4.965
 5492SOL    HW116765   4.030   3.582   5.015
 5492SOL    HW216766   3.957   3.614   4.872
 5493SOL     OW16767   4.664   3.560   4.628
 5493SOL    HW116768   4.744   3.503   4.649
 5493SOL    HW216769   4.615   3.520   4.551
 5494SOL     OW16770   4.106   2.562   4.204
 5494SOL    HW116771   4.151   2.472   4.201
 5494SOL    HW216772   4.012   2.551   4.237
 5495SOL     OW16773   5.271   2.084   5.453
 5495SOL    HW116774   5.266   2.121   5.545
 5495SOL    HW216775   5.199   2.015   5.441
 5496SOL     OW16776   4.338   1.984   3.841
 5496SOL    HW116777   4.436   1.962   3.848
 5496SOL    HW216778   4.307   1.967   3.748
 5497SOL     OW16779   4.505   2.126   5.473
 5497SOL    HW116780   4.572   2.065   5.516
 5497SOL    HW216781   4.432   2.145   5.538
 5498SOL     OW16782   4.612   3.376   4.919
 5498SOL    HW116783   4.589   3.351   4.825
 5498SOL    HW216784   4.673   3.307   4.958
 5499SOL     OW16785   5.075   2.452   5.157
 5499SOL    HW116786   5.103   2.409   5.242
 5499SOL    HW216787   5.100   2.548   5.158
 5500SOL     OW16788   4.527   3.264   4.648
 5500SOL    HW116789   4.617   3.278   4.606
 5500SOL    HW216790   4.456   3.266   4.577
 5501SOL     OW16791   4.646   2.365   4.623
 5501SOL    HW116792   4.621   2.356   4.527
 5501SOL    HW216793   4.694   2.283   4.654
 5502SOL     OW16794   4.263   1.926   4.236
 5502SOL    HW116795   4.182   1.927   4.294
 5502SOL    HW216796   4.266   2.009   4.181
 5503SOL     OW16797   5.158   3.050   3.765
 5503SOL    HW116798   5.190   2.974   3.822
 5503SOL    HW216799   5.066   3.077   3.795
 5504SOL     OW16800   4.021   1.897   3.895
 5504SOL    HW116801   4.070   1.981   3.874
 5504SOL    HW216802   4.083   1.832   3.940
 5505SOL     OW16803   4.659   2.098   4.204
 5505SOL    HW116804   4.611   2.139   4.126
 5505SOL    HW216805   4.758   2.096   4.185
 5506SOL     OW16806   4.800   2.545   5.188
 5506SOL    HW116807   4.720   2.484   5.191
 5506SOL    HW216808   4.881   2.492   5.164
 5507SOL     OW16809   4.951   3.432   4.517
 5507SOL    HW116810   4.972   3.506   4.452
 5507SOL    HW216811   5.019   3.432   4.590
 5508SOL     OW16812   4.183   3.014   4.465
 5508SOL    HW116813   4.112   2.987   4.530
 5508SOL    HW216814   4.157   2.986   4.372
 5509SOL     OW16815   4.995   3.659   4.315
 5509SOL    HW116816   5.039   3.723   4.251
 5509SOL    HW216817   4.945   3.711   4.385
 5510SOL     OW16818   4.756   2.411   3.740
 5510SOL    HW116819   4.715   2.493   3.701
 5510SOL    HW216820   4.820   2.437   3.813
 5511SOL     OW16821   3.802   2.418   5.110
 5511SOL    HW116822   3.894   2.417   5.069
 5511SOL    HW216823   3.796   2.492   5.177
 5512SOL     OW16824   4.285   2.084   4.871
 5512SOL    HW116825   4.323   2.000   4.908
 5512SOL    HW216826   4.197   2.103   4.915
 5513SOL     OW16827   4.590   2.316   4.366
 5513SOL    HW116828   4.558   2.388   4.304
 5513SOL    HW216829   4.614   2.235   4.313
 5514SOL     OW16830   4.741   1.901   4.477
 5514SOL    HW116831   4.669   1.906   4.408
 5514SOL    HW216832   4.717   1.832   4.546
 5515SOL     OW16833   5.153   3.035   4.591
 5515SOL    HW116834   5.098   2.951   4.584
 5515SOL    HW216835   5.179   3.064   4.499
 5516SOL     OW16836   5.190   2.452   4.716
 5516SOL    HW116837   5.160   2.357   4.723
 5516SOL    HW216838   5.263   2.468   4.782
 5517SOL     OW16839   5.581   2.695   4.101
 5517SOL    HW116840   5.623   2.631   4.165
 5517SOL    HW216841   5.543   2.644   4.023
 5518SOL     OW16842   4.212   3.247   3.898
 5518SOL    HW116843   4.125   3.232   3.945
 5518SOL    HW216844   4.195   3.273   3.803
 5519SOL     OW16845   5.388   3.142   4.381
 5519SOL    HW116846   5.487   3.150   4.395
 5519SOL    HW216847   5.343   3.226   4.412
 5520SOL     OW16848   5.114   2.437   3.802
 5520SOL    HW116849   5.060   2.416   3.883
 5520SOL    HW216850   5.205   2.396   3.811
 5521SOL     OW16851   4.251   2.118   4.052
 5521SOL    HW116852   4.278   2.059   3.977
 5521SOL    HW216853   4.251   2.213   4.021
 5522SOL     OW16854   5.478   3.085   5.312
 5522SOL    HW116855   5.569   3.046   5.299
 5522SOL    HW216856   5.486   3.181   5.336
 5523SOL     OW16857   4.788   3.209   5.064
 5523SOL    HW116858   4.708   3.186   5.119
 5523SOL    HW216859   4.871   3.183   5.113
 5524SOL     OW16860   5.316   3.491   5.349
 5524SOL    HW116861   5.343   3.525   5.259
 5524SOL    HW216862   5.395   3.453   5.395
 5525SOL     OW16863   4.835   3.057   4.824
 5525SOL    HW116864   4.795   3.101   4.905
 5525SOL    HW216865   4.794   3.094   4.741
 5526SOL     OW16866   5.362   2.961   4.803
 5526SOL    HW116867   5.367   3.042   4.862
 5526SOL    HW216868   5.276   2.963   4.752
 5527SOL     OW16869   4.639   1.951   5.126
 5527SOL    HW116870   4.664   1.931   5.031
 5527SOL    HW216871   4.711   2.007   5.168
 5528SOL     OW16872   4.704   2.978   5.443
 5528SOL    HW116873   4.605   2.984   5.453
 5528SOL    HW216874   4.727   2.898   5.387
 5529SOL     OW16875   4.429   2.912   4.092
 5529SOL    HW116876   4.415   2.919   4.191
 5529SOL    HW216877   4.513   2.861   4.074
 5530SOL     OW16878   4.134   2.675   4.975
 5530SOL    HW116879   4.220   2.687   5.025
 5530SOL    HW216880   4.092   2.588   5.002
 5531SOL     OW16881   4.998   2.248   4.986
 5531SOL    HW116882   5.019   2.322   5.050
 5531SOL    HW216883   4.909   2.265   4.943
 5532SOL     OW16884   3.788   3.426   5.055
 5532SOL    HW116885   3.742   3.508   5.021
 5532SOL    HW216886   3.886   3.445   5.064
 5533SOL     OW16887   4.091   2.962   4.225
 5533SOL    HW116888   4.084   3.045   4.169
 5533SOL    HW216889   4.095   2.882   4.165
 5534SOL     OW16890   4.290   2.399   4.589
 5534SOL    HW116891   4.302   2.465   4.515
 5534SOL    HW216892   4.336   2.433   4.672
 5535SOL     OW16893   4.976   3.210   4.112
 5535SOL    HW116894   5.026   3.287   4.152
 5535SOL    HW216895   4.881   3.212   4.144
 5536SOL     OW16896   4.996   3.307   4.866
 5536SOL    HW116897   5.043   3.320   4.953
 5536SOL    HW216898   4.930   3.233   4.875
 5537SOL     OW16899   5.306   2.501   4.196
 5537SOL    HW116900   5.275   2.562   4.269
 5537SOL    HW216901   5.356   2.553   4.127
 5538SOL     OW16902   4.078   3.372   5.053
 5538SOL    HW116903   4.057   3.328   4.966
 5538SOL    HW216904   4.175   3.398   5.056
 5539SOL     OW16905   4.126   2.613   5.322
 5539SOL    HW116906   4.194   2.668   5.275
 5539SOL    HW216907   4.166   2.525   5.349
 5540SOL     OW16908   5.311   2.641   5.394
 5540SOL    HW116909   5.219   2.679   5.389
 5540SOL    HW216910   5.371   2.688   5.329
 5541SOL     OW16911   4.737   1.967   5.494
 5541SOL    HW116912   4.743   2.052   5.442
 5541SOL    HW216913   4.769   1.891   5.437
 5542SOL     OW16914   4.228   1.912   5.464
 5542SOL    HW116915   4.186   1.855   5.394
 5542SOL    HW216916   4.162   1.981   5.496
 5543SOL     OW16917   4.297   2.732   4.753
 5543SOL    HW116918   4.341   2.821   4.744
 5543SOL    HW216919   4.234   2.732   4.830
 5544SOL     OW16920   5.084   2.724   4.769
 5544SOL    HW116921   5.009   2.724   4.703
 5544SOL    HW216922   5.121   2.632   4.778
 5545SOL     OW16923   4.933   2.387   3.999
 5545SOL    HW116924   4.946   2.303   4.053
 5545SOL    HW216925   4.904   2.461   4.059
 5546SOL     OW16926   4.031   2.075   4.955
 5546SOL    HW116927   4.008   2.112   5.045
 5546SOL    HW216928   4.001   1.980   4.949
 5547SOL     OW16929   3.761   3.172   5.006
 5547SOL    HW116930   3.814   3.123   5.074
 5547SOL    HW216931   3.783   3.270   5.011
 5548SOL     OW16932   4.456   2.496   4.788
 5548SOL    HW116933   4.515   2.470   4.712
 5548SOL    HW216934   4.428   2.592   4.777
 5549SOL     OW16935   5.452   2.797   5.578
 5549SOL    HW116936   5.406   2.790   5.489
 5549SOL    HW216937   5.390   2.841   5.644
 5550SOL     OW16938   4.031   1.925   4.342
 5550SOL    HW116939   4.020   2.019   4.375
 5550SOL    HW216940   4.026   1.862   4.419
 5551SOL     OW16941   5.346   2.229   4.098
 5551SOL    HW116942   5.348   2.153   4.162
 5551SOL    HW216943   5.298   2.306   4.138
 5552SOL     OW16944   4.747   2.628   4.690
 5552SOL    HW116945   4.762   2.649   4.786
 5552SOL    HW216946   4.717   2.533   4.681
 5553SOL     OW16947   4.704   3.435   5.424
 5553SOL    HW116948   4.684   3.479   5.336
 5553SOL    HW216949   4.743   3.344   5.408
 5554SOL     OW16950   5.583   3.380   5.329
 5554SOL    HW116951   5.597   3.407   5.234
 5554SOL    HW216952   5.666   3.402   5.382
 5555SOL     OW16953   4.074   2.760   5.528
 5555SOL    HW116954   4.150   2.804   5.576
 5555SOL    HW216955   4.109   2.713   5.446
 5556SOL     OW16956   5.264   2.136   3.849
 5556SOL    HW116957   5.203   2.061   3.872
 5556SOL    HW216958   5.286   2.188   3.932
 5557SOL     OW16959   5.027   2.700   3.766
 5557SOL    HW116960   5.061   2.607   3.781
 5557SOL    HW216961   5.045   2.727   3.671
 5558SOL     OW16962   4.792   3.195   4.573
 5558SOL    HW116963   4.799   3.111   4.518
 5558SOL    HW216964   4.854   3.264   4.537
 5559SOL     OW16965   4.043   2.672   4.673
 5559SOL    HW116966   4.136   2.708   4.678
 5559SOL    HW216967   4.037   2.587   4.725
 5560SOL     OW16968   4.063   2.371   4.730
 5560SOL    HW116969   4.011   2.288   4.713
 5560SOL    HW216970   4.140   2.376   4.666
 5561SOL     OW16971   4.862   2.242   5.402
 5561SOL    HW116972   4.817   2.305   5.466
 5561SOL    HW216973   4.955   2.273   5.385
 5562SOL     OW16974   4.884   2.069   5.201
 5562SOL    HW116975   4.884   2.133   5.278
 5562SOL    HW216976   4.912   2.117   5.118
 5563SOL     OW16977   3.732   3.188   3.924
 5563SOL    HW116978   3.639   3.209   3.893
 5563SOL    HW216979   3.742   3.089   3.937
 5564SOL     OW16980   3.812   3.663   4.651
 5564SOL    HW116981   3.770   3.577   4.624
 5564SOL    HW216982   3.906   3.666   4.617
 5565SOL     OW16983   4.228   3.430   4.634
 5565SOL    HW116984   4.294   3.504   4.643
 5565SOL    HW216985   4.272   3.351   4.592
 5566SOL     OW16986   4.726   2.658   4.962
 5566SOL    HW116987   4.767   2.626   5.048
 5566SOL    HW216988   4.630   2.631   4.959
 5567SOL     OW16989   3.764   2.406   4.838
 5567SOL    HW116990   3.849   2.373   4.797
 5567SOL    HW216991   3.777   2.421   4.936
 5568SOL     OW16992   3.913   2.382   5.446
 5568SOL    HW116993   3.972   2.342   5.376
 5568SOL    HW216994   3.855   2.453   5.405
 5569SOL     OW16995   5.093   2.812   5.384
 5569SOL    HW116996   5.132   2.901   5.404
 5569SOL    HW216997   5.103   2.792   5.287
 5570SOL     OW16998   4.539   2.434   4.049
 5570SOL    HW116999   4.546   2.345   4.003
 5570SOL    HW217000   4.445   2.468   4.041
 5571SOL     OW17001   5.381   2.466   4.930
 5571SOL    HW117002   5.343   2.397   4.992
 5571SOL    HW217003   5.463   2.430   4.886
 5572SOL     OW17004   3.976   3.426   5.468
 5572SOL    HW117005   3.946   3.483   5.544
 5572SOL    HW217006   3.969   3.329   5.494
 5573SOL     OW17007   4.395   2.326   4.993
 5573SOL    HW117008   4.361   2.237   4.963
 5573SOL    HW217009   4.421   2.380   4.913
 5574SOL     OW17010   4.654   3.540   5.189
 5574SOL    HW117011   4.630   3.522   5.094
 5574SOL    HW217012   4.684   3.634   5.199
 5575SOL     OW17013   4.197   2.362   3.915
 5575SOL    HW117014   4.258   2.442   3.919
 5575SOL    HW217015   4.102   2.393   3.922
 5576SOL     OW17016   3.883   2.999   5.190
 5576SOL    HW117017   3.905   2.938   5.266
 5576SOL    HW217018   3.893   2.950   5.104
 5577SOL     OW17019   5.071   2.921   4.958
 5577SOL    HW117020   5.095   2.858   4.884
 5577SOL    HW217021   4.981   2.961   4.940
 5578SOL     OW17022   5.026   2.717   4.033
 5578SOL    HW117023   4.940   2.686   4.075
 5578SOL    HW217024   5.022   2.703   3.934
 5579SOL     OW17025   5.483   3.609   4.878
 5579SOL    HW117026   5.544   3.639   4.805
 5579SOL    HW217027   5.445   3.520   4.856
 5580SOL     OW17028   4.976   3.593   4.852
 5580SOL    HW117029   5.060   3.598   4.798
 5580SOL    HW217030   4.953   3.497   4.870
 5581SOL     OW17031   3.807   3.120   4.746
 5581SOL    HW117032   3.802   3.119   4.846
 5581SOL    HW217033   3.724   3.079   4.708
 5582SOL     OW17034   4.412   3.524   5.440
 5582SOL    HW117035   4.356   3.605   5.449
 5582SOL    HW217036   4.464   3.528   5.354
 5583SOL     OW17037   5.450   1.997   4.247
 5583SOL    HW117038   5.523   1.980   4.180
 5583SOL    HW217039   5.419   1.910   4.285
 5584SOL     OW17040   5.112   3.435   4.201
 5584SOL    HW117041   5.179   3.447   4.127
 5584SOL    HW217042   5.072   3.524   4.224
 5585SOL     OW17043   3.854   3.656   5.575
 5585SOL    HW117044   3.813   3.582   5.628
 5585SOL    HW217045   3.918   3.707   5.633
 5586SOL     OW17046   5.004   2.789   4.396
 5586SOL    HW117047   5.064   2.708   4.398
 5586SOL    HW217048   5.044   2.858   4.336
 5587SOL     OW17049   4.554   3.135   5.146
 5587SOL    HW117050   4.549   3.168   5.241
 5587SOL    HW217051   4.468   3.154   5.100
 5588SOL     OW17052   4.396   3.478   3.878
 5588SOL    HW117053   4.405   3.488   3.779
 5588SOL    HW217054   4.356   3.389   3.899
 5589SOL     OW17055   5.374   3.582   5.118
 5589SOL    HW117056   5.427   3.592   5.034
 5589SOL    HW217057   5.347   3.672   5.152
 5590SOL     OW17058   5.565   2.037   4.687
 5590SOL    HW117059   5.604   1.952   4.651
 5590SOL    HW217060   5.467   2.039   4.668
 5591SOL     OW17061   3.987   2.188   4.444
 5591SOL    HW117062   3.908   2.239   4.410
 5591SOL    HW217063   3.978   2.173   4.542
 5592SOL     OW17064   4.918   3.474   3.755
 5592SOL    HW117065   4.924   3.381   3.792
 5592SOL    HW217066   4.859   3.474   3.675
 5593SOL     OW17067   4.546   2.864   5.096
 5593SOL    HW117068   4.586   2.863   5.004
 5593SOL    HW217069   4.556   2.956   5.136
 5594SOL     OW17070   4.640   2.772   4.015
 5594SOL    HW117071   4.703   2.810   3.947
 5594SOL    HW217072   4.680   2.689   4.054
 5595SOL     OW17073   5.228   3.469   3.768
 5595SOL    HW117074   5.136   3.506   3.775
 5595SOL    HW217075   5.266   3.489   3.678
 5596SOL     OW17076   4.096   3.150   5.214
 5596SOL    HW117077   4.083   3.243   5.180
 5596SOL    HW217078   4.012   3.098   5.201
 5597SOL     OW17079   5.338   3.154   5.013
 5597SOL    HW117080   5.398   3.157   5.093
 5597SOL    HW217081   5.263   3.218   5.026
 5598SOL     OW17082   4.763   2.960   4.420
 5598SOL    HW117083   4.693   2.913   4.474
 5598SOL    HW217084   4.822   2.892   4.377
 5599SOL     OW17085   4.738   2.098   4.695
 5599SOL    HW117086   4.730   2.062   4.602
 5599SOL    HW217087   4.736   2.022   4.760
 5600SOL     OW17088   4.314   3.349   4.215
 5600SOL    HW117089   4.356   3.291   4.145
 5600SOL    HW217090   4.270   3.428   4.171
 5601SOL     OW17091   5.433   2.247   5.105
 5601SOL    HW117092   5.506   2.316   5.109
 5601SOL    HW217093   5.461   2.172   5.046
 5602SOL     OW17094   3.979   3.210   4.014
 5602SOL    HW117095   3.883   3.211   3.987
 5602SOL    HW217096   3.991   3.263   4.098
 5603SOL     OW17097   3.829   2.875   5.450
 5603SOL    HW117098   3.752   2.842   5.504
 5603SOL    HW217099   3.914   2.845   5.492
 5604SOL     OW17100   4.396   2.065   5.213
 5604SOL    HW117101   4.486   2.049   5.173
 5604SOL    HW217102   4.404   2.070   5.312
 5605SOL     OW17103   3.799   2.207   3.757
 5605SOL    HW117104   3.707   2.179   3.728
 5605SOL    HW217105   3.830   2.284   3.701
 5606SOL     OW17106   5.164   2.718   5.122
 5606SOL    HW117107   5.107   2.770   5.059
 5606SOL    HW217108   5.260   2.730   5.098
 5607SOL     OW17109   3.796   2.028   4.042
 5607SOL    HW117110   3.779   2.111   3.988
 5607SOL    HW217111   3.886   1.991   4.020
 5608SOL     OW17112   4.907   3.197   3.843
 5608SOL    HW117113   4.808   3.186   3.845
 5608SOL    HW217114   4.941   3.212   3.936
 5609SOL     OW17115   4.337   2.704   5.155
 5609SOL    HW117116   4.393   2.785   5.138
 5609SOL    HW217117   4.396   2.624   5.158
 5610SOL     OW17118   5.217   3.629   4.683
 5610SOL    HW117119   5.250   3.693   4.614
 5610SOL    HW217120   5.283   3.623   4.758
 5611SOL     OW17121   4.440   2.427   5.432
 5611SOL    HW117122   4.459   2.492   5.506
 5611SOL    HW217123   4.500   2.347   5.441
 5612SOL     OW17124   5.174   3.082   5.357
 5612SOL    HW117125   5.165   3.072   5.456
 5612SOL    HW217126   5.270   3.075   5.331
 5613SOL     OW17127   4.114   3.603   5.284
 5613SOL    HW117128   4.023   3.644   5.282
 5613SOL    HW217129   4.107   3.509   5.316
 5614SOL     OW17130   5.398   2.745   4.978
 5614SOL    HW117131   5.371   2.656   4.941
 5614SOL    HW217132   5.399   2.813   4.905
 5615SOL     OW17133   4.949   2.187   4.173
 5615SOL    HW117134   5.014   2.113   4.162
 5615SOL    HW217135   4.969   2.237   4.257
 5616SOL     OW17136   4.318   2.607   4.376
 5616SOL    HW117137   4.368   2.692   4.357
 5616SOL    HW217138   4.230   2.609   4.328
 5617SOL     OW17139   5.501   2.204   5.366
 5617SOL    HW117140   5.484   2.235   5.272
 5617SOL    HW217141   5.417   2.167   5.404
 5618SOL     OW17142   5.454   2.796   5.241
 5618SOL    HW117143   5.492   2.887   5.256
 5618SOL    HW217144   5.446   2.779   5.142
 5619SOL     OW17145   4.583   3.236   3.740
 5619SOL    HW117146   4.537   3.251   3.828
 5619SOL    HW217147   4.627   3.321   3.710
 5620SOL     OW17148   4.385   3.652   4.677
 5620SOL    HW117149   4.339   3.740   4.664
 5620SOL    HW217150   4.484   3.664   4.670
 5621SOL     OW17151   4.583   2.818   4.585
 5621SOL    HW117152   4.637   2.749   4.633
 5621SOL    HW217153   4.551   2.887   4.651
 5622SOL     OW17154   4.807   2.846   3.811
 5622SOL    HW117155   4.784   2.899   3.729
 5622SOL    HW217156   4.888   2.790   3.792
 5623SOL     OW17157   5.585   3.431   4.575
 5623SOL    HW117158   5.514   3.419   4.505
 5623SOL    HW217159   5.586   3.352   4.635
 5624SOL     OW17160   3.945   3.176   5.568
 5624SOL    HW117161   3.880   3.103   5.547
 5624SOL    HW217162   3.949   3.190   5.666
 5625SOL     OW17163   3.803   3.102   4.377
 5625SOL    HW117164   3.802   3.055   4.465
 5625SOL    HW217165   3.885   3.074   4.326
 5626SOL     OW17166   4.396   3.253   5.348
 5626SOL    HW117167   4.318   3.203   5.386
 5626SOL    HW217168   4.393   3.348   5.379
 5627SOL     OW17169   5.548   2.054   4.951
 5627SOL    HW117170   5.544   1.964   4.995
 5627SOL    HW217171   5.551   2.043   4.852
 5628SOL     OW17172   4.152   2.286   4.244
 5628SOL    HW117173   4.182   2.214   4.182
 5628SOL    HW217174   4.113   2.246   4.327
 5629SOL     OW17175   5.429   3.349   4.828
 5629SOL    HW117176   5.336   3.324   4.801
 5629SOL    HW217177   5.455   3.299   4.910
 5630SOL     OW17178   4.041   2.409   5.004
 5630SOL    HW117179   4.079   2.350   5.076
 5630SOL    HW217180   4.081   2.383   4.916
 5631SOL     OW17181   4.536   3.448   4.411
 5631SOL    HW117182   4.568   3.458   4.317
 5631SOL    HW217183   4.457   3.386   4.413
 5632SOL     OW17184   5.148   2.076   4.836
 5632SOL    HW117185   5.200   2.011   4.891
 5632SOL    HW217186   5.099   2.139   4.897
 5633SOL     OW17187   4.725   1.896   4.878
 5633SOL    HW117188   4.662   1.824   4.847
 5633SOL    HW217189   4.818   1.860   4.878
 5634SOL     OW17190   4.494   3.192   4.025
 5634SOL    HW117191   4.448   3.105   4.042
 5634SOL    HW217192   4.585   3.189   4.066
 5635SOL     OW17193   4.342   3.429   5.008
 5635SOL    HW117194   4.337   3.511   5.065
 5635SOL    HW217195   4.431   3.426   4.963
 5636SOL     OW17196   5.076   1.914   3.892
 5636SOL    HW117197   5.111   1.873   3.808
 5636SOL    HW217198   4.986   1.876   3.912
 5637SOL     OW17199   5.024   2.315   4.415
 5637SOL    HW117200   4.965   2.395   4.419
 5637SOL    HW217201   5.039   2.280   4.508
 5638SOL     OW17202   5.317   2.083   4.606
 5638SOL    HW117203   5.233   2.082   4.660
 5638SOL    HW217204   5.319   2.166   4.550
 5639SOL     OW17205   3.763   2.939   4.024
 5639SOL    HW117206   3.862   2.928   4.015
 5639SOL    HW217207   3.723   2.853   4.056
 5640SOL     OW17208   4.599   3.508   4.061
 5640SOL    HW117209   4.522   3.473   4.007
 5640SOL    HW217210   4.567   3.579   4.123
 5641SOL     OW17211   3.954   2.490   5.699
 5641SOL    HW117212   3.861   2.488   5.736
 5641SOL    HW217213   3.955   2.451   5.607
 5642SOL     OW17214   5.479   2.469   5.817
 5642SOL    HW117215   5.467   2.456   5.718
 5642SOL    HW217216   5.449   2.388   5.866
 5643SOL     OW17217   3.955   3.575   6.069
 5643SOL    HW117218   3.989   3.652   6.123
 5643SOL    HW217219   3.999   3.575   5.979
 5644SOL     OW17220   4.330   2.826   5.709
 5644SOL    HW117221   4.337   2.910   5.655
 5644SOL    HW217222   4.376   2.839   5.797
 5645SOL     OW17223   5.566   3.629   5.945
 5645SOL    HW117224   5.620   3.600   6.025
 5645SOL    HW217225   5.596   3.719   5.916
 5646SOL     OW17226   3.751   3.458   5.703
 5646SOL    HW117227   3.732   3.362   5.724
 5646SOL    HW217228   3.718   3.516   5.778
 5647SOL     OW17229   5.413   2.784   6.198
 5647SOL    HW117230   5.508   2.755   6.206
 5647SOL    HW217231   5.405   2.849   6.123
 5648SOL     OW17232   5.365   2.970   6.018
 5648SOL    HW117233   5.451   2.972   5.966
 5648SOL    HW217234   5.379   3.017   6.106
 5649SOL     OW17235   5.249   2.861   5.776
 5649SOL    HW117236   5.186   2.785   5.789
 5649SOL    HW217237   5.297   2.879   5.862
 5650SOL     OW17238   4.322   2.591   5.856
 5650SOL    HW117239   4.346   2.660   5.788
 5650SOL    HW217240   4.244   2.624   5.910
 5651SOL     OW17241   4.589   2.210   5.781
 5651SOL    HW117242   4.648   2.273   5.732
 5651SOL    HW217243   4.608   2.116   5.752
 5652SOL     OW17244   4.045   2.805   5.828
 5652SOL    HW117245   4.127   2.844   5.786
 5652SOL    HW217246   4.018   2.723   5.779
 5653SOL     OW17247   4.835   3.638   5.823
 5653SOL    HW117248   4.775   3.576   5.873
 5653SOL    HW217249   4.866   3.594   5.738
 5654SOL     OW17250   5.356   3.239   5.667
 5654SOL    HW117251   5.324   3.333   5.657
 5654SOL    HW217252   5.280   3.176   5.655
 5655SOL     OW17253   4.188   3.605   5.909
 5655SOL    HW117254   4.221   3.644   5.995
 5655SOL    HW217255   4.264   3.598   5.844
 5656SOL     OW17256   4.338   1.984   5.703
 5656SOL    HW117257   4.436   1.962   5.710
 5656SOL    HW217258   4.307   1.967   5.610
 5657SOL     OW17259   5.158   3.050   5.627
 5657SOL    HW117260   5.190   2.974   5.684
 5657SOL    HW217261   5.066   3.077   5.657
 5658SOL     OW17262   4.021   1.897   5.757
 5658SOL    HW117263   4.070   1.981   5.736
 5658SOL    HW217264   4.083   1.832   5.802
 5659SOL     OW17265   4.756   2.411   5.602
 5659SOL    HW117266   4.715   2.493   5.563
 5659SOL    HW217267   4.820   2.437   5.675
 5660SOL     OW17268   5.581   2.695   5.963
 5660SOL    HW117269   5.623   2.631   6.027
 5660SOL    HW217270   5.543   2.644   5.885
 5661SOL     OW17271   4.212   3.247   5.760
 5661SOL    HW117272   4.125   3.232   5.807
 5661SOL    HW217273   4.195   3.273   5.665
 5662SOL     OW17274   5.388   3.142   6.243
 5662SOL    HW117275   5.487   3.150   6.257
 5662SOL    HW217276   5.343   3.226   6.274
 5663SOL     OW17277   5.114   2.437   5.664
 5663SOL    HW117278   5.060   2.416   5.745
 5663SOL    HW217279   5.205   2.396   5.673
 5664SOL     OW17280   4.251   2.118   5.914
 5664SOL    HW117281   4.278   2.059   5.839
 5664SOL    HW217282   4.251   2.213   5.883
 5665SOL     OW17283   4.091   2.962   6.087
 5665SOL    HW117284   4.084   3.045   6.031
 5665SOL    HW217285   4.095   2.882   6.027
 5666SOL     OW17286   4.933   2.387   5.861
 5666SOL    HW117287   4.946   2.303   5.915
 5666SOL    HW217288   4.904   2.461   5.921
 5667SOL     OW17289   4.031   1.925   6.204
 5667SOL    HW117290   4.020   2.019   6.237
 5667SOL    HW217291   4.026   1.862   6.281
 5668SOL     OW17292   5.264   2.136   5.711
 5668SOL    HW117293   5.203   2.061   5.734
 5668SOL    HW217294   5.286   2.188   5.794
 5669SOL     OW17295   5.027   2.700   5.628
 5669SOL    HW117296   5.061   2.607   5.643
 5669SOL    HW217297   5.045   2.727   5.533
 5670SOL     OW17298   3.732   3.188   5.786
 5670SOL    HW117299   3.639   3.209   5.755
 5670SOL    HW217300   3.742   3.089   5.799
 5671SOL     OW17301   4.539   2.434   5.911
 5671SOL    HW117302   4.546   2.345   5.865
 5671SOL    HW217303   4.445   2.468   5.903
 5672SOL     OW17304   4.197   2.362   5.777
 5672SOL    HW117305   4.258   2.442   5.781
 5672SOL    HW217306   4.102   2.393   5.784
 5673SOL     OW17307   5.450   1.997   6.109
 5673SOL    HW117308   5.523   1.980   6.042
 5673SOL    HW217309   5.419   1.910   6.147
 5674SOL     OW17310   4.396   3.478   5.740
 5674SOL    HW117311   4.405   3.488   5.641
 5674SOL    HW217312   4.356   3.389   5.761
 5675SOL     OW17313   4.918   3.474   5.617
 5675SOL    HW117314   4.924   3.381   5.654
 5675SOL    HW217315   4.859   3.474   5.537
 5676SOL     OW17316   4.640   2.772   5.877
 5676SOL    HW117317   4.703   2.810   5.809
 5676SOL    HW217318   4.680   2.689   5.916
 5677SOL     OW17319   5.228   3.469   5.630
 5677SOL    HW117320   5.136   3.506   5.637
 5677SOL    HW217321   5.266   3.489   5.540
 5678SOL     OW17322   4.763   2.960   6.282
 5678SOL    HW117323   4.693   2.913   6.336
 5678SOL    HW217324   4.822   2.892   6.239
 5679SOL     OW17325   3.979   3.210   5.876
 5679SOL    HW117326   3.883   3.211   5.849
 5679SOL    HW217327   3.991   3.263   5.960
 5680SOL     OW17328   3.799   2.207   5.619
 5680SOL    HW117329   3.707   2.179   5.590
 5680SOL    HW217330   3.830   2.284   5.563
 5681SOL     OW17331   3.796   2.028   5.904
 5681SOL    HW117332   3.779   2.111   5.850
 5681SOL    HW217333   3.886   1.991   5.882
 5682SOL     OW17334   4.907   3.197   5.705
 5682SOL    HW117335   4.808   3.186   5.707
 5682SOL    HW217336   4.941   3.212   5.798
 5683SOL     OW17337   4.949   2.187   6.035
 5683SOL    HW117338   5.014   2.113   6.024
 5683SOL    HW217339   4.969   2.237   6.119
 5684SOL     OW17340   4.583   3.236   5.602
 5684SOL    HW117341   4.537   3.251   5.690
 5684SOL    HW217342   4.627   3.321   5.572
 5685SOL     OW17343   4.807   2.846   5.673
 5685SOL    HW117344   4.784   2.899   5.591
 5685SOL    HW217345   4.888   2.790   5.654
 5686SOL     OW17346   5.076   1.914   5.754
 5686SOL    HW117347   5.111   1.873   5.670
 5686SOL    HW217348   4.986   1.876   5.774
 5687SOL     OW17349   3.763   2.939   5.886
 5687SOL    HW117350   3.862   2.928   5.877
 5687SOL    HW217351   3.723   2.853   5.918
 5688SOL     OW17352   4.599   3.508   5.923
 5688SOL    HW117353   4.522   3.473   5.869
 5688SOL    HW217354   4.567   3.579   5.985
 5689SOL     OW17355   3.954   4.352   0.113
 5689SOL    HW117356   3.861   4.350   0.150
 5689SOL    HW217357   3.955   4.313   0.021
 5690SOL     OW17358   3.949   3.999   0.996
 5690SOL    HW117359   3.984   3.982   1.088
 5690SOL    HW217360   3.861   3.954   0.984
 5691SOL     OW17361   3.743   4.092   0.647
 5691SOL    HW117362   3.661   4.135   0.686
 5691SOL    HW217363   3.715   4.019   0.584
 5692SOL     OW17364   4.293   4.999   1.165
 5692SOL    HW117365   4.200   4.992   1.128
 5692SOL    HW217366   4.304   5.088   1.209
 5693SOL     OW17367   5.279   5.235   0.703
 5693SOL    HW117368   5.222   5.219   0.784
 5693SOL    HW217369   5.220   5.245   0.623
 5694SOL     OW17370   4.859   4.427   0.717
 5694SOL    HW117371   4.916   4.505   0.692
 5694SOL    HW217372   4.799   4.453   0.793
 5695SOL     OW17373   5.479   4.331   0.231
 5695SOL    HW117374   5.467   4.318   0.132
 5695SOL    HW217375   5.449   4.250   0.280
 5696SOL     OW17376   4.492   4.868   1.023
 5696SOL    HW117377   4.414   4.885   1.083
 5696SOL    HW217378   4.526   4.955   0.987
 5697SOL     OW17379   4.574   4.522   1.823
 5697SOL    HW117380   4.570   4.598   1.888
 5697SOL    HW217381   4.596   4.558   1.732
 5698SOL     OW17382   4.409   4.736   0.665
 5698SOL    HW117383   4.478   4.720   0.735
 5698SOL    HW217384   4.336   4.793   0.703
 5699SOL     OW17385   4.410   4.885   1.803
 5699SOL    HW117386   4.470   4.964   1.817
 5699SOL    HW217387   4.324   4.916   1.762
 5700SOL     OW17388   4.059   5.159   1.061
 5700SOL    HW117389   3.981   5.128   1.008
 5700SOL    HW217390   4.117   5.217   1.004
 5701SOL     OW17391   5.184   5.229   1.339
 5701SOL    HW117392   5.208   5.323   1.365
 5701SOL    HW217393   5.168   5.175   1.421
 5702SOL     OW17394   4.162   4.116   1.499
 5702SOL    HW117395   4.244   4.060   1.508
 5702SOL    HW217396   4.081   4.058   1.503
 5703SOL     OW17397   5.327   4.171   0.737
 5703SOL    HW117398   5.253   4.217   0.687
 5703SOL    HW217399   5.378   4.239   0.790
 5704SOL     OW17400   3.955   5.437   0.483
 5704SOL    HW117401   3.989   5.514   0.537
 5704SOL    HW217402   3.999   5.437   0.393
 5705SOL     OW17403   4.851   5.065   1.690
 5705SOL    HW117404   4.898   5.065   1.778
 5705SOL    HW217405   4.803   4.978   1.679
 5706SOL     OW17406   3.954   5.158   0.538
 5706SOL    HW117407   3.928   5.254   0.538
 5706SOL    HW217408   3.883   5.104   0.583
 5707SOL     OW17409   3.964   4.815   0.886
 5707SOL    HW117410   3.978   4.731   0.938
 5707SOL    HW217411   3.909   4.879   0.941
 5708SOL     OW17412   4.344   5.510   1.439
 5708SOL    HW117413   4.252   5.493   1.474
 5708SOL    HW217414   4.372   5.602   1.465
 5709SOL     OW17415   4.330   4.688   0.123
 5709SOL    HW117416   4.337   4.772   0.069
 5709SOL    HW217417   4.376   4.701   0.211
 5710SOL     OW17418   5.318   3.838   1.480
 5710SOL    HW117419   5.300   3.905   1.408
 5710SOL    HW217420   5.315   3.884   1.569
 5711SOL     OW17421   3.846   4.367   0.563
 5711SOL    HW117422   3.801   4.279   0.580
 5711SOL    HW217423   3.845   4.421   0.647
 5712SOL     OW17424   5.566   5.491   0.359
 5712SOL    HW117425   5.620   5.462   0.439
 5712SOL    HW217426   5.596   5.581   0.330
 5713SOL     OW17427   3.751   5.320   0.117
 5713SOL    HW117428   3.732   5.224   0.138
 5713SOL    HW217429   3.718   5.378   0.192
 5714SOL     OW17430   5.413   4.646   0.612
 5714SOL    HW117431   5.508   4.617   0.620
 5714SOL    HW217432   5.405   4.711   0.537
 5715SOL     OW17433   5.365   4.832   0.432
 5715SOL    HW117434   5.451   4.834   0.380
 5715SOL    HW217435   5.379   4.879   0.520
 5716SOL     OW17436   3.837   4.461   1.597
 5716SOL    HW117437   3.925   4.448   1.642
 5716SOL    HW217438   3.824   4.558   1.575
 5717SOL     OW17439   4.337   5.089   0.726
 5717SOL    HW117440   4.288   5.002   0.735
 5717SOL    HW217441   4.314   5.132   0.639
 5718SOL     OW17442   5.017   4.952   1.423
 5718SOL    HW117443   5.054   4.879   1.365
 5718SOL    HW217444   5.069   4.957   1.508
 5719SOL     OW17445   4.533   3.728   0.502
 5719SOL    HW117446   4.573   3.819   0.493
 5719SOL    HW217447   4.433   3.736   0.508
 5720SOL     OW17448   3.921   4.700   1.264
 5720SOL    HW117449   4.010   4.655   1.250
 5720SOL    HW217450   3.848   4.635   1.245
 5721SOL     OW17451   5.249   4.723   0.190
 5721SOL    HW117452   5.186   4.647   0.203
 5721SOL    HW217453   5.297   4.741   0.276
 5722SOL     OW17454   4.911   5.516   1.616
 5722SOL    HW117455   4.935   5.576   1.540
 5722SOL    HW217456   4.918   5.421   1.586
 5723SOL     OW17457   4.041   3.975   1.801
 5723SOL    HW117458   4.112   4.046   1.807
 5723SOL    HW217459   3.953   4.014   1.829
 5724SOL     OW17460   5.190   5.141   0.953
 5724SOL    HW117461   5.131   5.147   1.033
 5724SOL    HW217462   5.175   5.053   0.907
 5725SOL     OW17463   5.391   5.438   0.572
 5725SOL    HW117464   5.350   5.415   0.484
 5725SOL    HW217465   5.373   5.364   0.637
 5726SOL     OW17466   4.322   4.453   0.270
 5726SOL    HW117467   4.346   4.522   0.202
 5726SOL    HW217468   4.244   4.486   0.324
 5727SOL     OW17469   5.005   4.069   0.944
 5727SOL    HW117470   4.919   4.019   0.931
 5727SOL    HW217471   5.067   4.015   1.000
 5728SOL     OW17472   5.300   5.386   0.307
 5728SOL    HW117473   5.389   5.432   0.310
 5728SOL    HW217474   5.279   5.362   0.212
 5729SOL     OW17475   4.531   4.329   1.465
 5729SOL    HW117476   4.484   4.326   1.554
 5729SOL    HW217477   4.480   4.274   1.399
 5730SOL     OW17478   5.118   4.193   1.674
 5730SOL    HW117479   5.098   4.236   1.762
 5730SOL    HW217480   5.196   4.131   1.683
 5731SOL     OW17481   4.697   4.614   1.572
 5731SOL    HW117482   4.743   4.530   1.543
 5731SOL    HW217483   4.641   4.648   1.497
 5732SOL     OW17484   4.715   4.134   1.242
 5732SOL    HW117485   4.638   4.168   1.296
 5732SOL    HW217486   4.681   4.083   1.163
 5733SOL     OW17487   4.765   4.425   0.429
 5733SOL    HW117488   4.791   4.421   0.525
 5733SOL    HW217489   4.680   4.374   0.415
 5734SOL     OW17490   3.800   4.535   0.789
 5734SOL    HW117491   3.899   4.523   0.798
 5734SOL    HW217492   3.776   4.630   0.810
 5735SOL     OW17493   3.854   5.545   1.571
 5735SOL    HW117494   3.844   5.530   1.670
 5735SOL    HW217495   3.768   5.581   1.535
 5736SOL     OW17496   4.589   4.072   0.195
 5736SOL    HW117497   4.648   4.135   0.146
 5736SOL    HW217498   4.608   3.978   0.166
 5737SOL     OW17499   5.443   4.309   1.831
 5737SOL    HW117500   5.417   4.398   1.795
 5737SOL    HW217501   5.441   4.241   1.758
 5738SOL     OW17502   5.086   4.868   0.545
 5738SOL    HW117503   5.169   4.839   0.497
 5738SOL    HW217504   5.037   4.935   0.489
 5739SOL     OW17505   4.274   3.920   0.885
 5739SOL    HW117506   4.269   3.915   0.985
 5739SOL    HW217507   4.276   4.016   0.856
 5740SOL     OW17508   4.732   5.180   0.477
 5740SOL    HW117509   4.686   5.252   0.425
 5740SOL    HW217510   4.728   5.200   0.575
 5741SOL     OW17511   4.075   5.525   0.853
 5741SOL    HW117512   4.125   5.439   0.859
 5741SOL    HW217513   4.140   5.602   0.850
 5742SOL     OW17514   5.519   4.790   0.873
 5742SOL    HW117515   5.457   4.775   0.797
 5742SOL    HW217516   5.467   4.801   0.958
 5743SOL     OW17517   4.951   5.274   1.506
 5743SOL    HW117518   4.957   5.197   1.570
 5743SOL    HW217519   4.899   5.248   1.426
 5744SOL     OW17520   4.045   4.667   0.242
 5744SOL    HW117521   4.127   4.706   0.200
 5744SOL    HW217522   4.018   4.585   0.193
 5745SOL     OW17523   5.182   4.459   0.728
 5745SOL    HW117524   5.177   4.394   0.803
 5745SOL    HW217525   5.262   4.518   0.741
 5746SOL     OW17526   4.185   4.990   1.727
 5746SOL    HW117527   4.135   4.991   1.641
 5746SOL    HW217528   4.122   4.972   1.803
 5747SOL     OW17529   4.835   5.500   0.237
 5747SOL    HW117530   4.775   5.438   0.287
 5747SOL    HW217531   4.866   5.456   0.152
 5748SOL     OW17532   3.926   4.009   1.498
 5748SOL    HW117533   3.846   4.069   1.485
 5748SOL    HW217534   3.916   3.960   1.584
 5749SOL     OW17535   5.356   5.101   0.081
 5749SOL    HW117536   5.324   5.195   0.071
 5749SOL    HW217537   5.280   5.038   0.069
 5750SOL     OW17538   4.188   5.467   0.323
 5750SOL    HW117539   4.221   5.506   0.409
 5750SOL    HW217540   4.264   5.460   0.258
 5751SOL     OW17541   5.124   3.831   0.426
 5751SOL    HW117542   5.100   3.794   0.336
 5751SOL    HW217543   5.223   3.847   0.430
 5752SOL     OW17544   3.973   5.509   1.241
 5752SOL    HW117545   4.030   5.444   1.291
 5752SOL    HW217546   3.957   5.476   1.148
 5753SOL     OW17547   4.664   5.422   0.904
 5753SOL    HW117548   4.744   5.365   0.925
 5753SOL    HW217549   4.615   5.382   0.827
 5754SOL     OW17550   4.106   4.424   0.480
 5754SOL    HW117551   4.151   4.334   0.477
 5754SOL    HW217552   4.012   4.413   0.513
 5755SOL     OW17553   5.271   3.946   1.729
 5755SOL    HW117554   5.266   3.983   1.821
 5755SOL    HW217555   5.199   3.877   1.717
 5756SOL     OW17556   4.338   3.846   0.117
 5756SOL    HW117557   4.436   3.824   0.124
 5756SOL    HW217558   4.307   3.829   0.024
 5757SOL     OW17559   4.505   3.988   1.749
 5757SOL    HW117560   4.572   3.927   1.792
 5757SOL    HW217561   4.432   4.007   1.814
 5758SOL     OW17562   4.612   5.238   1.195
 5758SOL    HW117563   4.589   5.213   1.101
 5758SOL    HW217564   4.673   5.169   1.234
 5759SOL     OW17565   5.075   4.314   1.433
 5759SOL    HW117566   5.103   4.271   1.518
 5759SOL    HW217567   5.100   4.410   1.434
 5760SOL     OW17568   4.527   5.126   0.924
 5760SOL    HW117569   4.617   5.140   0.882
 5760SOL    HW217570   4.456   5.128   0.853
 5761SOL     OW17571   4.646   4.227   0.899
 5761SOL    HW117572   4.621   4.218   0.803
 5761SOL    HW217573   4.694   4.145   0.930
 5762SOL     OW17574   4.263   3.788   0.512
 5762SOL    HW117575   4.182   3.789   0.570
 5762SOL    HW217576   4.266   3.871   0.457
 5763SOL     OW17577   5.158   4.912   0.041
 5763SOL    HW117578   5.190   4.836   0.098
 5763SOL    HW217579   5.066   4.939   0.071
 5764SOL     OW17580   4.659   3.960   0.480
 5764SOL    HW117581   4.611   4.001   0.402
 5764SOL    HW217582   4.758   3.958   0.461
 5765SOL     OW17583   4.800   4.407   1.464
 5765SOL    HW117584   4.720   4.346   1.467
 5765SOL    HW217585   4.881   4.354   1.440
 5766SOL     OW17586   4.951   5.294   0.793
 5766SOL    HW117587   4.972   5.368   0.728
 5766SOL    HW217588   5.019   5.294   0.866
 5767SOL     OW17589   4.183   4.876   0.741
 5767SOL    HW117590   4.112   4.849   0.806
 5767SOL    HW217591   4.157   4.848   0.648
 5768SOL     OW17592   4.995   5.521   0.591
 5768SOL    HW117593   5.039   5.585   0.527
 5768SOL    HW217594   4.945   5.573   0.661
 5769SOL     OW17595   4.756   4.273   0.016
 5769SOL    HW117596   4.715   4.355  -0.023
 5769SOL    HW217597   4.820   4.299   0.089
 5770SOL     OW17598   3.802   4.280   1.386
 5770SOL    HW117599   3.894   4.279   1.345
 5770SOL    HW217600   3.796   4.354   1.453
 5771SOL     OW17601   4.285   3.946   1.147
 5771SOL    HW117602   4.323   3.862   1.184
 5771SOL    HW217603   4.197   3.965   1.191
 5772SOL     OW17604   4.590   4.178   0.642
 5772SOL    HW117605   4.558   4.250   0.580
 5772SOL    HW217606   4.614   4.097   0.589
 5773SOL     OW17607   4.741   3.763   0.753
 5773SOL    HW117608   4.669   3.768   0.684
 5773SOL    HW217609   4.717   3.694   0.822
 5774SOL     OW17610   5.153   4.897   0.867
 5774SOL    HW117611   5.098   4.813   0.860
 5774SOL    HW217612   5.179   4.926   0.775
 5775SOL     OW17613   5.190   4.314   0.992
 5775SOL    HW117614   5.160   4.219   0.999
 5775SOL    HW217615   5.263   4.330   1.058
 5776SOL     OW17616   5.581   4.557   0.377
 5776SOL    HW117617   5.623   4.493   0.441
 5776SOL    HW217618   5.543   4.506   0.299
 5777SOL     OW17619   4.212   5.109   0.174
 5777SOL    HW117620   4.125   5.094   0.221
 5777SOL    HW217621   4.195   5.135   0.079
 5778SOL     OW17622   5.388   5.004   0.657
 5778SOL    HW117623   5.487   5.012   0.671
 5778SOL    HW217624   5.343   5.088   0.688
 5779SOL     OW17625   5.114   4.299   0.078
 5779SOL    HW117626   5.060   4.278   0.159
 5779SOL    HW217627   5.205   4.258   0.087
 5780SOL     OW17628   4.251   3.980   0.328
 5780SOL    HW117629   4.278   3.921   0.253
 5780SOL    HW217630   4.251   4.075   0.297
 5781SOL     OW17631   5.478   4.947   1.588
 5781SOL    HW117632   5.569   4.908   1.575
 5781SOL    HW217633   5.486   5.043   1.612
 5782SOL     OW17634   4.788   5.071   1.340
 5782SOL    HW117635   4.708   5.048   1.395
 5782SOL    HW217636   4.871   5.045   1.389
 5783SOL     OW17637   5.316   5.353   1.625
 5783SOL    HW117638   5.343   5.387   1.535
 5783SOL    HW217639   5.395   5.315   1.671
 5784SOL     OW17640   4.835   4.919   1.100
 5784SOL    HW117641   4.795   4.963   1.181
 5784SOL    HW217642   4.794   4.956   1.017
 5785SOL     OW17643   5.362   4.823   1.079
 5785SOL    HW117644   5.367   4.904   1.138
 5785SOL    HW217645   5.276   4.825   1.028
 5786SOL     OW17646   4.639   3.813   1.402
 5786SOL    HW117647   4.664   3.793   1.307
 5786SOL    HW217648   4.711   3.869   1.444
 5787SOL     OW17649   4.704   4.840   1.719
 5787SOL    HW117650   4.605   4.846   1.729
 5787SOL    HW217651   4.727   4.760   1.663
 5788SOL     OW17652   4.429   4.774   0.368
 5788SOL    HW117653   4.415   4.781   0.467
 5788SOL    HW217654   4.513   4.723   0.350
 5789SOL     OW17655   4.134   4.537   1.251
 5789SOL    HW117656   4.220   4.549   1.301
 5789SOL    HW217657   4.092   4.450   1.278
 5790SOL     OW17658   4.998   4.110   1.262
 5790SOL    HW117659   5.019   4.184   1.326
 5790SOL    HW217660   4.909   4.127   1.219
 5791SOL     OW17661   3.788   5.288   1.331
 5791SOL    HW117662   3.742   5.370   1.297
 5791SOL    HW217663   3.886   5.307   1.340
 5792SOL     OW17664   4.091   4.824   0.501
 5792SOL    HW117665   4.084   4.907   0.445
 5792SOL    HW217666   4.095   4.744   0.441
 5793SOL     OW17667   4.290   4.261   0.865
 5793SOL    HW117668   4.302   4.327   0.791
 5793SOL    HW217669   4.336   4.295   0.948
 5794SOL     OW17670   4.976   5.072   0.388
 5794SOL    HW117671   5.026   5.149   0.428
 5794SOL    HW217672   4.881   5.074   0.420
 5795SOL     OW17673   4.996   5.169   1.142
 5795SOL    HW117674   5.043   5.182   1.229
 5795SOL    HW217675   4.930   5.095   1.151
 5796SOL     OW17676   5.306   4.363   0.472
 5796SOL    HW117677   5.275   4.424   0.545
 5796SOL    HW217678   5.356   4.415   0.403
 5797SOL     OW17679   4.078   5.234   1.329
 5797SOL    HW117680   4.057   5.190   1.242
 5797SOL    HW217681   4.175   5.260   1.332
 5798SOL     OW17682   4.126   4.475   1.598
 5798SOL    HW117683   4.194   4.530   1.551
 5798SOL    HW217684   4.166   4.387   1.625
 5799SOL     OW17685   5.311   4.503   1.670
 5799SOL    HW117686   5.219   4.541   1.665
 5799SOL    HW217687   5.371   4.550   1.605
 5800SOL     OW17688   4.737   3.829   1.770
 5800SOL    HW117689   4.743   3.914   1.718
 5800SOL    HW217690   4.769   3.753   1.713
 5801SOL     OW17691   4.228   3.774   1.740
 5801SOL    HW117692   4.186   3.717   1.670
 5801SOL    HW217693   4.162   3.843   1.772
 5802SOL     OW17694   4.297   4.594   1.029
 5802SOL    HW117695   4.341   4.683   1.020
 5802SOL    HW217696   4.234   4.594   1.106
 5803SOL     OW17697   5.084   4.586   1.045
 5803SOL    HW117698   5.009   4.586   0.979
 5803SOL    HW217699   5.121   4.494   1.054
 5804SOL     OW17700   4.933   4.249   0.275
 5804SOL    HW117701   4.946   4.165   0.329
 5804SOL    HW217702   4.904   4.323   0.335
 5805SOL     OW17703   4.031   3.937   1.231
 5805SOL    HW117704   4.008   3.974   1.321
 5805SOL    HW217705   4.001   3.842   1.225
 5806SOL     OW17706   3.761   5.034   1.282
 5806SOL    HW117707   3.814   4.985   1.350
 5806SOL    HW217708   3.783   5.132   1.287
 5807SOL     OW17709   4.456   4.358   1.064
 5807SOL    HW117710   4.515   4.332   0.988
 5807SOL    HW217711   4.428   4.454   1.053
 5808SOL     OW17712   5.452   4.659   1.854
 5808SOL    HW117713   5.406   4.652   1.765
 5808SOL    HW217714   5.390   4.703   1.920
 5809SOL     OW17715   4.031   3.787   0.618
 5809SOL    HW117716   4.020   3.881   0.651
 5809SOL    HW217717   4.026   3.724   0.695
 5810SOL     OW17718   5.346   4.091   0.374
 5810SOL    HW117719   5.348   4.015   0.438
 5810SOL    HW217720   5.298   4.168   0.414
 5811SOL     OW17721   4.747   4.490   0.966
 5811SOL    HW117722   4.762   4.511   1.062
 5811SOL    HW217723   4.717   4.395   0.957
 5812SOL     OW17724   4.704   5.297   1.700
 5812SOL    HW117725   4.684   5.341   1.612
 5812SOL    HW217726   4.743   5.206   1.684
 5813SOL     OW17727   5.583   5.242   1.605
 5813SOL    HW117728   5.597   5.269   1.510
 5813SOL    HW217729   5.666   5.264   1.658
 5814SOL     OW17730   4.074   4.622   1.804
 5814SOL    HW117731   4.150   4.666   1.852
 5814SOL    HW217732   4.109   4.575   1.722
 5815SOL     OW17733   5.264   3.998   0.125
 5815SOL    HW117734   5.203   3.923   0.148
 5815SOL    HW217735   5.286   4.050   0.208
 5816SOL     OW17736   5.027   4.562   0.042
 5816SOL    HW117737   5.061   4.469   0.057
 5816SOL    HW217738   5.045   4.589  -0.053
 5817SOL     OW17739   4.792   5.057   0.849
 5817SOL    HW117740   4.799   4.973   0.794
 5817SOL    HW217741   4.854   5.126   0.813
 5818SOL     OW17742   4.043   4.534   0.949
 5818SOL    HW117743   4.136   4.570   0.954
 5818SOL    HW217744   4.037   4.449   1.001
 5819SOL     OW17745   4.063   4.233   1.006
 5819SOL    HW117746   4.011   4.150   0.989
 5819SOL    HW217747   4.140   4.238   0.942
 5820SOL     OW17748   4.862   4.104   1.678
 5820SOL    HW117749   4.817   4.167   1.742
 5820SOL    HW217750   4.955   4.135   1.661
 5821SOL     OW17751   4.884   3.931   1.477
 5821SOL    HW117752   4.884   3.995   1.554
 5821SOL    HW217753   4.912   3.979   1.394
 5822SOL     OW17754   3.812   5.525   0.927
 5822SOL    HW117755   3.770   5.439   0.900
 5822SOL    HW217756   3.906   5.528   0.893
 5823SOL     OW17757   4.228   5.292   0.910
 5823SOL    HW117758   4.294   5.366   0.919
 5823SOL    HW217759   4.272   5.213   0.868
 5824SOL     OW17760   4.726   4.520   1.238
 5824SOL    HW117761   4.767   4.488   1.324
 5824SOL    HW217762   4.630   4.493   1.235
 5825SOL     OW17763   3.764   4.268   1.114
 5825SOL    HW117764   3.849   4.235   1.073
 5825SOL    HW217765   3.777   4.283   1.212
 5826SOL     OW17766   3.913   4.244   1.722
 5826SOL    HW117767   3.972   4.204   1.652
 5826SOL    HW217768   3.855   4.315   1.681
 5827SOL     OW17769   5.093   4.674   1.660
 5827SOL    HW117770   5.132   4.763   1.680
 5827SOL    HW217771   5.103   4.654   1.563
 5828SOL     OW17772   4.539   4.296   0.325
 5828SOL    HW117773   4.546   4.207   0.279
 5828SOL    HW217774   4.445   4.330   0.317
 5829SOL     OW17775   5.381   4.328   1.206
 5829SOL    HW117776   5.343   4.259   1.268
 5829SOL    HW217777   5.463   4.292   1.162
 5830SOL     OW17778   3.976   5.288   1.744
 5830SOL    HW117779   3.946   5.345   1.820
 5830SOL    HW217780   3.969   5.191   1.770
 5831SOL     OW17781   4.395   4.188   1.269
 5831SOL    HW117782   4.361   4.099   1.239
 5831SOL    HW217783   4.421   4.242   1.189
 5832SOL     OW17784   4.654   5.402   1.465
 5832SOL    HW117785   4.630   5.384   1.370
 5832SOL    HW217786   4.684   5.496   1.475
 5833SOL     OW17787   4.197   4.224   0.191
 5833SOL    HW117788   4.258   4.304   0.195
 5833SOL    HW217789   4.102   4.255   0.198
 5834SOL     OW17790   3.883   4.861   1.466
 5834SOL    HW117791   3.905   4.800   1.542
 5834SOL    HW217792   3.893   4.812   1.380
 5835SOL     OW17793   5.071   4.783   1.234
 5835SOL    HW117794   5.095   4.720   1.160
 5835SOL    HW217795   4.981   4.823   1.216
 5836SOL     OW17796   5.026   4.579   0.309
 5836SOL    HW117797   4.940   4.548   0.351
 5836SOL    HW217798   5.022   4.565   0.210
 5837SOL     OW17799   5.483   5.471   1.154
 5837SOL    HW117800   5.544   5.501   1.081
 5837SOL    HW217801   5.445   5.382   1.132
 5838SOL     OW17802   4.976   5.455   1.128
 5838SOL    HW117803   5.060   5.460   1.074
 5838SOL    HW217804   4.953   5.359   1.146
 5839SOL     OW17805   3.807   4.982   1.022
 5839SOL    HW117806   3.802   4.981   1.122
 5839SOL    HW217807   3.724   4.941   0.984
 5840SOL     OW17808   4.412   5.386   1.716
 5840SOL    HW117809   4.356   5.467   1.725
 5840SOL    HW217810   4.464   5.390   1.630
 5841SOL     OW17811   4.627   3.810   0.133
 5841SOL    HW117812   4.678   3.811   0.047
 5841SOL    HW217813   4.683   3.768   0.204
 5842SOL     OW17814   5.450   3.859   0.523
 5842SOL    HW117815   5.523   3.842   0.456
 5842SOL    HW217816   5.419   3.772   0.561
 5843SOL     OW17817   5.112   5.297   0.477
 5843SOL    HW117818   5.179   5.309   0.403
 5843SOL    HW217819   5.072   5.386   0.500
 5844SOL     OW17820   3.854   5.518   1.851
 5844SOL    HW117821   3.813   5.444   1.904
 5844SOL    HW217822   3.918   5.569   1.909
 5845SOL     OW17823   5.004   4.651   0.672
 5845SOL    HW117824   5.064   4.570   0.674
 5845SOL    HW217825   5.044   4.720   0.612
 5846SOL     OW17826   4.554   4.997   1.422
 5846SOL    HW117827   4.549   5.030   1.517
 5846SOL    HW217828   4.468   5.016   1.376
 5847SOL     OW17829   4.396   5.340   0.154
 5847SOL    HW117830   4.405   5.350   0.055
 5847SOL    HW217831   4.356   5.251   0.175
 5848SOL     OW17832   5.374   5.444   1.394
 5848SOL    HW117833   5.427   5.454   1.310
 5848SOL    HW217834   5.347   5.534   1.428
 5849SOL     OW17835   5.565   3.899   0.963
 5849SOL    HW117836   5.604   3.814   0.927
 5849SOL    HW217837   5.467   3.901   0.944
 5850SOL     OW17838   3.987   4.050   0.720
 5850SOL    HW117839   3.908   4.101   0.686
 5850SOL    HW217840   3.978   4.035   0.818
 5851SOL     OW17841   4.918   5.336   0.031
 5851SOL    HW117842   4.924   5.243   0.068
 5851SOL    HW217843   4.859   5.336  -0.049
 5852SOL     OW17844   4.546   4.726   1.372
 5852SOL    HW117845   4.586   4.725   1.280
 5852SOL    HW217846   4.556   4.818   1.412
 5853SOL     OW17847   4.640   4.634   0.291
 5853SOL    HW117848   4.703   4.672   0.223
 5853SOL    HW217849   4.680   4.551   0.330
 5854SOL     OW17850   5.228   5.331   0.044
 5854SOL    HW117851   5.136   5.368   0.051
 5854SOL    HW217852   5.266   5.351  -0.046
 5855SOL     OW17853   4.096   5.012   1.490
 5855SOL    HW117854   4.083   5.105   1.456
 5855SOL    HW217855   4.012   4.960   1.477
 5856SOL     OW17856   5.338   5.016   1.289
 5856SOL    HW117857   5.398   5.019   1.369
 5856SOL    HW217858   5.263   5.080   1.302
 5857SOL     OW17859   4.763   4.822   0.696
 5857SOL    HW117860   4.693   4.775   0.750
 5857SOL    HW217861   4.822   4.754   0.653
 5858SOL     OW17862   4.738   3.960   0.971
 5858SOL    HW117863   4.730   3.924   0.878
 5858SOL    HW217864   4.736   3.884   1.036
 5859SOL     OW17865   4.314   5.211   0.491
 5859SOL    HW117866   4.356   5.153   0.421
 5859SOL    HW217867   4.270   5.290   0.447
 5860SOL     OW17868   5.433   4.109   1.381
 5860SOL    HW117869   5.506   4.178   1.385
 5860SOL    HW217870   5.461   4.034   1.322
 5861SOL     OW17871   3.979   5.072   0.290
 5861SOL    HW117872   3.883   5.073   0.263
 5861SOL    HW217873   3.991   5.125   0.374
 5862SOL     OW17874   3.829   4.737   1.726
 5862SOL    HW117875   3.752   4.704   1.780
 5862SOL    HW217876   3.914   4.707   1.768
 5863SOL     OW17877   4.396   3.927   1.489
 5863SOL    HW117878   4.486   3.911   1.449
 5863SOL    HW217879   4.404   3.932   1.588
 5864SOL     OW17880   3.799   4.069   0.033
 5864SOL    HW117881   3.707   4.041   0.004
 5864SOL    HW217882   3.830   4.146  -0.023
 5865SOL     OW17883   5.164   4.580   1.398
 5865SOL    HW117884   5.107   4.632   1.335
 5865SOL    HW217885   5.260   4.592   1.374
 5866SOL     OW17886   3.796   3.890   0.318
 5866SOL    HW117887   3.779   3.973   0.264
 5866SOL    HW217888   3.886   3.853   0.296
 5867SOL     OW17889   4.907   5.059   0.119
 5867SOL    HW117890   4.808   5.048   0.121
 5867SOL    HW217891   4.941   5.074   0.212
 5868SOL     OW17892   4.337   4.566   1.431
 5868SOL    HW117893   4.393   4.647   1.414
 5868SOL    HW217894   4.396   4.486   1.434
 5869SOL     OW17895   5.217   5.491   0.959
 5869SOL    HW117896   5.250   5.555   0.890
 5869SOL    HW217897   5.283   5.485   1.034
 5870SOL     OW17898   4.440   4.289   1.708
 5870SOL    HW117899   4.459   4.354   1.782
 5870SOL    HW217900   4.500   4.209   1.717
 5871SOL     OW17901   5.174   4.944   1.633
 5871SOL    HW117902   5.165   4.934   1.732
 5871SOL    HW217903   5.270   4.937   1.607
 5872SOL     OW17904   4.114   5.465   1.560
 5872SOL    HW117905   4.023   5.506   1.558
 5872SOL    HW217906   4.107   5.371   1.592
 5873SOL     OW17907   5.398   4.607   1.254
 5873SOL    HW117908   5.371   4.518   1.217
 5873SOL    HW217909   5.399   4.675   1.181
 5874SOL     OW17910   4.949   4.049   0.449
 5874SOL    HW117911   5.014   3.975   0.438
 5874SOL    HW217912   4.969   4.099   0.533
 5875SOL     OW17913   4.318   4.469   0.652
 5875SOL    HW117914   4.368   4.554   0.633
 5875SOL    HW217915   4.230   4.471   0.604
 5876SOL     OW17916   5.501   4.066   1.642
 5876SOL    HW117917   5.484   4.097   1.548
 5876SOL    HW217918   5.417   4.029   1.680
 5877SOL     OW17919   5.454   4.658   1.517
 5877SOL    HW117920   5.492   4.749   1.532
 5877SOL    HW217921   5.446   4.641   1.418
 5878SOL     OW17922   4.583   5.098   0.016
 5878SOL    HW117923   4.537   5.113   0.104
 5878SOL    HW217924   4.627   5.183  -0.014
 5879SOL     OW17925   4.385   5.514   0.953
 5879SOL    HW117926   4.339   5.602   0.940
 5879SOL    HW217927   4.484   5.526   0.946
 5880SOL     OW17928   4.583   4.680   0.861
 5880SOL    HW117929   4.637   4.611   0.909
 5880SOL    HW217930   4.551   4.749   0.927
 5881SOL     OW17931   4.807   4.708   0.087
 5881SOL    HW117932   4.784   4.761   0.005
 5881SOL    HW217933   4.888   4.652   0.068
 5882SOL     OW17934   5.585   5.293   0.851
 5882SOL    HW117935   5.514   5.281   0.781
 5882SOL    HW217936   5.586   5.214   0.911
 5883SOL     OW17937   3.945   5.038   1.844
 5883SOL    HW117938   3.880   4.965   1.823
 5883SOL    HW217939   3.949   5.052   1.942
 5884SOL     OW17940   3.803   4.964   0.653
 5884SOL    HW117941   3.802   4.917   0.741
 5884SOL    HW217942   3.885   4.936   0.602
 5885SOL     OW17943   4.396   5.115   1.624
 5885SOL    HW117944   4.318   5.065   1.662
 5885SOL    HW217945   4.393   5.210   1.655
 5886SOL     OW17946   5.548   3.916   1.227
 5886SOL    HW117947   5.544   3.826   1.271
 5886SOL    HW217948   5.551   3.905   1.128
 5887SOL     OW17949   4.152   4.148   0.520
 5887SOL    HW117950   4.182   4.076   0.458
 5887SOL    HW217951   4.113   4.108   0.603
 5888SOL     OW17952   5.429   5.211   1.104
 5888SOL    HW117953   5.336   5.186   1.077
 5888SOL    HW217954   5.455   5.161   1.186
 5889SOL     OW17955   4.041   4.271   1.280
 5889SOL    HW117956   4.079   4.212   1.352
 5889SOL    HW217957   4.081   4.245   1.192
 5890SOL     OW17958   4.536   5.310   0.687
 5890SOL    HW117959   4.568   5.320   0.593
 5890SOL    HW217960   4.457   5.248   0.689
 5891SOL     OW17961   5.148   3.938   1.112
 5891SOL    HW117962   5.200   3.873   1.167
 5891SOL    HW217963   5.099   4.001   1.173
 5892SOL     OW17964   4.725   3.758   1.154
 5892SOL    HW117965   4.662   3.686   1.123
 5892SOL    HW217966   4.818   3.722   1.154
 5893SOL     OW17967   4.494   5.054   0.301
 5893SOL    HW117968   4.448   4.967   0.318
 5893SOL    HW217969   4.585   5.051   0.342
 5894SOL     OW17970   4.342   5.291   1.284
 5894SOL    HW117971   4.337   5.373   1.341
 5894SOL    HW217972   4.431   5.288   1.239
 5895SOL     OW17973   5.076   3.776   0.168
 5895SOL    HW117974   5.111   3.735   0.084
 5895SOL    HW217975   4.986   3.738   0.188
 5896SOL     OW17976   5.024   4.177   0.691
 5896SOL    HW117977   4.965   4.257   0.695
 5896SOL    HW217978   5.039   4.142   0.784
 5897SOL     OW17979   5.317   3.945   0.882
 5897SOL    HW117980   5.233   3.944   0.936
 5897SOL    HW217981   5.319   4.028   0.826
 5898SOL     OW17982   3.763   4.801   0.300
 5898SOL    HW117983   3.862   4.790   0.291
 5898SOL    HW217984   3.723   4.715   0.332
 5899SOL     OW17985   4.599   5.370   0.337
 5899SOL    HW117986   4.522   5.335   0.283
 5899SOL    HW217987   4.567   5.441   0.399
 5900SOL     OW17988   3.954   4.352   1.975
 5900SOL    HW117989   3.861   4.350   2.012
 5900SOL    HW217990   3.955   4.313   1.883
 5901SOL     OW17991   3.949   3.999   2.858
 5901SOL    HW117992   3.984   3.982   2.950
 5901SOL    HW217993   3.861   3.954   2.846
 5902SOL     OW17994   3.743   4.092   2.509
 5902SOL    HW117995   3.661   4.135   2.548
 5902SOL    HW217996   3.715   4.019   2.446
 5903SOL     OW17997   4.293   4.999   3.027
 5903SOL    HW117998   4.200   4.992   2.990
 5903SOL    HW217999   4.304   5.088   3.071
 5904SOL     OW18000   5.279   5.235   2.565
 5904SOL    HW118001   5.222   5.219   2.646
 5904SOL    HW218002   5.220   5.245   2.485
 5905SOL     OW18003   4.859   4.427   2.579
 5905SOL    HW118004   4.916   4.505   2.554
 5905SOL    HW218005   4.799   4.453   2.655
 5906SOL     OW18006   5.479   4.331   2.093
 5906SOL    HW118007   5.467   4.318   1.994
 5906SOL    HW218008   5.449   4.250   2.142
 5907SOL     OW18009   4.492   4.868   2.885
 5907SOL    HW118010   4.414   4.885   2.945
 5907SOL    HW218011   4.526   4.955   2.849
 5908SOL     OW18012   4.574   4.522   3.685
 5908SOL    HW118013   4.570   4.598   3.750
 5908SOL    HW218014   4.596   4.558   3.594
 5909SOL     OW18015   4.409   4.736   2.527
 5909SOL    HW118016   4.478   4.720   2.597
 5909SOL    HW218017   4.336   4.793   2.565
 5910SOL     OW18018   4.410   4.885   3.665
 5910SOL    HW118019   4.470   4.964   3.679
 5910SOL    HW218020   4.324   4.916   3.624
 5911SOL     OW18021   4.059   5.159   2.923
 5911SOL    HW118022   3.981   5.128   2.870
 5911SOL    HW218023   4.117   5.217   2.866
 5912SOL     OW18024   5.184   5.229   3.201
 5912SOL    HW118025   5.208   5.323   3.227
 5912SOL    HW218026   5.168   5.175   3.283
 5913SOL     OW18027   4.162   4.116   3.361
 5913SOL    HW118028   4.244   4.060   3.370
 5913SOL    HW218029   4.081   4.058   3.365
 5914SOL     OW18030   5.327   4.171   2.599
 5914SOL    HW118031   5.253   4.217   2.549
 5914SOL    HW218032   5.378   4.239   2.652
 5915SOL     OW18033   3.955   5.437   2.345
 5915SOL    HW118034   3.989   5.514   2.399
 5915SOL    HW218035   3.999   5.437   2.255
 5916SOL     OW18036   4.851   5.065   3.552
 5916SOL    HW118037   4.898   5.065   3.640
 5916SOL    HW218038   4.803   4.978   3.541
 5917SOL     OW18039   3.954   5.158   2.400
 5917SOL    HW118040   3.928   5.254   2.400
 5917SOL    HW218041   3.883   5.104   2.445
 5918SOL     OW18042   3.964   4.815   2.748
 5918SOL    HW118043   3.978   4.731   2.800
 5918SOL    HW218044   3.909   4.879   2.803
 5919SOL     OW18045   4.344   5.510   3.301
 5919SOL    HW118046   4.252   5.493   3.336
 5919SOL    HW218047   4.372   5.602   3.327
 5920SOL     OW18048   4.330   4.688   1.985
 5920SOL    HW118049   4.337   4.772   1.931
 5920SOL    HW218050   4.376   4.701   2.073
 5921SOL     OW18051   5.318   3.838   3.342
 5921SOL    HW118052   5.300   3.905   3.270
 5921SOL    HW218053   5.315   3.884   3.431
 5922SOL     OW18054   3.846   4.367   2.425
 5922SOL    HW118055   3.801   4.279   2.442
 5922SOL    HW218056   3.845   4.421   2.509
 5923SOL     OW18057   5.566   5.491   2.221
 5923SOL    HW118058   5.620   5.462   2.301
 5923SOL    HW218059   5.596   5.581   2.192
 5924SOL     OW18060   3.751   5.320   1.979
 5924SOL    HW118061   3.732   5.224   2.000
 5924SOL    HW218062   3.718   5.378   2.054
 5925SOL     OW18063   5.413   4.646   2.474
 5925SOL    HW118064   5.508   4.617   2.482
 5925SOL    HW218065   5.405   4.711   2.399
 5926SOL     OW18066   5.365   4.832   2.294
 5926SOL    HW118067   5.451   4.834   2.242
 5926SOL    HW218068   5.379   4.879   2.382
 5927SOL     OW18069   3.837   4.461   3.459
 5927SOL    HW118070   3.925   4.448   3.504
 5927SOL    HW218071   3.824   4.558   3.437
 5928SOL     OW18072   4.337   5.089   2.588
 5928SOL    HW118073   4.288   5.002   2.597
 5928SOL    HW218074   4.314   5.132   2.501
 5929SOL     OW18075   5.017   4.952   3.285
 5929SOL    HW118076   5.054   4.879   3.227
 5929SOL    HW218077   5.069   4.957   3.370
 5930SOL     OW18078   4.533   3.728   2.364
 5930SOL    HW118079   4.573   3.819   2.355
 5930SOL    HW218080   4.433   3.736   2.370
 5931SOL     OW18081   3.921   4.700   3.126
 5931SOL    HW118082   4.010   4.655   3.112
 5931SOL    HW218083   3.848   4.635   3.107
 5932SOL     OW18084   5.249   4.723   2.052
 5932SOL    HW118085   5.186   4.647   2.065
 5932SOL    HW218086   5.297   4.741   2.138
 5933SOL     OW18087   4.911   5.516   3.478
 5933SOL    HW118088   4.935   5.576   3.402
 5933SOL    HW218089   4.918   5.421   3.448
 5934SOL     OW18090   4.041   3.975   3.663
 5934SOL    HW118091   4.112   4.046   3.669
 5934SOL    HW218092   3.953   4.014   3.691
 5935SOL     OW18093   5.190   5.141   2.815
 5935SOL    HW118094   5.131   5.147   2.895
 5935SOL    HW218095   5.175   5.053   2.769
 5936SOL     OW18096   5.391   5.438   2.434
 5936SOL    HW118097   5.350   5.415   2.346
 5936SOL    HW218098   5.373   5.364   2.499
 5937SOL     OW18099   4.322   4.453   2.132
 5937SOL    HW118100   4.346   4.522   2.064
 5937SOL    HW218101   4.244   4.486   2.186
 5938SOL     OW18102   5.005   4.069   2.806
 5938SOL    HW118103   4.919   4.019   2.793
 5938SOL    HW218104   5.067   4.015   2.862
 5939SOL     OW18105   5.300   5.386   2.169
 5939SOL    HW118106   5.389   5.432   2.172
 5939SOL    HW218107   5.279   5.362   2.074
 5940SOL     OW18108   4.531   4.329   3.327
 5940SOL    HW118109   4.484   4.326   3.416
 5940SOL    HW218110   4.480   4.274   3.261
 5941SOL     OW18111   5.118   4.193   3.536
 5941SOL    HW118112   5.098   4.236   3.624
 5941SOL    HW218113   5.196   4.131   3.545
 5942SOL     OW18114   4.697   4.614   3.434
 5942SOL    HW118115   4.743   4.530   3.405
 5942SOL    HW218116   4.641   4.648   3.359
 5943SOL     OW18117   4.715   4.134   3.104
 5943SOL    HW118118   4.638   4.168   3.158
 5943SOL    HW218119   4.681   4.083   3.025
 5944SOL     OW18120   4.765   4.425   2.291
 5944SOL    HW118121   4.791   4.421   2.387
 5944SOL    HW218122   4.680   4.374   2.277
 5945SOL     OW18123   3.800   4.535   2.651
 5945SOL    HW118124   3.899   4.523   2.660
 5945SOL    HW218125   3.776   4.630   2.672
 5946SOL     OW18126   3.854   5.545   3.433
 5946SOL    HW118127   3.844   5.530   3.532
 5946SOL    HW218128   3.768   5.581   3.397
 5947SOL     OW18129   4.589   4.072   2.057
 5947SOL    HW118130   4.648   4.135   2.008
 5947SOL    HW218131   4.608   3.978   2.028
 5948SOL     OW18132   5.443   4.309   3.693
 5948SOL    HW118133   5.417   4.398   3.657
 5948SOL    HW218134   5.441   4.241   3.620
 5949SOL     OW18135   5.086   4.868   2.407
 5949SOL    HW118136   5.169   4.839   2.359
 5949SOL    HW218137   5.037   4.935   2.351
 5950SOL     OW18138   4.274   3.920   2.747
 5950SOL    HW118139   4.269   3.915   2.847
 5950SOL    HW218140   4.276   4.016   2.718
 5951SOL     OW18141   4.732   5.180   2.339
 5951SOL    HW118142   4.686   5.252   2.287
 5951SOL    HW218143   4.728   5.200   2.437
 5952SOL     OW18144   4.075   5.525   2.715
 5952SOL    HW118145   4.125   5.439   2.721
 5952SOL    HW218146   4.140   5.602   2.712
 5953SOL     OW18147   5.519   4.790   2.735
 5953SOL    HW118148   5.457   4.775   2.659
 5953SOL    HW218149   5.467   4.801   2.820
 5954SOL     OW18150   4.951   5.274   3.368
 5954SOL    HW118151   4.957   5.197   3.432
 5954SOL    HW218152   4.899   5.248   3.288
 5955SOL     OW18153   4.045   4.667   2.104
 5955SOL    HW118154   4.127   4.706   2.062
 5955SOL    HW218155   4.018   4.585   2.055
 5956SOL     OW18156   5.182   4.459   2.590
 5956SOL    HW118157   5.177   4.394   2.665
 5956SOL    HW218158   5.262   4.518   2.603
 5957SOL     OW18159   4.185   4.990   3.589
 5957SOL    HW118160   4.135   4.991   3.503
 5957SOL    HW218161   4.122   4.972   3.665
 5958SOL     OW18162   4.835   5.500   2.099
 5958SOL    HW118163   4.775   5.438   2.149
 5958SOL    HW218164   4.866   5.456   2.014
 5959SOL     OW18165   3.926   4.009   3.360
 5959SOL    HW118166   3.846   4.069   3.347
 5959SOL    HW218167   3.916   3.960   3.446
 5960SOL     OW18168   5.356   5.101   1.943
 5960SOL    HW118169   5.324   5.195   1.933
 5960SOL    HW218170   5.280   5.038   1.931
 5961SOL     OW18171   4.188   5.467   2.185
 5961SOL    HW118172   4.221   5.506   2.271
 5961SOL    HW218173   4.264   5.460   2.120
 5962SOL     OW18174   5.124   3.831   2.288
 5962SOL    HW118175   5.100   3.794   2.198
 5962SOL    HW218176   5.223   3.847   2.292
 5963SOL     OW18177   3.973   5.509   3.103
 5963SOL    HW118178   4.030   5.444   3.153
 5963SOL    HW218179   3.957   5.476   3.010
 5964SOL     OW18180   4.664   5.422   2.766
 5964SOL    HW118181   4.744   5.365   2.787
 5964SOL    HW218182   4.615   5.382   2.689
 5965SOL     OW18183   4.106   4.424   2.342
 5965SOL    HW118184   4.151   4.334   2.339
 5965SOL    HW218185   4.012   4.413   2.375
 5966SOL     OW18186   5.271   3.946   3.591
 5966SOL    HW118187   5.266   3.983   3.683
 5966SOL    HW218188   5.199   3.877   3.579
 5967SOL     OW18189   4.338   3.846   1.979
 5967SOL    HW118190   4.436   3.824   1.986
 5967SOL    HW218191   4.307   3.829   1.886
 5968SOL     OW18192   4.505   3.988   3.611
 5968SOL    HW118193   4.572   3.927   3.654
 5968SOL    HW218194   4.432   4.007   3.676
 5969SOL     OW18195   4.612   5.238   3.057
 5969SOL    HW118196   4.589   5.213   2.963
 5969SOL    HW218197   4.673   5.169   3.096
 5970SOL     OW18198   5.075   4.314   3.295
 5970SOL    HW118199   5.103   4.271   3.380
 5970SOL    HW218200   5.100   4.410   3.296
 5971SOL     OW18201   4.527   5.126   2.786
 5971SOL    HW118202   4.617   5.140   2.744
 5971SOL    HW218203   4.456   5.128   2.715
 5972SOL     OW18204   5.158   4.912   1.903
 5972SOL    HW118205   5.190   4.836   1.960
 5972SOL    HW218206   5.066   4.939   1.933
 5973SOL     OW18207   4.659   3.960   2.342
 5973SOL    HW118208   4.611   4.001   2.264
 5973SOL    HW218209   4.758   3.958   2.323
 5974SOL     OW18210   4.800   4.407   3.326
 5974SOL    HW118211   4.720   4.346   3.329
 5974SOL    HW218212   4.881   4.354   3.302
 5975SOL     OW18213   4.951   5.294   2.655
 5975SOL    HW118214   4.972   5.368   2.590
 5975SOL    HW218215   5.019   5.294   2.728
 5976SOL     OW18216   4.183   4.876   2.603
 5976SOL    HW118217   4.112   4.849   2.668
 5976SOL    HW218218   4.157   4.848   2.510
 5977SOL     OW18219   4.995   5.521   2.453
 5977SOL    HW118220   5.039   5.585   2.389
 5977SOL    HW218221   4.945   5.573   2.523
 5978SOL     OW18222   4.756   4.273   1.878
 5978SOL    HW118223   4.715   4.355   1.839
 5978SOL    HW218224   4.820   4.299   1.951
 5979SOL     OW18225   3.802   4.280   3.248
 5979SOL    HW118226   3.894   4.279   3.207
 5979SOL    HW218227   3.796   4.354   3.315
 5980SOL     OW18228   4.285   3.946   3.009
 5980SOL    HW118229   4.323   3.862   3.046
 5980SOL    HW218230   4.197   3.965   3.053
 5981SOL     OW18231   5.153   4.897   2.729
 5981SOL    HW118232   5.098   4.813   2.722
 5981SOL    HW218233   5.179   4.926   2.637
 5982SOL     OW18234   5.190   4.314   2.854
 5982SOL    HW118235   5.160   4.219   2.861
 5982SOL    HW218236   5.263   4.330   2.920
 5983SOL     OW18237   5.581   4.557   2.239
 5983SOL    HW118238   5.623   4.493   2.303
 5983SOL    HW218239   5.543   4.506   2.161
 5984SOL     OW18240   4.212   5.109   2.036
 5984SOL    HW118241   4.125   5.094   2.083
 5984SOL    HW218242   4.195   5.135   1.941
 5985SOL     OW18243   5.388   5.004   2.519
 5985SOL    HW118244   5.487   5.012   2.533
 5985SOL    HW218245   5.343   5.088   2.550
 5986SOL     OW18246   5.114   4.299   1.940
 5986SOL    HW118247   5.060   4.278   2.021
 5986SOL    HW218248   5.205   4.258   1.949
 5987SOL     OW18249   5.478   4.947   3.450
 5987SOL    HW118250   5.569   4.908   3.437
 5987SOL    HW218251   5.486   5.043   3.474
 5988SOL     OW18252   4.788   5.071   3.202
 5988SOL    HW118253   4.708   5.048   3.257
 5988SOL    HW218254   4.871   5.045   3.251
 5989SOL     OW18255   5.316   5.353   3.487
 5989SOL    HW118256   5.343   5.387   3.397
 5989SOL    HW218257   5.395   5.315   3.533
 5990SOL     OW18258   4.835   4.919   2.962
 5990SOL    HW118259   4.795   4.963   3.043
 5990SOL    HW218260   4.794   4.956   2.879
 5991SOL     OW18261   5.362   4.823   2.941
 5991SOL    HW118262   5.367   4.904   3.000
 5991SOL    HW218263   5.276   4.825   2.890
 5992SOL     OW18264   4.639   3.813   3.264
 5992SOL    HW118265   4.664   3.793   3.169
 5992SOL    HW218266   4.711   3.869   3.306
 5993SOL     OW18267   4.704   4.840   3.581
 5993SOL    HW118268   4.605   4.846   3.591
 5993SOL    HW218269   4.727   4.760   3.525
 5994SOL     OW18270   4.429   4.774   2.230
 5994SOL    HW118271   4.415   4.781   2.329
 5994SOL    HW218272   4.513   4.723   2.212
 5995SOL     OW18273   4.134   4.537   3.113
 5995SOL    HW118274   4.220   4.549   3.163
 5995SOL    HW218275   4.092   4.450   3.140
 5996SOL     OW18276   4.998   4.110   3.124
 5996SOL    HW118277   5.019   4.184   3.188
 5996SOL    HW218278   4.909   4.127   3.081
 5997SOL     OW18279   3.788   5.288   3.193
 5997SOL    HW118280   3.742   5.370   3.159
 5997SOL    HW218281   3.886   5.307   3.202
 5998SOL     OW18282   4.091   4.824   2.363
 5998SOL    HW118283   4.084   4.907   2.307
 5998SOL    HW218284   4.095   4.744   2.303
 5999SOL     OW18285   4.290   4.261   2.727
 5999SOL    HW118286   4.302   4.327   2.653
 5999SOL    HW218287   4.336   4.295   2.810
 6000SOL     OW18288   4.976   5.072   2.250
 6000SOL    HW118289   5.026   5.149   2.290
 6000SOL    HW218290   4.881   5.074   2.282
 6001SOL     OW18291   4.996   5.169   3.004
 6001SOL    HW118292   5.043   5.182   3.091
 6001SOL    HW218293   4.930   5.095   3.013
 6002SOL     OW18294   5.306   4.363   2.334
 6002SOL    HW118295   5.275   4.424   2.407
 6002SOL    HW218296   5.356   4.415   2.265
 6003SOL     OW18297   4.078   5.234   3.191
 6003SOL    HW118298   4.057   5.190   3.104
 6003SOL    HW218299   4.175   5.260   3.194
 6004SOL     OW18300   4.126   4.475   3.460
 6004SOL    HW118301   4.194   4.530   3.413
 6004SOL    HW218302   4.166   4.387   3.487
 6005SOL     OW18303   5.311   4.503   3.532
 6005SOL    HW118304   5.219   4.541   3.527
 6005SOL    HW218305   5.371   4.550   3.467
 6006SOL     OW18306   4.737   3.829   3.632
 6006SOL    HW118307   4.743   3.914   3.580
 6006SOL    HW218308   4.769   3.753   3.575
 6007SOL     OW18309   4.228   3.774   3.602
 6007SOL    HW118310   4.186   3.717   3.532
 6007SOL    HW218311   4.162   3.843   3.634
 6008SOL     OW18312   4.297   4.594   2.891
 6008SOL    HW118313   4.341   4.683   2.882
 6008SOL    HW218314   4.234   4.594   2.968
 6009SOL     OW18315   5.084   4.586   2.907
 6009SOL    HW118316   5.009   4.586   2.841
 6009SOL    HW218317   5.121   4.494   2.916
 6010SOL     OW18318   4.933   4.249   2.137
 6010SOL    HW118319   4.946   4.165   2.191
 6010SOL    HW218320   4.904   4.323   2.197
 6011SOL     OW18321   4.031   3.937   3.093
 6011SOL    HW118322   4.008   3.974   3.183
 6011SOL    HW218323   4.001   3.842   3.087
 6012SOL     OW18324   3.761   5.034   3.144
 6012SOL    HW118325   3.814   4.985   3.212
 6012SOL    HW218326   3.783   5.132   3.149
 6013SOL     OW18327   4.456   4.358   2.926
 6013SOL    HW118328   4.515   4.332   2.850
 6013SOL    HW218329   4.428   4.454   2.915
 6014SOL     OW18330   5.452   4.659   3.716
 6014SOL    HW118331   5.406   4.652   3.627
 6014SOL    HW218332   5.390   4.703   3.782
 6015SOL     OW18333   5.346   4.091   2.236
 6015SOL    HW118334   5.348   4.015   2.300
 6015SOL    HW218335   5.298   4.168   2.276
 6016SOL     OW18336   4.747   4.490   2.828
 6016SOL    HW118337   4.762   4.511   2.924
 6016SOL    HW218338   4.717   4.395   2.819
 6017SOL     OW18339   4.704   5.297   3.562
 6017SOL    HW118340   4.684   5.341   3.474
 6017SOL    HW218341   4.743   5.206   3.546
 6018SOL     OW18342   5.583   5.242   3.467
 6018SOL    HW118343   5.597   5.269   3.372
 6018SOL    HW218344   5.666   5.264   3.520
 6019SOL     OW18345   4.074   4.622   3.666
 6019SOL    HW118346   4.150   4.666   3.714
 6019SOL    HW218347   4.109   4.575   3.584
 6020SOL     OW18348   5.264   3.998   1.987
 6020SOL    HW118349   5.203   3.923   2.010
 6020SOL    HW218350   5.286   4.050   2.070
 6021SOL     OW18351   5.027   4.562   1.904
 6021SOL    HW118352   5.061   4.469   1.919
 6021SOL    HW218353   5.045   4.589   1.809
 6022SOL     OW18354   4.792   5.057   2.711
 6022SOL    HW118355   4.799   4.973   2.656
 6022SOL    HW218356   4.854   5.126   2.675
 6023SOL     OW18357   4.043   4.534   2.811
 6023SOL    HW118358   4.136   4.570   2.816
 6023SOL    HW218359   4.037   4.449   2.863
 6024SOL     OW18360   4.063   4.233   2.868
 6024SOL    HW118361   4.011   4.150   2.851
 6024SOL    HW218362   4.140   4.238   2.804
 6025SOL     OW18363   4.862   4.104   3.540
 6025SOL    HW118364   4.817   4.167   3.604
 6025SOL    HW218365   4.955   4.135   3.523
 6026SOL     OW18366   4.884   3.931   3.339
 6026SOL    HW118367   4.884   3.995   3.416
 6026SOL    HW218368   4.912   3.979   3.256
 6027SOL     OW18369   3.732   5.050   2.062
 6027SOL    HW118370   3.639   5.071   2.031
 6027SOL    HW218371   3.742   4.951   2.075
 6028SOL     OW18372   3.812   5.525   2.789
 6028SOL    HW118373   3.770   5.439   2.762
 6028SOL    HW218374   3.906   5.528   2.755
 6029SOL     OW18375   4.228   5.292   2.772
 6029SOL    HW118376   4.294   5.366   2.781
 6029SOL    HW218377   4.272   5.213   2.730
 6030SOL     OW18378   4.726   4.520   3.100
 6030SOL    HW118379   4.767   4.488   3.186
 6030SOL    HW218380   4.630   4.493   3.097
 6031SOL     OW18381   3.764   4.268   2.976
 6031SOL    HW118382   3.849   4.235   2.935
 6031SOL    HW218383   3.777   4.283   3.074
 6032SOL     OW18384   3.913   4.244   3.584
 6032SOL    HW118385   3.972   4.204   3.514
 6032SOL    HW218386   3.855   4.315   3.543
 6033SOL     OW18387   5.093   4.674   3.522
 6033SOL    HW118388   5.132   4.763   3.542
 6033SOL    HW218389   5.103   4.654   3.425
 6034SOL     OW18390   4.539   4.296   2.187
 6034SOL    HW118391   4.546   4.207   2.141
 6034SOL    HW218392   4.445   4.330   2.179
 6035SOL     OW18393   5.381   4.328   3.068
 6035SOL    HW118394   5.343   4.259   3.130
 6035SOL    HW218395   5.463   4.292   3.024
 6036SOL     OW18396   3.976   5.288   3.606
 6036SOL    HW118397   3.946   5.345   3.682
 6036SOL    HW218398   3.969   5.191   3.632
 6037SOL     OW18399   4.395   4.188   3.131
 6037SOL    HW118400   4.361   4.099   3.101
 6037SOL    HW218401   4.421   4.242   3.051
 6038SOL     OW18402   4.654   5.402   3.327
 6038SOL    HW118403   4.630   5.384   3.232
 6038SOL    HW218404   4.684   5.496   3.337
 6039SOL     OW18405   4.197   4.224   2.053
 6039SOL    HW118406   4.258   4.304   2.057
 6039SOL    HW218407   4.102   4.255   2.060
 6040SOL     OW18408   3.883   4.861   3.328
 6040SOL    HW118409   3.905   4.800   3.404
 6040SOL    HW218410   3.893   4.812   3.242
 6041SOL     OW18411   5.071   4.783   3.096
 6041SOL    HW118412   5.095   4.720   3.022
 6041SOL    HW218413   4.981   4.823   3.078
 6042SOL     OW18414   5.026   4.579   2.171
 6042SOL    HW118415   4.940   4.548   2.213
 6042SOL    HW218416   5.022   4.565   2.072
 6043SOL     OW18417   5.483   5.471   3.016
 6043SOL    HW118418   5.544   5.501   2.943
 6043SOL    HW218419   5.445   5.382   2.994
 6044SOL     OW18420   4.976   5.455   2.990
 6044SOL    HW118421   5.060   5.460   2.936
 6044SOL    HW218422   4.953   5.359   3.008
 6045SOL     OW18423   3.807   4.982   2.884
 6045SOL    HW118424   3.802   4.981   2.984
 6045SOL    HW218425   3.724   4.941   2.846
 6046SOL     OW18426   4.412   5.386   3.578
 6046SOL    HW118427   4.356   5.467   3.587
 6046SOL    HW218428   4.464   5.390   3.492
 6047SOL     OW18429   5.450   3.859   2.385
 6047SOL    HW118430   5.523   3.842   2.318
 6047SOL    HW218431   5.419   3.772   2.423
 6048SOL     OW18432   5.112   5.297   2.339
 6048SOL    HW118433   5.179   5.309   2.265
 6048SOL    HW218434   5.072   5.386   2.362
 6049SOL     OW18435   3.854   5.518   3.713
 6049SOL    HW118436   3.813   5.444   3.766
 6049SOL    HW218437   3.918   5.569   3.771
 6050SOL     OW18438   5.004   4.651   2.534
 6050SOL    HW118439   5.064   4.570   2.536
 6050SOL    HW218440   5.044   4.720   2.474
 6051SOL     OW18441   4.554   4.997   3.284
 6051SOL    HW118442   4.549   5.030   3.379
 6051SOL    HW218443   4.468   5.016   3.238
 6052SOL     OW18444   4.396   5.340   2.016
 6052SOL    HW118445   4.405   5.350   1.917
 6052SOL    HW218446   4.356   5.251   2.037
 6053SOL     OW18447   5.374   5.444   3.256
 6053SOL    HW118448   5.427   5.454   3.172
 6053SOL    HW218449   5.347   5.534   3.290
 6054SOL     OW18450   5.565   3.899   2.825
 6054SOL    HW118451   5.604   3.814   2.789
 6054SOL    HW218452   5.467   3.901   2.806
 6055SOL     OW18453   3.987   4.050   2.582
 6055SOL    HW118454   3.908   4.101   2.548
 6055SOL    HW218455   3.978   4.035   2.680
 6056SOL     OW18456   4.918   5.336   1.893
 6056SOL    HW118457   4.924   5.243   1.930
 6056SOL    HW218458   4.859   5.336   1.813
 6057SOL     OW18459   4.546   4.726   3.234
 6057SOL    HW118460   4.586   4.725   3.142
 6057SOL    HW218461   4.556   4.818   3.274
 6058SOL     OW18462   4.640   4.634   2.153
 6058SOL    HW118463   4.703   4.672   2.085
 6058SOL    HW218464   4.680   4.551   2.192
 6059SOL     OW18465   5.228   5.331   1.906
 6059SOL    HW118466   5.136   5.368   1.913
 6059SOL    HW218467   5.266   5.351   1.816
 6060SOL     OW18468   4.096   5.012   3.352
 6060SOL    HW118469   4.083   5.105   3.318
 6060SOL    HW218470   4.012   4.960   3.339
 6061SOL     OW18471   5.338   5.016   3.151
 6061SOL    HW118472   5.398   5.019   3.231
 6061SOL    HW218473   5.263   5.080   3.164
 6062SOL     OW18474   4.763   4.822   2.558
 6062SOL    HW118475   4.693   4.775   2.612
 6062SOL    HW218476   4.822   4.754   2.515
 6063SOL     OW18477   4.738   3.960   2.833
 6063SOL    HW118478   4.730   3.924   2.740
 6063SOL    HW218479   4.736   3.884   2.898
 6064SOL     OW18480   4.314   5.211   2.353
 6064SOL    HW118481   4.356   5.153   2.283
 6064SOL    HW218482   4.270   5.290   2.309
 6065SOL     OW18483   5.433   4.109   3.243
 6065SOL    HW118484   5.506   4.178   3.247
 6065SOL    HW218485   5.461   4.034   3.184
 6066SOL     OW18486   3.979   5.072   2.152
 6066SOL    HW118487   3.883   5.073   2.125
 6066SOL    HW218488   3.991   5.125   2.236
 6067SOL     OW18489   3.829   4.737   3.588
 6067SOL    HW118490   3.752   4.704   3.642
 6067SOL    HW218491   3.914   4.707   3.630
 6068SOL     OW18492   4.396   3.927   3.351
 6068SOL    HW118493   4.486   3.911   3.311
 6068SOL    HW218494   4.404   3.932   3.450
 6069SOL     OW18495   3.799   4.069   1.895
 6069SOL    HW118496   3.707   4.041   1.866
 6069SOL    HW218497   3.830   4.146   1.839
 6070SOL     OW18498   5.164   4.580   3.260
 6070SOL    HW118499   5.107   4.632   3.197
 6070SOL    HW218500   5.260   4.592   3.236
 6071SOL     OW18501   4.907   5.059   1.981
 6071SOL    HW118502   4.808   5.048   1.983
 6071SOL    HW218503   4.941   5.074   2.074
 6072SOL     OW18504   4.337   4.566   3.293
 6072SOL    HW118505   4.393   4.647   3.276
 6072SOL    HW218506   4.396   4.486   3.296
 6073SOL     OW18507   5.217   5.491   2.821
 6073SOL    HW118508   5.250   5.555   2.752
 6073SOL    HW218509   5.283   5.485   2.896
 6074SOL     OW18510   4.440   4.289   3.570
 6074SOL    HW118511   4.459   4.354   3.644
 6074SOL    HW218512   4.500   4.209   3.579
 6075SOL     OW18513   5.174   4.944   3.495
 6075SOL    HW118514   5.165   4.934   3.594
 6075SOL    HW218515   5.270   4.937   3.469
 6076SOL     OW18516   4.114   5.465   3.422
 6076SOL    HW118517   4.023   5.506   3.420
 6076SOL    HW218518   4.107   5.371   3.454
 6077SOL     OW18519   5.398   4.607   3.116
 6077SOL    HW118520   5.371   4.518   3.079
 6077SOL    HW218521   5.399   4.675   3.043
 6078SOL     OW18522   4.949   4.049   2.311
 6078SOL    HW118523   5.014   3.975   2.300
 6078SOL    HW218524   4.969   4.099   2.395
 6079SOL     OW18525   4.318   4.469   2.514
 6079SOL    HW118526   4.368   4.554   2.495
 6079SOL    HW218527   4.230   4.471   2.466
 6080SOL     OW18528   5.501   4.066   3.504
 6080SOL    HW118529   5.484   4.097   3.410
 6080SOL    HW218530   5.417   4.029   3.542
 6081SOL     OW18531   5.454   4.658   3.379
 6081SOL    HW118532   5.492   4.749   3.394
 6081SOL    HW218533   5.446   4.641   3.280
 6082SOL     OW18534   4.583   5.098   1.878
 6082SOL    HW118535   4.537   5.113   1.966
 6082SOL    HW218536   4.627   5.183   1.848
 6083SOL     OW18537   4.385   5.514   2.815
 6083SOL    HW118538   4.339   5.602   2.802
 6083SOL    HW218539   4.484   5.526   2.808
 6084SOL     OW18540   4.583   4.680   2.723
 6084SOL    HW118541   4.637   4.611   2.771
 6084SOL    HW218542   4.551   4.749   2.789
 6085SOL     OW18543   4.807   4.708   1.949
 6085SOL    HW118544   4.784   4.761   1.867
 6085SOL    HW218545   4.888   4.652   1.930
 6086SOL     OW18546   5.585   5.293   2.713
 6086SOL    HW118547   5.514   5.281   2.643
 6086SOL    HW218548   5.586   5.214   2.773
 6087SOL     OW18549   3.945   5.038   3.706
 6087SOL    HW118550   3.880   4.965   3.685
 6087SOL    HW218551   3.949   5.052   3.804
 6088SOL     OW18552   3.803   4.964   2.515
 6088SOL    HW118553   3.802   4.917   2.603
 6088SOL    HW218554   3.885   4.936   2.464
 6089SOL     OW18555   4.396   5.115   3.486
 6089SOL    HW118556   4.318   5.065   3.524
 6089SOL    HW218557   4.393   5.210   3.517
 6090SOL     OW18558   5.548   3.916   3.089
 6090SOL    HW118559   5.544   3.826   3.133
 6090SOL    HW218560   5.551   3.905   2.990
 6091SOL     OW18561   5.429   5.211   2.966
 6091SOL    HW118562   5.336   5.186   2.939
 6091SOL    HW218563   5.455   5.161   3.048
 6092SOL     OW18564   4.041   4.271   3.142
 6092SOL    HW118565   4.079   4.212   3.214
 6092SOL    HW218566   4.081   4.245   3.054
 6093SOL     OW18567   4.536   5.310   2.549
 6093SOL    HW118568   4.568   5.320   2.455
 6093SOL    HW218569   4.457   5.248   2.551
 6094SOL     OW18570   5.148   3.938   2.974
 6094SOL    HW118571   5.200   3.873   3.029
 6094SOL    HW218572   5.099   4.001   3.035
 6095SOL     OW18573   4.725   3.758   3.016
 6095SOL    HW118574   4.662   3.686   2.985
 6095SOL    HW218575   4.818   3.722   3.016
 6096SOL     OW18576   4.494   5.054   2.163
 6096SOL    HW118577   4.448   4.967   2.180
 6096SOL    HW218578   4.585   5.051   2.204
 6097SOL     OW18579   4.342   5.291   3.146
 6097SOL    HW118580   4.337   5.373   3.203
 6097SOL    HW218581   4.431   5.288   3.101
 6098SOL     OW18582   5.076   3.776   2.030
 6098SOL    HW118583   5.111   3.735   1.946
 6098SOL    HW218584   4.986   3.738   2.050
 6099SOL     OW18585   5.024   4.177   2.553
 6099SOL    HW118586   4.965   4.257   2.557
 6099SOL    HW218587   5.039   4.142   2.646
 6100SOL     OW18588   5.317   3.945   2.744
 6100SOL    HW118589   5.233   3.944   2.798
 6100SOL    HW218590   5.319   4.028   2.688
 6101SOL     OW18591   3.763   4.801   2.162
 6101SOL    HW118592   3.862   4.790   2.153
 6101SOL    HW218593   3.723   4.715   2.194
 6102SOL     OW18594   4.599   5.370   2.199
 6102SOL    HW118595   4.522   5.335   2.145
 6102SOL    HW218596   4.567   5.441   2.261
 6103SOL     OW18597   3.954   4.352   3.837
 6103SOL    HW118598   3.861   4.350   3.874
 6103SOL    HW218599   3.955   4.313   3.745
 6104SOL     OW18600   3.949   3.999   4.720
 6104SOL    HW118601   3.984   3.982   4.812
 6104SOL    HW218602   3.861   3.954   4.708
 6105SOL     OW18603   3.743   4.092   4.371
 6105SOL    HW118604   3.661   4.135   4.410
 6105SOL    HW218605   3.715   4.019   4.308
 6106SOL     OW18606   4.293   4.999   4.889
 6106SOL    HW118607   4.200   4.992   4.852
 6106SOL    HW218608   4.304   5.088   4.933
 6107SOL     OW18609   5.279   5.235   4.427
 6107SOL    HW118610   5.222   5.219   4.508
 6107SOL    HW218611   5.220   5.245   4.347
 6108SOL     OW18612   4.859   4.427   4.441
 6108SOL    HW118613   4.916   4.505   4.416
 6108SOL    HW218614   4.799   4.453   4.517
 6109SOL     OW18615   5.479   4.331   3.955
 6109SOL    HW118616   5.467   4.318   3.856
 6109SOL    HW218617   5.449   4.250   4.004
 6110SOL     OW18618   4.492   4.868   4.747
 6110SOL    HW118619   4.414   4.885   4.807
 6110SOL    HW218620   4.526   4.955   4.711
 6111SOL     OW18621   4.574   4.522   5.547
 6111SOL    HW118622   4.570   4.598   5.612
 6111SOL    HW218623   4.596   4.558   5.456
 6112SOL     OW18624   4.409   4.736   4.389
 6112SOL    HW118625   4.478   4.720   4.459
 6112SOL    HW218626   4.336   4.793   4.427
 6113SOL     OW18627   4.410   4.885   5.527
 6113SOL    HW118628   4.470   4.964   5.541
 6113SOL    HW218629   4.324   4.916   5.486
 6114SOL     OW18630   4.059   5.159   4.785
 6114SOL    HW118631   3.981   5.128   4.732
 6114SOL    HW218632   4.117   5.217   4.728
 6115SOL     OW18633   5.184   5.229   5.063
 6115SOL    HW118634   5.208   5.323   5.089
 6115SOL    HW218635   5.168   5.175   5.145
 6116SOL     OW18636   4.162   4.116   5.223
 6116SOL    HW118637   4.244   4.060   5.232
 6116SOL    HW218638   4.081   4.058   5.227
 6117SOL     OW18639   5.327   4.171   4.461
 6117SOL    HW118640   5.253   4.217   4.411
 6117SOL    HW218641   5.378   4.239   4.514
 6118SOL     OW18642   3.955   5.437   4.207
 6118SOL    HW118643   3.989   5.514   4.261
 6118SOL    HW218644   3.999   5.437   4.117
 6119SOL     OW18645   4.851   5.065   5.414
 6119SOL    HW118646   4.898   5.065   5.502
 6119SOL    HW218647   4.803   4.978   5.403
 6120SOL     OW18648   3.954   5.158   4.262
 6120SOL    HW118649   3.928   5.254   4.262
 6120SOL    HW218650   3.883   5.104   4.307
 6121SOL     OW18651   3.964   4.815   4.610
 6121SOL    HW118652   3.978   4.731   4.662
 6121SOL    HW218653   3.909   4.879   4.665
 6122SOL     OW18654   4.344   5.510   5.163
 6122SOL    HW118655   4.252   5.493   5.198
 6122SOL    HW218656   4.372   5.602   5.189
 6123SOL     OW18657   4.330   4.688   3.847
 6123SOL    HW118658   4.337   4.772   3.793
 6123SOL    HW218659   4.376   4.701   3.935
 6124SOL     OW18660   5.318   3.838   5.204
 6124SOL    HW118661   5.300   3.905   5.132
 6124SOL    HW218662   5.315   3.884   5.293
 6125SOL     OW18663   3.846   4.367   4.287
 6125SOL    HW118664   3.801   4.279   4.304
 6125SOL    HW218665   3.845   4.421   4.371
 6126SOL     OW18666   5.566   5.491   4.083
 6126SOL    HW118667   5.620   5.462   4.163
 6126SOL    HW218668   5.596   5.581   4.054
 6127SOL     OW18669   3.751   5.320   3.841
 6127SOL    HW118670   3.732   5.224   3.862
 6127SOL    HW218671   3.718   5.378   3.916
 6128SOL     OW18672   5.413   4.646   4.336
 6128SOL    HW118673   5.508   4.617   4.344
 6128SOL    HW218674   5.405   4.711   4.261
 6129SOL     OW18675   5.365   4.832   4.156
 6129SOL    HW118676   5.451   4.834   4.104
 6129SOL    HW218677   5.379   4.879   4.244
 6130SOL     OW18678   3.837   4.461   5.321
 6130SOL    HW118679   3.925   4.448   5.366
 6130SOL    HW218680   3.824   4.558   5.299
 6131SOL     OW18681   4.337   5.089   4.450
 6131SOL    HW118682   4.288   5.002   4.459
 6131SOL    HW218683   4.314   5.132   4.363
 6132SOL     OW18684   5.017   4.952   5.147
 6132SOL    HW118685   5.054   4.879   5.089
 6132SOL    HW218686   5.069   4.957   5.232
 6133SOL     OW18687   4.533   3.728   4.226
 6133SOL    HW118688   4.573   3.819   4.217
 6133SOL    HW218689   4.433   3.736   4.232
 6134SOL     OW18690   3.921   4.700   4.988
 6134SOL    HW118691   4.010   4.655   4.974
 6134SOL    HW218692   3.848   4.635   4.969
 6135SOL     OW18693   5.249   4.723   3.914
 6135SOL    HW118694   5.186   4.647   3.927
 6135SOL    HW218695   5.297   4.741   4.000
 6136SOL     OW18696   4.911   5.516   5.340
 6136SOL    HW118697   4.935   5.576   5.264
 6136SOL    HW218698   4.918   5.421   5.310
 6137SOL     OW18699   4.041   3.975   5.525
 6137SOL    HW118700   4.112   4.046   5.531
 6137SOL    HW218701   3.953   4.014   5.553
 6138SOL     OW18702   5.190   5.141   4.677
 6138SOL    HW118703   5.131   5.147   4.757
 6138SOL    HW218704   5.175   5.053   4.631
 6139SOL     OW18705   5.391   5.438   4.296
 6139SOL    HW118706   5.350   5.415   4.208
 6139SOL    HW218707   5.373   5.364   4.361
 6140SOL     OW18708   4.322   4.453   3.994
 6140SOL    HW118709   4.346   4.522   3.926
 6140SOL    HW218710   4.244   4.486   4.048
 6141SOL     OW18711   5.005   4.069   4.668
 6141SOL    HW118712   4.919   4.019   4.655
 6141SOL    HW218713   5.067   4.015   4.724
 6142SOL     OW18714   5.300   5.386   4.031
 6142SOL    HW118715   5.389   5.432   4.034
 6142SOL    HW218716   5.279   5.362   3.936
 6143SOL     OW18717   4.531   4.329   5.189
 6143SOL    HW118718   4.484   4.326   5.278
 6143SOL    HW218719   4.480   4.274   5.123
 6144SOL     OW18720   5.118   4.193   5.398
 6144SOL    HW118721   5.098   4.236   5.486
 6144SOL    HW218722   5.196   4.131   5.407
 6145SOL     OW18723   4.697   4.614   5.296
 6145SOL    HW118724   4.743   4.530   5.267
 6145SOL    HW218725   4.641   4.648   5.221
 6146SOL     OW18726   4.715   4.134   4.966
 6146SOL    HW118727   4.638   4.168   5.020
 6146SOL    HW218728   4.681   4.083   4.887
 6147SOL     OW18729   4.765   4.425   4.153
 6147SOL    HW118730   4.791   4.421   4.249
 6147SOL    HW218731   4.680   4.374   4.139
 6148SOL     OW18732   3.800   4.535   4.513
 6148SOL    HW118733   3.899   4.523   4.522
 6148SOL    HW218734   3.776   4.630   4.534
 6149SOL     OW18735   3.854   5.545   5.295
 6149SOL    HW118736   3.844   5.530   5.394
 6149SOL    HW218737   3.768   5.581   5.259
 6150SOL     OW18738   4.589   4.072   3.919
 6150SOL    HW118739   4.648   4.135   3.870
 6150SOL    HW218740   4.608   3.978   3.890
 6151SOL     OW18741   5.443   4.309   5.555
 6151SOL    HW118742   5.417   4.398   5.519
 6151SOL    HW218743   5.441   4.241   5.482
 6152SOL     OW18744   5.086   4.868   4.269
 6152SOL    HW118745   5.169   4.839   4.221
 6152SOL    HW218746   5.037   4.935   4.213
 6153SOL     OW18747   4.274   3.920   4.609
 6153SOL    HW118748   4.269   3.915   4.709
 6153SOL    HW218749   4.276   4.016   4.580
 6154SOL     OW18750   4.732   5.180   4.201
 6154SOL    HW118751   4.686   5.252   4.149
 6154SOL    HW218752   4.728   5.200   4.299
 6155SOL     OW18753   4.075   5.525   4.577
 6155SOL    HW118754   4.125   5.439   4.583
 6155SOL    HW218755   4.140   5.602   4.574
 6156SOL     OW18756   5.519   4.790   4.597
 6156SOL    HW118757   5.457   4.775   4.521
 6156SOL    HW218758   5.467   4.801   4.682
 6157SOL     OW18759   4.951   5.274   5.230
 6157SOL    HW118760   4.957   5.197   5.294
 6157SOL    HW218761   4.899   5.248   5.150
 6158SOL     OW18762   4.045   4.667   3.966
 6158SOL    HW118763   4.127   4.706   3.924
 6158SOL    HW218764   4.018   4.585   3.917
 6159SOL     OW18765   5.182   4.459   4.452
 6159SOL    HW118766   5.177   4.394   4.527
 6159SOL    HW218767   5.262   4.518   4.465
 6160SOL     OW18768   4.185   4.990   5.451
 6160SOL    HW118769   4.135   4.991   5.365
 6160SOL    HW218770   4.122   4.972   5.527
 6161SOL     OW18771   4.835   5.500   3.961
 6161SOL    HW118772   4.775   5.438   4.011
 6161SOL    HW218773   4.866   5.456   3.876
 6162SOL     OW18774   3.926   4.009   5.222
 6162SOL    HW118775   3.846   4.069   5.209
 6162SOL    HW218776   3.916   3.960   5.308
 6163SOL     OW18777   5.356   5.101   3.805
 6163SOL    HW118778   5.324   5.195   3.795
 6163SOL    HW218779   5.280   5.038   3.793
 6164SOL     OW18780   4.188   5.467   4.047
 6164SOL    HW118781   4.221   5.506   4.133
 6164SOL    HW218782   4.264   5.460   3.982
 6165SOL     OW18783   5.124   3.831   4.150
 6165SOL    HW118784   5.100   3.794   4.060
 6165SOL    HW218785   5.223   3.847   4.154
 6166SOL     OW18786   3.973   5.509   4.965
 6166SOL    HW118787   4.030   5.444   5.015
 6166SOL    HW218788   3.957   5.476   4.872
 6167SOL     OW18789   4.664   5.422   4.628
 6167SOL    HW118790   4.744   5.365   4.649
 6167SOL    HW218791   4.615   5.382   4.551
 6168SOL     OW18792   4.106   4.424   4.204
 6168SOL    HW118793   4.151   4.334   4.201
 6168SOL    HW218794   4.012   4.413   4.237
 6169SOL     OW18795   5.271   3.946   5.453
 6169SOL    HW118796   5.266   3.983   5.545
 6169SOL    HW218797   5.199   3.877   5.441
 6170SOL     OW18798   4.338   3.846   3.841
 6170SOL    HW118799   4.436   3.824   3.848
 6170SOL    HW218800   4.307   3.829   3.748
 6171SOL     OW18801   4.505   3.988   5.473
 6171SOL    HW118802   4.572   3.927   5.516
 6171SOL    HW218803   4.432   4.007   5.538
 6172SOL     OW18804   4.612   5.238   4.919
 6172SOL    HW118805   4.589   5.213   4.825
 6172SOL    HW218806   4.673   5.169   4.958
 6173SOL     OW18807   5.075   4.314   5.157
 6173SOL    HW118808   5.103   4.271   5.242
 6173SOL    HW218809   5.100   4.410   5.158
 6174SOL     OW18810   4.527   5.126   4.648
 6174SOL    HW118811   4.617   5.140   4.606
 6174SOL    HW218812   4.456   5.128   4.577
 6175SOL     OW18813   4.646   4.227   4.623
 6175SOL    HW118814   4.621   4.218   4.527
 6175SOL    HW218815   4.694   4.145   4.654
 6176SOL     OW18816   4.263   3.788   4.236
 6176SOL    HW118817   4.182   3.789   4.294
 6176SOL    HW218818   4.266   3.871   4.181
 6177SOL     OW18819   5.158   4.912   3.765
 6177SOL    HW118820   5.190   4.836   3.822
 6177SOL    HW218821   5.066   4.939   3.795
 6178SOL     OW18822   4.021   3.759   3.895
 6178SOL    HW118823   4.070   3.843   3.874
 6178SOL    HW218824   4.083   3.694   3.940
 6179SOL     OW18825   4.659   3.960   4.204
 6179SOL    HW118826   4.611   4.001   4.126
 6179SOL    HW218827   4.758   3.958   4.185
 6180SOL     OW18828   4.800   4.407   5.188
 6180SOL    HW118829   4.720   4.346   5.191
 6180SOL    HW218830   4.881   4.354   5.164
 6181SOL     OW18831   4.951   5.294   4.517
 6181SOL    HW118832   4.972   5.368   4.452
 6181SOL    HW218833   5.019   5.294   4.590
 6182SOL     OW18834   4.183   4.876   4.465
 6182SOL    HW118835   4.112   4.849   4.530
 6182SOL    HW218836   4.157   4.848   4.372
 6183SOL     OW18837   4.995   5.521   4.315
 6183SOL    HW118838   5.039   5.585   4.251
 6183SOL    HW218839   4.945   5.573   4.385
 6184SOL     OW18840   4.756   4.273   3.740
 6184SOL    HW118841   4.715   4.355   3.701
 6184SOL    HW218842   4.820   4.299   3.813
 6185SOL     OW18843   3.802   4.280   5.110
 6185SOL    HW118844   3.894   4.279   5.069
 6185SOL    HW218845   3.796   4.354   5.177
 6186SOL     OW18846   4.285   3.946   4.871
 6186SOL    HW118847   4.323   3.862   4.908
 6186SOL    HW218848   4.197   3.965   4.915
 6187SOL     OW18849   4.590   4.178   4.366
 6187SOL    HW118850   4.558   4.250   4.304
 6187SOL    HW218851   4.614   4.097   4.313
 6188SOL     OW18852   4.741   3.763   4.477
 6188SOL    HW118853   4.669   3.768   4.408
 6188SOL    HW218854   4.717   3.694   4.546
 6189SOL     OW18855   5.153   4.897   4.591
 6189SOL    HW118856   5.098   4.813   4.584
 6189SOL    HW218857   5.179   4.926   4.499
 6190SOL     OW18858   5.190   4.314   4.716
 6190SOL    HW118859   5.160   4.219   4.723
 6190SOL    HW218860   5.263   4.330   4.782
 6191SOL     OW18861   5.581   4.557   4.101
 6191SOL    HW118862   5.623   4.493   4.165
 6191SOL    HW218863   5.543   4.506   4.023
 6192SOL     OW18864   4.212   5.109   3.898
 6192SOL    HW118865   4.125   5.094   3.945
 6192SOL    HW218866   4.195   5.135   3.803
 6193SOL     OW18867   5.388   5.004   4.381
 6193SOL    HW118868   5.487   5.012   4.395
 6193SOL    HW218869   5.343   5.088   4.412
 6194SOL     OW18870   5.114   4.299   3.802
 6194SOL    HW118871   5.060   4.278   3.883
 6194SOL    HW218872   5.205   4.258   3.811
 6195SOL     OW18873   4.251   3.980   4.052
 6195SOL    HW118874   4.278   3.921   3.977
 6195SOL    HW218875   4.251   4.075   4.021
 6196SOL     OW18876   5.478   4.947   5.312
 6196SOL    HW118877   5.569   4.908   5.299
 6196SOL    HW218878   5.486   5.043   5.336
 6197SOL     OW18879   4.788   5.071   5.064
 6197SOL    HW118880   4.708   5.048   5.119
 6197SOL    HW218881   4.871   5.045   5.113
 6198SOL     OW18882   5.316   5.353   5.349
 6198SOL    HW118883   5.343   5.387   5.259
 6198SOL    HW218884   5.395   5.315   5.395
 6199SOL     OW18885   4.835   4.919   4.824
 6199SOL    HW118886   4.795   4.963   4.905
 6199SOL    HW218887   4.794   4.956   4.741
 6200SOL     OW18888   5.362   4.823   4.803
 6200SOL    HW118889   5.367   4.904   4.862
 6200SOL    HW218890   5.276   4.825   4.752
 6201SOL     OW18891   4.639   3.813   5.126
 6201SOL    HW118892   4.664   3.793   5.031
 6201SOL    HW218893   4.711   3.869   5.168
 6202SOL     OW18894   4.704   4.840   5.443
 6202SOL    HW118895   4.605   4.846   5.453
 6202SOL    HW218896   4.727   4.760   5.387
 6203SOL     OW18897   4.429   4.774   4.092
 6203SOL    HW118898   4.415   4.781   4.191
 6203SOL    HW218899   4.513   4.723   4.074
 6204SOL     OW18900   4.134   4.537   4.975
 6204SOL    HW118901   4.220   4.549   5.025
 6204SOL    HW218902   4.092   4.450   5.002
 6205SOL     OW18903   4.998   4.110   4.986
 6205SOL    HW118904   5.019   4.184   5.050
 6205SOL    HW218905   4.909   4.127   4.943
 6206SOL     OW18906   3.788   5.288   5.055
 6206SOL    HW118907   3.742   5.370   5.021
 6206SOL    HW218908   3.886   5.307   5.064
 6207SOL     OW18909   4.091   4.824   4.225
 6207SOL    HW118910   4.084   4.907   4.169
 6207SOL    HW218911   4.095   4.744   4.165
 6208SOL     OW18912   4.290   4.261   4.589
 6208SOL    HW118913   4.302   4.327   4.515
 6208SOL    HW218914   4.336   4.295   4.672
 6209SOL     OW18915   4.976   5.072   4.112
 6209SOL    HW118916   5.026   5.149   4.152
 6209SOL    HW218917   4.881   5.074   4.144
 6210SOL     OW18918   4.996   5.169   4.866
 6210SOL    HW118919   5.043   5.182   4.953
 6210SOL    HW218920   4.930   5.095   4.875
 6211SOL     OW18921   5.306   4.363   4.196
 6211SOL    HW118922   5.275   4.424   4.269
 6211SOL    HW218923   5.356   4.415   4.127
 6212SOL     OW18924   4.078   5.234   5.053
 6212SOL    HW118925   4.057   5.190   4.966
 6212SOL    HW218926   4.175   5.260   5.056
 6213SOL     OW18927   4.126   4.475   5.322
 6213SOL    HW118928   4.194   4.530   5.275
 6213SOL    HW218929   4.166   4.387   5.349
 6214SOL     OW18930   5.311   4.503   5.394
 6214SOL    HW118931   5.219   4.541   5.389
 6214SOL    HW218932   5.371   4.550   5.329
 6215SOL     OW18933   4.737   3.829   5.494
 6215SOL    HW118934   4.743   3.914   5.442
 6215SOL    HW218935   4.769   3.753   5.437
 6216SOL     OW18936   4.228   3.774   5.464
 6216SOL    HW118937   4.186   3.717   5.394
 6216SOL    HW218938   4.162   3.843   5.496
 6217SOL     OW18939   4.297   4.594   4.753
 6217SOL    HW118940   4.341   4.683   4.744
 6217SOL    HW218941   4.234   4.594   4.830
 6218SOL     OW18942   5.084   4.586   4.769
 6218SOL    HW118943   5.009   4.586   4.703
 6218SOL    HW218944   5.121   4.494   4.778
 6219SOL     OW18945   4.933   4.249   3.999
 6219SOL    HW118946   4.946   4.165   4.053
 6219SOL    HW218947   4.904   4.323   4.059
 6220SOL     OW18948   4.031   3.937   4.955
 6220SOL    HW118949   4.008   3.974   5.045
 6220SOL    HW218950   4.001   3.842   4.949
 6221SOL     OW18951   3.761   5.034   5.006
 6221SOL    HW118952   3.814   4.985   5.074
 6221SOL    HW218953   3.783   5.132   5.011
 6222SOL     OW18954   4.456   4.358   4.788
 6222SOL    HW118955   4.515   4.332   4.712
 6222SOL    HW218956   4.428   4.454   4.777
 6223SOL     OW18957   5.452   4.659   5.578
 6223SOL    HW118958   5.406   4.652   5.489
 6223SOL    HW218959   5.390   4.703   5.644
 6224SOL     OW18960   4.031   3.787   4.342
 6224SOL    HW118961   4.020   3.881   4.375
 6224SOL    HW218962   4.026   3.724   4.419
 6225SOL     OW18963   5.346   4.091   4.098
 6225SOL    HW118964   5.348   4.015   4.162
 6225SOL    HW218965   5.298   4.168   4.138
 6226SOL     OW18966   4.747   4.490   4.690
 6226SOL    HW118967   4.762   4.511   4.786
 6226SOL    HW218968   4.717   4.395   4.681
 6227SOL     OW18969   4.704   5.297   5.424
 6227SOL    HW118970   4.684   5.341   5.336
 6227SOL    HW218971   4.743   5.206   5.408
 6228SOL     OW18972   5.583   5.242   5.329
 6228SOL    HW118973   5.597   5.269   5.234
 6228SOL    HW218974   5.666   5.264   5.382
 6229SOL     OW18975   4.074   4.622   5.528
 6229SOL    HW118976   4.150   4.666   5.576
 6229SOL    HW218977   4.109   4.575   5.446
 6230SOL     OW18978   5.264   3.998   3.849
 6230SOL    HW118979   5.203   3.923   3.872
 6230SOL    HW218980   5.286   4.050   3.932
 6231SOL     OW18981   5.027   4.562   3.766
 6231SOL    HW118982   5.061   4.469   3.781
 6231SOL    HW218983   5.045   4.589   3.671
 6232SOL     OW18984   4.792   5.057   4.573
 6232SOL    HW118985   4.799   4.973   4.518
 6232SOL    HW218986   4.854   5.126   4.537
 6233SOL     OW18987   4.043   4.534   4.673
 6233SOL    HW118988   4.136   4.570   4.678
 6233SOL    HW218989   4.037   4.449   4.725
 6234SOL     OW18990   4.063   4.233   4.730
 6234SOL    HW118991   4.011   4.150   4.713
 6234SOL    HW218992   4.140   4.238   4.666
 6235SOL     OW18993   4.862   4.104   5.402
 6235SOL    HW118994   4.817   4.167   5.466
 6235SOL    HW218995   4.955   4.135   5.385
 6236SOL     OW18996   4.884   3.931   5.201
 6236SOL    HW118997   4.884   3.995   5.278
 6236SOL    HW218998   4.912   3.979   5.118
 6237SOL     OW18999   3.732   5.050   3.924
 6237SOL    HW119000   3.639   5.071   3.893
 6237SOL    HW219001   3.742   4.951   3.937
 6238SOL     OW19002   3.812   5.525   4.651
 6238SOL    HW119003   3.770   5.439   4.624
 6238SOL    HW219004   3.906   5.528   4.617
 6239SOL     OW19005   4.228   5.292   4.634
 6239SOL    HW119006   4.294   5.366   4.643
 6239SOL    HW219007   4.272   5.213   4.592
 6240SOL     OW19008   4.726   4.520   4.962
 6240SOL    HW119009   4.767   4.488   5.048
 6240SOL    HW219010   4.630   4.493   4.959
 6241SOL     OW19011   3.764   4.268   4.838
 6241SOL    HW119012   3.849   4.235   4.797
 6241SOL    HW219013   3.777   4.283   4.936
 6242SOL     OW19014   3.913   4.244   5.446
 6242SOL    HW119015   3.972   4.204   5.376
 6242SOL    HW219016   3.855   4.315   5.405
 6243SOL     OW19017   5.093   4.674   5.384
 6243SOL    HW119018   5.132   4.763   5.404
 6243SOL    HW219019   5.103   4.654   5.287
 6244SOL     OW19020   4.539   4.296   4.049
 6244SOL    HW119021   4.546   4.207   4.003
 6244SOL    HW219022   4.445   4.330   4.041
 6245SOL     OW19023   5.381   4.328   4.930
 6245SOL    HW119024   5.343   4.259   4.992
 6245SOL    HW219025   5.463   4.292   4.886
 6246SOL     OW19026   3.976   5.288   5.468
 6246SOL    HW119027   3.946   5.345   5.544
 6246SOL    HW219028   3.969   5.191   5.494
 6247SOL     OW19029   4.395   4.188   4.993
 6247SOL    HW119030   4.361   4.099   4.963
 6247SOL    HW219031   4.421   4.242   4.913
 6248SOL     OW19032   4.654   5.402   5.189
 6248SOL    HW119033   4.630   5.384   5.094
 6248SOL    HW219034   4.684   5.496   5.199
 6249SOL     OW19035   4.197   4.224   3.915
 6249SOL    HW119036   4.258   4.304   3.919
 6249SOL    HW219037   4.102   4.255   3.922
 6250SOL     OW19038   3.883   4.861   5.190
 6250SOL    HW119039   3.905   4.800   5.266
 6250SOL    HW219040   3.893   4.812   5.104
 6251SOL     OW19041   5.071   4.783   4.958
 6251SOL    HW119042   5.095   4.720   4.884
 6251SOL    HW219043   4.981   4.823   4.940
 6252SOL     OW19044   5.026   4.579   4.033
 6252SOL    HW119045   4.940   4.548   4.075
 6252SOL    HW219046   5.022   4.565   3.934
 6253SOL     OW19047   5.483   5.471   4.878
 6253SOL    HW119048   5.544   5.501   4.805
 6253SOL    HW219049   5.445   5.382   4.856
 6254SOL     OW19050   4.976   5.455   4.852
 6254SOL    HW119051   5.060   5.460   4.798
 6254SOL    HW219052   4.953   5.359   4.870
 6255SOL     OW19053   3.807   4.982   4.746
 6255SOL    HW119054   3.802   4.981   4.846
 6255SOL    HW219055   3.724   4.941   4.708
 6256SOL     OW19056   4.412   5.386   5.440
 6256SOL    HW119057   4.356   5.467   5.449
 6256SOL    HW219058   4.464   5.390   5.354
 6257SOL     OW19059   5.450   3.859   4.247
 6257SOL    HW119060   5.523   3.842   4.180
 6257SOL    HW219061   5.419   3.772   4.285
 6258SOL     OW19062   5.112   5.297   4.201
 6258SOL    HW119063   5.179   5.309   4.127
 6258SOL    HW219064   5.072   5.386   4.224
 6259SOL     OW19065   3.854   5.518   5.575
 6259SOL    HW119066   3.813   5.444   5.628
 6259SOL    HW219067   3.918   5.569   5.633
 6260SOL     OW19068   5.004   4.651   4.396
 6260SOL    HW119069   5.064   4.570   4.398
 6260SOL    HW219070   5.044   4.720   4.336
 6261SOL     OW19071   4.554   4.997   5.146
 6261SOL    HW119072   4.549   5.030   5.241
 6261SOL    HW219073   4.468   5.016   5.100
 6262SOL     OW19074   4.396   5.340   3.878
 6262SOL    HW119075   4.405   5.350   3.779
 6262SOL    HW219076   4.356   5.251   3.899
 6263SOL     OW19077   5.374   5.444   5.118
 6263SOL    HW119078   5.427   5.454   5.034
 6263SOL    HW219079   5.347   5.534   5.152
 6264SOL     OW19080   5.565   3.899   4.687
 6264SOL    HW119081   5.604   3.814   4.651
 6264SOL    HW219082   5.467   3.901   4.668
 6265SOL     OW19083   3.987   4.050   4.444
 6265SOL    HW119084   3.908   4.101   4.410
 6265SOL    HW219085   3.978   4.035   4.542
 6266SOL     OW19086   4.918   5.336   3.755
 6266SOL    HW119087   4.924   5.243   3.792
 6266SOL    HW219088   4.859   5.336   3.675
 6267SOL     OW19089   4.546   4.726   5.096
 6267SOL    HW119090   4.586   4.725   5.004
 6267SOL    HW219091   4.556   4.818   5.136
 6268SOL     OW19092   4.640   4.634   4.015
 6268SOL    HW119093   4.703   4.672   3.947
 6268SOL    HW219094   4.680   4.551   4.054
 6269SOL     OW19095   5.228   5.331   3.768
 6269SOL    HW119096   5.136   5.368   3.775
 6269SOL    HW219097   5.266   5.351   3.678
 6270SOL     OW19098   4.096   5.012   5.214
 6270SOL    HW119099   4.083   5.105   5.180
 6270SOL    HW219100   4.012   4.960   5.201
 6271SOL     OW19101   5.338   5.016   5.013
 6271SOL    HW119102   5.398   5.019   5.093
 6271SOL    HW219103   5.263   5.080   5.026
 6272SOL     OW19104   4.763   4.822   4.420
 6272SOL    HW119105   4.693   4.775   4.474
 6272SOL    HW219106   4.822   4.754   4.377
 6273SOL     OW19107   4.738   3.960   4.695
 6273SOL    HW119108   4.730   3.924   4.602
 6273SOL    HW219109   4.736   3.884   4.760
 6274SOL     OW19110   4.314   5.211   4.215
 6274SOL    HW119111   4.356   5.153   4.145
 6274SOL    HW219112   4.270   5.290   4.171
 6275SOL     OW19113   5.433   4.109   5.105
 6275SOL    HW119114   5.506   4.178   5.109
 6275SOL    HW219115   5.461   4.034   5.046
 6276SOL     OW19116   3.979   5.072   4.014
 6276SOL    HW119117   3.883   5.073   3.987
 6276SOL    HW219118   3.991   5.125   4.098
 6277SOL     OW19119   3.829   4.737   5.450
 6277SOL    HW119120   3.752   4.704   5.504
 6277SOL    HW219121   3.914   4.707   5.492
 6278SOL     OW19122   4.396   3.927   5.213
 6278SOL    HW119123   4.486   3.911   5.173
 6278SOL    HW219124   4.404   3.932   5.312
 6279SOL     OW19125   3.799   4.069   3.757
 6279SOL    HW119126   3.707   4.041   3.728
 6279SOL    HW219127   3.830   4.146   3.701
 6280SOL     OW19128   5.164   4.580   5.122
 6280SOL    HW119129   5.107   4.632   5.059
 6280SOL    HW219130   5.260   4.592   5.098
 6281SOL     OW19131   3.796   3.890   4.042
 6281SOL    HW119132   3.779   3.973   3.988
 6281SOL    HW219133   3.886   3.853   4.020
 6282SOL     OW19134   4.907   5.059   3.843
 6282SOL    HW119135   4.808   5.048   3.845
 6282SOL    HW219136   4.941   5.074   3.936
 6283SOL     OW19137   4.337   4.566   5.155
 6283SOL    HW119138   4.393   4.647   5.138
 6283SOL    HW219139   4.396   4.486   5.158
 6284SOL     OW19140   5.217   5.491   4.683
 6284SOL    HW119141   5.250   5.555   4.614
 6284SOL    HW219142   5.283   5.485   4.758
 6285SOL     OW19143   4.440   4.289   5.432
 6285SOL    HW119144   4.459   4.354   5.506
 6285SOL    HW219145   4.500   4.209   5.441
 6286SOL     OW19146   5.174   4.944   5.357
 6286SOL    HW119147   5.165   4.934   5.456
 6286SOL    HW219148   5.270   4.937   5.331
 6287SOL     OW19149   4.114   5.465   5.284
 6287SOL    HW119150   4.023   5.506   5.282
 6287SOL    HW219151   4.107   5.371   5.316
 6288SOL     OW19152   5.398   4.607   4.978
 6288SOL    HW119153   5.371   4.518   4.941
 6288SOL    HW219154   5.399   4.675   4.905
 6289SOL     OW19155   4.949   4.049   4.173
 6289SOL    HW119156   5.014   3.975   4.162
 6289SOL    HW219157   4.969   4.099   4.257
 6290SOL     OW19158   4.318   4.469   4.376
 6290SOL    HW119159   4.368   4.554   4.357
 6290SOL    HW219160   4.230   4.471   4.328
 6291SOL     OW19161   5.501   4.066   5.366
 6291SOL    HW119162   5.484   4.097   5.272
 6291SOL    HW219163   5.417   4.029   5.404
 6292SOL     OW19164   5.454   4.658   5.241
 6292SOL    HW119165   5.492   4.749   5.256
 6292SOL    HW219166   5.446   4.641   5.142
 6293SOL     OW19167   4.583   5.098   3.740
 6293SOL    HW119168   4.537   5.113   3.828
 6293SOL    HW219169   4.627   5.183   3.710
 6294SOL     OW19170   4.385   5.514   4.677
 6294SOL    HW119171   4.339   5.602   4.664
 6294SOL    HW219172   4.484   5.526   4.670
 6295SOL     OW19173   4.583   4.680   4.585
 6295SOL    HW119174   4.637   4.611   4.633
 6295SOL    HW219175   4.551   4.749   4.651
 6296SOL     OW19176   4.807   4.708   3.811
 6296SOL    HW119177   4.784   4.761   3.729
 6296SOL    HW219178   4.888   4.652   3.792
 6297SOL     OW19179   5.585   5.293   4.575
 6297SOL    HW119180   5.514   5.281   4.505
 6297SOL    HW219181   5.586   5.214   4.635
 6298SOL     OW19182   3.945   5.038   5.568
 6298SOL    HW119183   3.880   4.965   5.547
 6298SOL    HW219184   3.949   5.052   5.666
 6299SOL     OW19185   3.803   4.964   4.377
 6299SOL    HW119186   3.802   4.917   4.465
 6299SOL    HW219187   3.885   4.936   4.326
 6300SOL     OW19188   4.396   5.115   5.348
 6300SOL    HW119189   4.318   5.065   5.386
 6300SOL    HW219190   4.393   5.210   5.379
 6301SOL     OW19191   5.548   3.916   4.951
 6301SOL    HW119192   5.544   3.826   4.995
 6301SOL    HW219193   5.551   3.905   4.852
 6302SOL     OW19194   4.152   4.148   4.244
 6302SOL    HW119195   4.182   4.076   4.182
 6302SOL    HW219196   4.113   4.108   4.327
 6303SOL     OW19197   5.429   5.211   4.828
 6303SOL    HW119198   5.336   5.186   4.801
 6303SOL    HW219199   5.455   5.161   4.910
 6304SOL     OW19200   4.041   4.271   5.004
 6304SOL    HW119201   4.079   4.212   5.076
 6304SOL    HW219202   4.081   4.245   4.916
 6305SOL     OW19203   4.536   5.310   4.411
 6305SOL    HW119204   4.568   5.320   4.317
 6305SOL    HW219205   4.457   5.248   4.413
 6306SOL     OW19206   5.148   3.938   4.836
 6306SOL    HW119207   5.200   3.873   4.891
 6306SOL    HW219208   5.099   4.001   4.897
 6307SOL     OW19209   4.725   3.758   4.878
 6307SOL    HW119210   4.662   3.686   4.847
 6307SOL    HW219211   4.818   3.722   4.878
 6308SOL     OW19212   4.494   5.054   4.025
 6308SOL    HW119213   4.448   4.967   4.042
 6308SOL    HW219214   4.585   5.051   4.066
 6309SOL     OW19215   4.342   5.291   5.008
 6309SOL    HW119216   4.337   5.373   5.065
 6309SOL    HW219217   4.431   5.288   4.963
 6310SOL     OW19218   5.076   3.776   3.892
 6310SOL    HW119219   5.111   3.735   3.808
 6310SOL    HW219220   4.986   3.738   3.912
 6311SOL     OW19221   5.024   4.177   4.415
 6311SOL    HW119222   4.965   4.257   4.419
 6311SOL    HW219223   5.039   4.142   4.508
 6312SOL     OW19224   5.317   3.945   4.606
 6312SOL    HW119225   5.233   3.944   4.660
 6312SOL    HW219226   5.319   4.028   4.550
 6313SOL     OW19227   3.763   4.801   4.024
 6313SOL    HW119228   3.862   4.790   4.015
 6313SOL    HW219229   3.723   4.715   4.056
 6314SOL     OW19230   4.599   5.370   4.061
 6314SOL    HW119231   4.522   5.335   4.007
 6314SOL    HW219232   4.567   5.441   4.123
 6315SOL     OW19233   3.954   4.352   5.699
 6315SOL    HW119234   3.861   4.350   5.736
 6315SOL    HW219235   3.955   4.313   5.607
 6316SOL     OW19236   5.479   4.331   5.817
 6316SOL    HW119237   5.467   4.318   5.718
 6316SOL    HW219238   5.449   4.250   5.866
 6317SOL     OW19239   3.955   5.437   6.069
 6317SOL    HW119240   3.989   5.514   6.123
 6317SOL    HW219241   3.999   5.437   5.979
 6318SOL     OW19242   4.330   4.688   5.709
 6318SOL    HW119243   4.337   4.772   5.655
 6318SOL    HW219244   4.376   4.701   5.797
 6319SOL     OW19245   5.566   5.491   5.945
 6319SOL    HW119246   5.620   5.462   6.025
 6319SOL    HW219247   5.596   5.581   5.916
 6320SOL     OW19248   3.751   5.320   5.703
 6320SOL    HW119249   3.732   5.224   5.724
 6320SOL    HW219250   3.718   5.378   5.778
 6321SOL     OW19251   5.413   4.646   6.198
 6321SOL    HW119252   5.508   4.617   6.206
 6321SOL    HW219253   5.405   4.711   6.123
 6322SOL     OW19254   5.365   4.832   6.018
 6322SOL    HW119255   5.451   4.834   5.966
 6322SOL    HW219256   5.379   4.879   6.106
 6323SOL     OW19257   5.249   4.723   5.776
 6323SOL    HW119258   5.186   4.647   5.789
 6323SOL    HW219259   5.297   4.741   5.862
 6324SOL     OW19260   4.322   4.453   5.856
 6324SOL    HW119261   4.346   4.522   5.788
 6324SOL    HW219262   4.244   4.486   5.910
 6325SOL     OW19263   4.589   4.072   5.781
 6325SOL    HW119264   4.648   4.135   5.732
 6325SOL    HW219265   4.608   3.978   5.752
 6326SOL     OW19266   4.045   4.667   5.828
 6326SOL    HW119267   4.127   4.706   5.786
 6326SOL    HW219268   4.018   4.585   5.779
 6327SOL     OW19269   4.835   5.500   5.823
 6327SOL    HW119270   4.775   5.438   5.873
 6327SOL    HW219271   4.866   5.456   5.738
 6328SOL     OW19272   5.356   5.101   5.667
 6328SOL    HW119273   5.324   5.195   5.657
 6328SOL    HW219274   5.280   5.038   5.655
 6329SOL     OW19275   4.188   5.467   5.909
 6329SOL    HW119276   4.221   5.506   5.995
 6329SOL    HW219277   4.264   5.460   5.844
 6330SOL     OW19278   4.338   3.846   5.703
 6330SOL    HW119279   4.436   3.824   5.710
 6330SOL    HW219280   4.307   3.829   5.610
 6331SOL     OW19281   5.158   4.912   5.627
 6331SOL    HW119282   5.190   4.836   5.684
 6331SOL    HW219283   5.066   4.939   5.657
 6332SOL     OW19284   4.021   3.759   5.757
 6332SOL    HW119285   4.070   3.843   5.736
 6332SOL    HW219286   4.083   3.694   5.802
 6333SOL     OW19287   4.756   4.273   5.602
 6333SOL    HW119288   4.715   4.355   5.563
 6333SOL    HW219289   4.820   4.299   5.675
 6334SOL     OW19290   5.581   4.557   5.963
 6334SOL    HW119291   5.623   4.493   6.027
 6334SOL    HW219292   5.543   4.506   5.885
 6335SOL     OW19293   4.212   5.109   5.760
 6335SOL    HW119294   4.125   5.094   5.807
 6335SOL    HW219295   4.195   5.135   5.665
 6336SOL     OW19296   5.388   5.004   6.243
 6336SOL    HW119297   5.487   5.012   6.257
 6336SOL    HW219298   5.343   5.088   6.274
 6337SOL     OW19299   5.114   4.299   5.664
 6337SOL    HW119300   5.060   4.278   5.745
 6337SOL    HW219301   5.205   4.258   5.673
 6338SOL     OW19302   4.251   3.980   5.914
 6338SOL    HW119303   4.278   3.921   5.839
 6338SOL    HW219304   4.251   4.075   5.883
 6339SOL     OW19305   4.091   4.824   6.087
 6339SOL    HW119306   4.084   4.907   6.031
 6339SOL    HW219307   4.095   4.744   6.027
 6340SOL     OW19308   4.933   4.249   5.861
 6340SOL    HW119309   4.946   4.165   5.915
 6340SOL    HW219310   4.904   4.323   5.921
 6341SOL     OW19311   4.031   3.787   6.204
 6341SOL    HW119312   4.020   3.881   6.237
 6341SOL    HW219313   4.026   3.724   6.281
 6342SOL     OW19314   5.264   3.998   5.711
 6342SOL    HW119315   5.203   3.923   5.734
 6342SOL    HW219316   5.286   4.050   5.794
 6343SOL     OW19317   5.027   4.562   5.628
 6343SOL    HW119318   5.061   4.469   5.643
 6343SOL    HW219319   5.045   4.589   5.533
 6344SOL     OW19320   3.732   5.050   5.786
 6344SOL    HW119321   3.639   5.071   5.755
 6344SOL    HW219322   3.742   4.951   5.799
 6345SOL     OW19323   4.539   4.296   5.911
 6345SOL    HW119324   4.546   4.207   5.865
 6345SOL    HW219325   4.445   4.330   5.903
 6346SOL     OW19326   4.197   4.224   5.777
 6346SOL    HW119327   4.258   4.304   5.781
 6346SOL    HW219328   4.102   4.255   5.784
 6347SOL     OW19329   5.450   3.859   6.109
 6347SOL    HW119330   5.523   3.842   6.042
 6347SOL    HW219331   5.419   3.772   6.147
 6348SOL     OW19332   4.396   5.340   5.740
 6348SOL    HW119333   4.405   5.350   5.641
 6348SOL    HW219334   4.356   5.251   5.761
 6349SOL     OW19335   4.918   5.336   5.617
 6349SOL    HW119336   4.924   5.243   5.654
 6349SOL    HW219337   4.859   5.336   5.537
 6350SOL     OW19338   4.640   4.634   5.877
 6350SOL    HW119339   4.703   4.672   5.809
 6350SOL    HW219340   4.680   4.551   5.916
 6351SOL     OW19341   5.228   5.331   5.630
 6351SOL    HW119342   5.136   5.368   5.637
 6351SOL    HW219343   5.266   5.351   5.540
 6352SOL     OW19344   4.763   4.822   6.282
 6352SOL    HW119345   4.693   4.775   6.336
 6352SOL    HW219346   4.822   4.754   6.239
 6353SOL     OW19347   3.979   5.072   5.876
 6353SOL    HW119348   3.883   5.073   5.849
 6353SOL    HW219349   3.991   5.125   5.960
 6354SOL     OW19350   3.799   4.069   5.619
 6354SOL    HW119351   3.707   4.041   5.590
 6354SOL    HW219352   3.830   4.146   5.563
 6355SOL     OW19353   3.796   3.890   5.904
 6355SOL    HW119354   3.779   3.973   5.850
 6355SOL    HW219355   3.886   3.853   5.882
 6356SOL     OW19356   4.907   5.059   5.705
 6356SOL    HW119357   4.808   5.048   5.707
 6356SOL    HW219358   4.941   5.074   5.798
 6357SOL     OW19359   4.949   4.049   6.035
 6357SOL    HW119360   5.014   3.975   6.024
 6357SOL    HW219361   4.969   4.099   6.119
 6358SOL     OW19362   4.583   5.098   5.602
 6358SOL    HW119363   4.537   5.113   5.690
 6358SOL    HW219364   4.627   5.183   5.572
 6359SOL     OW19365   4.807   4.708   5.673
 6359SOL    HW119366   4.784   4.761   5.591
 6359SOL    HW219367   4.888   4.652   5.654
 6360SOL     OW19368   5.076   3.776   5.754
 6360SOL    HW119369   5.111   3.735   5.670
 6360SOL    HW219370   4.986   3.738   5.774
 6361SOL     OW19371   3.763   4.801   5.886
 6361SOL    HW119372   3.862   4.790   5.877
 6361SOL    HW219373   3.723   4.715   5.918
 6362SOL     OW19374   4.599   5.370   5.923
 6362SOL    HW119375   4.522   5.335   5.869
 6362SOL    HW219376   4.567   5.441   5.985
 6363SOL     OW19377   3.954   6.214   0.113
 6363SOL    HW119378   3.861   6.212   0.150
 6363SOL    HW219379   3.955   6.175   0.021
 6364SOL     OW19380   3.949   5.861   0.996
 6364SOL    HW119381   3.984   5.844   1.088
 6364SOL    HW219382   3.861   5.816   0.984
 6365SOL     OW19383   3.743   5.954   0.647
 6365SOL    HW119384   3.661   5.997   0.686
 6365SOL    HW219385   3.715   5.881   0.584
 6366SOL     OW19386   4.162   5.978   1.499
 6366SOL    HW119387   4.244   5.922   1.508
 6366SOL    HW219388   4.081   5.920   1.503
 6367SOL     OW19389   5.327   6.033   0.737
 6367SOL    HW119390   5.253   6.079   0.687
 6367SOL    HW219391   5.378   6.101   0.790
 6368SOL     OW19392   5.318   5.700   1.480
 6368SOL    HW119393   5.300   5.767   1.408
 6368SOL    HW219394   5.315   5.746   1.569
 6369SOL     OW19395   4.533   5.590   0.502
 6369SOL    HW119396   4.573   5.681   0.493
 6369SOL    HW219397   4.433   5.598   0.508
 6370SOL     OW19398   4.041   5.837   1.801
 6370SOL    HW119399   4.112   5.908   1.807
 6370SOL    HW219400   3.953   5.876   1.829
 6371SOL     OW19401   5.005   5.931   0.944
 6371SOL    HW119402   4.919   5.881   0.931
 6371SOL    HW219403   5.067   5.877   1.000
 6372SOL     OW19404   4.274   5.782   0.885
 6372SOL    HW119405   4.269   5.777   0.985
 6372SOL    HW219406   4.276   5.878   0.856
 6373SOL     OW19407   3.926   5.871   1.498
 6373SOL    HW119408   3.846   5.931   1.485
 6373SOL    HW219409   3.916   5.822   1.584
 6374SOL     OW19410   5.124   5.693   0.426
 6374SOL    HW119411   5.100   5.656   0.336
 6374SOL    HW219412   5.223   5.709   0.430
 6375SOL     OW19413   5.271   5.808   1.729
 6375SOL    HW119414   5.266   5.845   1.821
 6375SOL    HW219415   5.199   5.739   1.717
 6376SOL     OW19416   4.338   5.708   0.117
 6376SOL    HW119417   4.436   5.686   0.124
 6376SOL    HW219418   4.307   5.691   0.024
 6377SOL     OW19419   4.505   5.850   1.749
 6377SOL    HW119420   4.572   5.789   1.792
 6377SOL    HW219421   4.432   5.869   1.814
 6378SOL     OW19422   5.075   6.176   1.433
 6378SOL    HW119423   5.103   6.133   1.518
 6378SOL    HW219424   5.100   6.272   1.434
 6379SOL     OW19425   4.263   5.650   0.512
 6379SOL    HW119426   4.182   5.651   0.570
 6379SOL    HW219427   4.266   5.733   0.457
 6380SOL     OW19428   4.659   5.822   0.480
 6380SOL    HW119429   4.611   5.863   0.402
 6380SOL    HW219430   4.758   5.820   0.461
 6381SOL     OW19431   4.285   5.808   1.147
 6381SOL    HW119432   4.323   5.724   1.184
 6381SOL    HW219433   4.197   5.827   1.191
 6382SOL     OW19434   4.741   5.625   0.753
 6382SOL    HW119435   4.669   5.630   0.684
 6382SOL    HW219436   4.717   5.556   0.822
 6383SOL     OW19437   4.251   5.842   0.328
 6383SOL    HW119438   4.278   5.783   0.253
 6383SOL    HW219439   4.251   5.937   0.297
 6384SOL     OW19440   4.639   5.675   1.402
 6384SOL    HW119441   4.664   5.655   1.307
 6384SOL    HW219442   4.711   5.731   1.444
 6385SOL     OW19443   4.737   5.691   1.770
 6385SOL    HW119444   4.743   5.776   1.718
 6385SOL    HW219445   4.769   5.615   1.713
 6386SOL     OW19446   4.228   5.636   1.740
 6386SOL    HW119447   4.186   5.579   1.670
 6386SOL    HW219448   4.162   5.705   1.772
 6387SOL     OW19449   4.031   5.799   1.231
 6387SOL    HW119450   4.008   5.836   1.321
 6387SOL    HW219451   4.001   5.704   1.225
 6388SOL     OW19452   4.456   6.220   1.064
 6388SOL    HW119453   4.515   6.194   0.988
 6388SOL    HW219454   4.428   6.316   1.053
 6389SOL     OW19455   4.031   5.649   0.618
 6389SOL    HW119456   4.020   5.743   0.651
 6389SOL    HW219457   4.026   5.586   0.695
 6390SOL     OW19458   5.264   5.860   0.125
 6390SOL    HW119459   5.203   5.785   0.148
 6390SOL    HW219460   5.286   5.912   0.208
 6391SOL     OW19461   4.063   6.095   1.006
 6391SOL    HW119462   4.011   6.012   0.989
 6391SOL    HW219463   4.140   6.100   0.942
 6392SOL     OW19464   4.884   5.793   1.477
 6392SOL    HW119465   4.884   5.857   1.554
 6392SOL    HW219466   4.912   5.841   1.394
 6393SOL     OW19467   4.627   5.672   0.133
 6393SOL    HW119468   4.678   5.673   0.047
 6393SOL    HW219469   4.683   5.630   0.204
 6394SOL     OW19470   5.450   5.721   0.523
 6394SOL    HW119471   5.523   5.704   0.456
 6394SOL    HW219472   5.419   5.634   0.561
 6395SOL     OW19473   5.565   5.761   0.963
 6395SOL    HW119474   5.604   5.676   0.927
 6395SOL    HW219475   5.467   5.763   0.944
 6396SOL     OW19476   4.738   5.822   0.971
 6396SOL    HW119477   4.730   5.786   0.878
 6396SOL    HW219478   4.736   5.746   1.036
 6397SOL     OW19479   4.396   5.789   1.489
 6397SOL    HW119480   4.486   5.773   1.449
 6397SOL    HW219481   4.404   5.794   1.588
 6398SOL     OW19482   3.799   5.931   0.033
 6398SOL    HW119483   3.707   5.903   0.004
 6398SOL    HW219484   3.830   6.008  -0.023
 6399SOL     OW19485   3.796   5.752   0.318
 6399SOL    HW119486   3.779   5.835   0.264
 6399SOL    HW219487   3.886   5.715   0.296
 6400SOL     OW19488   4.949   5.911   0.449
 6400SOL    HW119489   5.014   5.837   0.438
 6400SOL    HW219490   4.969   5.961   0.533
 6401SOL     OW19491   5.501   5.928   1.642
 6401SOL    HW119492   5.484   5.959   1.548
 6401SOL    HW219493   5.417   5.891   1.680
 6402SOL     OW19494   5.548   5.778   1.227
 6402SOL    HW119495   5.544   5.688   1.271
 6402SOL    HW219496   5.551   5.767   1.128
 6403SOL     OW19497   5.148   5.800   1.112
 6403SOL    HW119498   5.200   5.735   1.167
 6403SOL    HW219499   5.099   5.863   1.173
 6404SOL     OW19500   4.725   5.620   1.154
 6404SOL    HW119501   4.662   5.548   1.123
 6404SOL    HW219502   4.818   5.584   1.154
 6405SOL     OW19503   5.076   5.638   0.168
 6405SOL    HW119504   5.111   5.597   0.084
 6405SOL    HW219505   4.986   5.600   0.188
 6406SOL     OW19506   5.024   6.039   0.691
 6406SOL    HW119507   4.965   6.119   0.695
 6406SOL    HW219508   5.039   6.004   0.784
 6407SOL     OW19509   5.317   5.807   0.882
 6407SOL    HW119510   5.233   5.806   0.936
 6407SOL    HW219511   5.319   5.890   0.826
 6408SOL     OW19512   3.949   5.861   2.858
 6408SOL    HW119513   3.984   5.844   2.950
 6408SOL    HW219514   3.861   5.816   2.846
 6409SOL     OW19515   3.743   5.954   2.509
 6409SOL    HW119516   3.661   5.997   2.548
 6409SOL    HW219517   3.715   5.881   2.446
 6410SOL     OW19518   5.479   6.193   2.093
 6410SOL    HW119519   5.467   6.180   1.994
 6410SOL    HW219520   5.449   6.112   2.142
 6411SOL     OW19521   4.162   5.978   3.361
 6411SOL    HW119522   4.244   5.922   3.370
 6411SOL    HW219523   4.081   5.920   3.365
 6412SOL     OW19524   5.327   6.033   2.599
 6412SOL    HW119525   5.253   6.079   2.549
 6412SOL    HW219526   5.378   6.101   2.652
 6413SOL     OW19527   5.318   5.700   3.342
 6413SOL    HW119528   5.300   5.767   3.270
 6413SOL    HW219529   5.315   5.746   3.431
 6414SOL     OW19530   4.533   5.590   2.364
 6414SOL    HW119531   4.573   5.681   2.355
 6414SOL    HW219532   4.433   5.598   2.370
 6415SOL     OW19533   4.041   5.837   3.663
 6415SOL    HW119534   4.112   5.908   3.669
 6415SOL    HW219535   3.953   5.876   3.691
 6416SOL     OW19536   5.005   5.931   2.806
 6416SOL    HW119537   4.919   5.881   2.793
 6416SOL    HW219538   5.067   5.877   2.862
 6417SOL     OW19539   4.589   5.934   2.057
 6417SOL    HW119540   4.648   5.997   2.008
 6417SOL    HW219541   4.608   5.840   2.028
 6418SOL     OW19542   4.274   5.782   2.747
 6418SOL    HW119543   4.269   5.777   2.847
 6418SOL    HW219544   4.276   5.878   2.718
 6419SOL     OW19545   3.926   5.871   3.360
 6419SOL    HW119546   3.846   5.931   3.347
 6419SOL    HW219547   3.916   5.822   3.446
 6420SOL     OW19548   5.124   5.693   2.288
 6420SOL    HW119549   5.100   5.656   2.198
 6420SOL    HW219550   5.223   5.709   2.292
 6421SOL     OW19551   5.271   5.808   3.591
 6421SOL    HW119552   5.266   5.845   3.683
 6421SOL    HW219553   5.199   5.739   3.579
 6422SOL     OW19554   4.338   5.708   1.979
 6422SOL    HW119555   4.436   5.686   1.986
 6422SOL    HW219556   4.307   5.691   1.886
 6423SOL     OW19557   4.505   5.850   3.611
 6423SOL    HW119558   4.572   5.789   3.654
 6423SOL    HW219559   4.432   5.869   3.676
 6424SOL     OW19560   5.075   6.176   3.295
 6424SOL    HW119561   5.103   6.133   3.380
 6424SOL    HW219562   5.100   6.272   3.296
 6425SOL     OW19563   4.263   5.650   2.374
 6425SOL    HW119564   4.182   5.651   2.432
 6425SOL    HW219565   4.266   5.733   2.319
 6426SOL     OW19566   4.021   5.621   2.033
 6426SOL    HW119567   4.070   5.705   2.012
 6426SOL    HW219568   4.083   5.556   2.078
 6427SOL     OW19569   4.659   5.822   2.342
 6427SOL    HW119570   4.611   5.863   2.264
 6427SOL    HW219571   4.758   5.820   2.323
 6428SOL     OW19572   4.285   5.808   3.009
 6428SOL    HW119573   4.323   5.724   3.046
 6428SOL    HW219574   4.197   5.827   3.053
 6429SOL     OW19575   4.741   5.625   2.615
 6429SOL    HW119576   4.669   5.630   2.546
 6429SOL    HW219577   4.717   5.556   2.684
 6430SOL     OW19578   4.251   5.842   2.190
 6430SOL    HW119579   4.278   5.783   2.115
 6430SOL    HW219580   4.251   5.937   2.159
 6431SOL     OW19581   4.639   5.675   3.264
 6431SOL    HW119582   4.664   5.655   3.169
 6431SOL    HW219583   4.711   5.731   3.306
 6432SOL     OW19584   4.737   5.691   3.632
 6432SOL    HW119585   4.743   5.776   3.580
 6432SOL    HW219586   4.769   5.615   3.575
 6433SOL     OW19587   4.228   5.636   3.602
 6433SOL    HW119588   4.186   5.579   3.532
 6433SOL    HW219589   4.162   5.705   3.634
 6434SOL     OW19590   4.031   5.799   3.093
 6434SOL    HW119591   4.008   5.836   3.183
 6434SOL    HW219592   4.001   5.704   3.087
 6435SOL     OW19593   4.456   6.220   2.926
 6435SOL    HW119594   4.515   6.194   2.850
 6435SOL    HW219595   4.428   6.316   2.915
 6436SOL     OW19596   4.031   5.649   2.480
 6436SOL    HW119597   4.020   5.743   2.513
 6436SOL    HW219598   4.026   5.586   2.557
 6437SOL     OW19599   5.264   5.860   1.987
 6437SOL    HW119600   5.203   5.785   2.010
 6437SOL    HW219601   5.286   5.912   2.070
 6438SOL     OW19602   4.063   6.095   2.868
 6438SOL    HW119603   4.011   6.012   2.851
 6438SOL    HW219604   4.140   6.100   2.804
 6439SOL     OW19605   4.884   5.793   3.339
 6439SOL    HW119606   4.884   5.857   3.416
 6439SOL    HW219607   4.912   5.841   3.256
 6440SOL     OW19608   5.450   5.721   2.385
 6440SOL    HW119609   5.523   5.704   2.318
 6440SOL    HW219610   5.419   5.634   2.423
 6441SOL     OW19611   5.565   5.761   2.825
 6441SOL    HW119612   5.604   5.676   2.789
 6441SOL    HW219613   5.467   5.763   2.806
 6442SOL     OW19614   4.738   5.822   2.833
 6442SOL    HW119615   4.730   5.786   2.740
 6442SOL    HW219616   4.736   5.746   2.898
 6443SOL     OW19617   4.396   5.789   3.351
 6443SOL    HW119618   4.486   5.773   3.311
 6443SOL    HW219619   4.404   5.794   3.450
 6444SOL     OW19620   3.799   5.931   1.895
 6444SOL    HW119621   3.707   5.903   1.866
 6444SOL    HW219622   3.830   6.008   1.839
 6445SOL     OW19623   3.796   5.752   2.180
 6445SOL    HW119624   3.779   5.835   2.126
 6445SOL    HW219625   3.886   5.715   2.158
 6446SOL     OW19626   4.949   5.911   2.311
 6446SOL    HW119627   5.014   5.837   2.300
 6446SOL    HW219628   4.969   5.961   2.395
 6447SOL     OW19629   5.501   5.928   3.504
 6447SOL    HW119630   5.484   5.959   3.410
 6447SOL    HW219631   5.417   5.891   3.542
 6448SOL     OW19632   5.548   5.778   3.089
 6448SOL    HW119633   5.544   5.688   3.133
 6448SOL    HW219634   5.551   5.767   2.990
 6449SOL     OW19635   5.148   5.800   2.974
 6449SOL    HW119636   5.200   5.735   3.029
 6449SOL    HW219637   5.099   5.863   3.035
 6450SOL     OW19638   4.725   5.620   3.016
 6450SOL    HW119639   4.662   5.548   2.985
 6450SOL    HW219640   4.818   5.584   3.016
 6451SOL     OW19641   5.076   5.638   2.030
 6451SOL    HW119642   5.111   5.597   1.946
 6451SOL    HW219643   4.986   5.600   2.050
 6452SOL     OW19644   5.024   6.039   2.553
 6452SOL    HW119645   4.965   6.119   2.557
 6452SOL    HW219646   5.039   6.004   2.646
 6453SOL     OW19647   5.317   5.807   2.744
 6453SOL    HW119648   5.233   5.806   2.798
 6453SOL    HW219649   5.319   5.890   2.688
 6454SOL     OW19650   3.949   5.861   4.720
 6454SOL    HW119651   3.984   5.844   4.812
 6454SOL    HW219652   3.861   5.816   4.708
 6455SOL     OW19653   3.743   5.954   4.371
 6455SOL    HW119654   3.661   5.997   4.410
 6455SOL    HW219655   3.715   5.881   4.308
 6456SOL     OW19656   5.479   6.193   3.955
 6456SOL    HW119657   5.467   6.180   3.856
 6456SOL    HW219658   5.449   6.112   4.004
 6457SOL     OW19659   4.162   5.978   5.223
 6457SOL    HW119660   4.244   5.922   5.232
 6457SOL    HW219661   4.081   5.920   5.227
 6458SOL     OW19662   5.327   6.033   4.461
 6458SOL    HW119663   5.253   6.079   4.411
 6458SOL    HW219664   5.378   6.101   4.514
 6459SOL     OW19665   5.318   5.700   5.204
 6459SOL    HW119666   5.300   5.767   5.132
 6459SOL    HW219667   5.315   5.746   5.293
 6460SOL     OW19668   4.533   5.590   4.226
 6460SOL    HW119669   4.573   5.681   4.217
 6460SOL    HW219670   4.433   5.598   4.232
 6461SOL     OW19671   4.041   5.837   5.525
 6461SOL    HW119672   4.112   5.908   5.531
 6461SOL    HW219673   3.953   5.876   5.553
 6462SOL     OW19674   5.005   5.931   4.668
 6462SOL    HW119675   4.919   5.881   4.655
 6462SOL    HW219676   5.067   5.877   4.724
 6463SOL     OW19677   4.589   5.934   3.919
 6463SOL    HW119678   4.648   5.997   3.870
 6463SOL    HW219679   4.608   5.840   3.890
 6464SOL     OW19680   4.274   5.782   4.609
 6464SOL    HW119681   4.269   5.777   4.709
 6464SOL    HW219682   4.276   5.878   4.580
 6465SOL     OW19683   3.926   5.871   5.222
 6465SOL    HW119684   3.846   5.931   5.209
 6465SOL    HW219685   3.916   5.822   5.308
 6466SOL     OW19686   5.124   5.693   4.150
 6466SOL    HW119687   5.100   5.656   4.060
 6466SOL    HW219688   5.223   5.709   4.154
 6467SOL     OW19689   5.271   5.808   5.453
 6467SOL    HW119690   5.266   5.845   5.545
 6467SOL    HW219691   5.199   5.739   5.441
 6468SOL     OW19692   4.338   5.708   3.841
 6468SOL    HW119693   4.436   5.686   3.848
 6468SOL    HW219694   4.307   5.691   3.748
 6469SOL     OW19695   4.505   5.850   5.473
 6469SOL    HW119696   4.572   5.789   5.516
 6469SOL    HW219697   4.432   5.869   5.538
 6470SOL     OW19698   5.075   6.176   5.157
 6470SOL    HW119699   5.103   6.133   5.242
 6470SOL    HW219700   5.100   6.272   5.158
 6471SOL     OW19701   4.263   5.650   4.236
 6471SOL    HW119702   4.182   5.651   4.294
 6471SOL    HW219703   4.266   5.733   4.181
 6472SOL     OW19704   4.021   5.621   3.895
 6472SOL    HW119705   4.070   5.705   3.874
 6472SOL    HW219706   4.083   5.556   3.940
 6473SOL     OW19707   4.659   5.822   4.204
 6473SOL    HW119708   4.611   5.863   4.126
 6473SOL    HW219709   4.758   5.820   4.185
 6474SOL     OW19710   4.285   5.808   4.871
 6474SOL    HW119711   4.323   5.724   4.908
 6474SOL    HW219712   4.197   5.827   4.915
 6475SOL     OW19713   4.741   5.625   4.477
 6475SOL    HW119714   4.669   5.630   4.408
 6475SOL    HW219715   4.717   5.556   4.546
 6476SOL     OW19716   4.251   5.842   4.052
 6476SOL    HW119717   4.278   5.783   3.977
 6476SOL    HW219718   4.251   5.937   4.021
 6477SOL     OW19719   4.639   5.675   5.126
 6477SOL    HW119720   4.664   5.655   5.031
 6477SOL    HW219721   4.711   5.731   5.168
 6478SOL     OW19722   4.737   5.691   5.494
 6478SOL    HW119723   4.743   5.776   5.442
 6478SOL    HW219724   4.769   5.615   5.437
 6479SOL     OW19725   4.228   5.636   5.464
 6479SOL    HW119726   4.186   5.579   5.394
 6479SOL    HW219727   4.162   5.705   5.496
 6480SOL     OW19728   4.031   5.799   4.955
 6480SOL    HW119729   4.008   5.836   5.045
 6480SOL    HW219730   4.001   5.704   4.949
 6481SOL     OW19731   4.456   6.220   4.788
 6481SOL    HW119732   4.515   6.194   4.712
 6481SOL    HW219733   4.428   6.316   4.777
 6482SOL     OW19734   4.031   5.649   4.342
 6482SOL    HW119735   4.020   5.743   4.375
 6482SOL    HW219736   4.026   5.586   4.419
 6483SOL     OW19737   5.264   5.860   3.849
 6483SOL    HW119738   5.203   5.785   3.872
 6483SOL    HW219739   5.286   5.912   3.932
 6484SOL     OW19740   4.063   6.095   4.730
 6484SOL    HW119741   4.011   6.012   4.713
 6484SOL    HW219742   4.140   6.100   4.666
 6485SOL     OW19743   4.884   5.793   5.201
 6485SOL    HW119744   4.884   5.857   5.278
 6485SOL    HW219745   4.912   5.841   5.118
 6486SOL     OW19746   5.450   5.721   4.247
 6486SOL    HW119747   5.523   5.704   4.180
 6486SOL    HW219748   5.419   5.634   4.285
 6487SOL     OW19749   5.565   5.761   4.687
 6487SOL    HW119750   5.604   5.676   4.651
 6487SOL    HW219751   5.467   5.763   4.668
 6488SOL     OW19752   4.738   5.822   4.695
 6488SOL    HW119753   4.730   5.786   4.602
 6488SOL    HW219754   4.736   5.746   4.760
 6489SOL     OW19755   4.396   5.789   5.213
 6489SOL    HW119756   4.486   5.773   5.173
 6489SOL    HW219757   4.404   5.794   5.312
 6490SOL     OW19758   3.799   5.931   3.757
 6490SOL    HW119759   3.707   5.903   3.728
 6490SOL    HW219760   3.830   6.008   3.701
 6491SOL     OW19761   3.796   5.752   4.042
 6491SOL    HW119762   3.779   5.835   3.988
 6491SOL    HW219763   3.886   5.715   4.020
 6492SOL     OW19764   4.949   5.911   4.173
 6492SOL    HW119765   5.014   5.837   4.162
 6492SOL    HW219766   4.969   5.961   4.257
 6493SOL     OW19767   5.501   5.928   5.366
 6493SOL    HW119768   5.484   5.959   5.272
 6493SOL    HW219769   5.417   5.891   5.404
 6494SOL     OW19770   5.548   5.778   4.951
 6494SOL    HW119771   5.544   5.688   4.995
 6494SOL    HW219772   5.551   5.767   4.852
 6495SOL     OW19773   5.148   5.800   4.836
 6495SOL    HW119774   5.200   5.735   4.891
 6495SOL    HW219775   5.099   5.863   4.897
 6496SOL     OW19776   4.725   5.620   4.878
 6496SOL    HW119777   4.662   5.548   4.847
 6496SOL    HW219778   4.818   5.584   4.878
 6497SOL     OW19779   5.076   5.638   3.892
 6497SOL    HW119780   5.111   5.597   3.808
 6497SOL    HW219781   4.986   5.600   3.912
 6498SOL     OW19782   5.024   6.039   4.415
 6498SOL    HW119783   4.965   6.119   4.419
 6498SOL    HW219784   5.039   6.004   4.508
 6499SOL     OW19785   5.317   5.807   4.606
 6499SOL    HW119786   5.233   5.806   4.660
 6499SOL    HW219787   5.319   5.890   4.550
 6500SOL     OW19788   5.479   6.193   5.817
 6500SOL    HW119789   5.467   6.180   5.718
 6500SOL    HW219790   5.449   6.112   5.866
 6501SOL     OW19791   4.765   6.287   6.015
 6501SOL    HW119792   4.791   6.283   6.111
 6501SOL    HW219793   4.680   6.236   6.001
 6502SOL     OW19794   4.589   5.934   5.781
 6502SOL    HW119795   4.648   5.997   5.732
 6502SOL    HW219796   4.608   5.840   5.752
 6503SOL     OW19797   4.338   5.708   5.703
 6503SOL    HW119798   4.436   5.686   5.710
 6503SOL    HW219799   4.307   5.691   5.610
 6504SOL     OW19800   4.021   5.621   5.757
 6504SOL    HW119801   4.070   5.705   5.736
 6504SOL    HW219802   4.083   5.556   5.802
 6505SOL     OW19803   4.251   5.842   5.914
 6505SOL    HW119804   4.278   5.783   5.839
 6505SOL    HW219805   4.251   5.937   5.883
 6506SOL     OW19806   4.031   5.649   6.204
 6506SOL    HW119807   4.020   5.743   6.237
 6506SOL    HW219808   4.026   5.586   6.281
 6507SOL     OW19809   5.264   5.860   5.711
 6507SOL    HW119810   5.203   5.785   5.734
 6507SOL    HW219811   5.286   5.912   5.794
 6508SOL     OW19812   4.539   6.158   5.911
 6508SOL    HW119813   4.546   6.069   5.865
 6508SOL    HW219814   4.445   6.192   5.903
 6509SOL     OW19815   5.450   5.721   6.109
 6509SOL    HW119816   5.523   5.704   6.042
 6509SOL    HW219817   5.419   5.634   6.147
 6510SOL     OW19818   3.799   5.931   5.619
 6510SOL    HW119819   3.707   5.903   5.590
 6510SOL    HW219820   3.830   6.008   5.563
 6511SOL     OW19821   3.796   5.752   5.904
 6511SOL    HW119822   3.779   5.835   5.850
 6511SOL    HW219823   3.886   5.715   5.882
 6512SOL     OW19824   5.076   5.638   5.754
 6512SOL    HW119825   5.111   5.597   5.670
 6512SOL    HW219826   4.986   5.600   5.774
 6513SOL     OW19827   5.816   0.628   0.113
 6513SOL    HW119828   5.723   0.626   0.150
 6513SOL    HW219829   5.817   0.589   0.021
 6514SOL     OW19830   5.811   0.275   0.996
 6514SOL    HW119831   5.846   0.258   1.088
 6514SOL    HW219832   5.723   0.230   0.984
 6515SOL     OW19833   5.605   0.368   0.647
 6515SOL    HW119834   5.523   0.411   0.686
 6515SOL    HW219835   5.577   0.295   0.584
 6516SOL     OW19836   6.271   1.012   0.665
 6516SOL    HW119837   6.340   0.996   0.735
 6516SOL    HW219838   6.198   1.069   0.703
 6517SOL     OW19839   5.921   1.435   1.061
 6517SOL    HW119840   5.843   1.404   1.008
 6517SOL    HW219841   5.979   1.493   1.004
 6518SOL     OW19842   5.817   1.713   0.483
 6518SOL    HW119843   5.851   1.790   0.537
 6518SOL    HW219844   5.861   1.713   0.393
 6519SOL     OW19845   5.816   1.434   0.538
 6519SOL    HW119846   5.790   1.530   0.538
 6519SOL    HW219847   5.745   1.380   0.583
 6520SOL     OW19848   5.826   1.091   0.886
 6520SOL    HW119849   5.840   1.007   0.938
 6520SOL    HW219850   5.771   1.155   0.941
 6521SOL     OW19851   5.708   0.643   0.563
 6521SOL    HW119852   5.663   0.555   0.580
 6521SOL    HW219853   5.707   0.697   0.647
 6522SOL     OW19854   5.613   1.596   0.117
 6522SOL    HW119855   5.594   1.500   0.138
 6522SOL    HW219856   5.580   1.654   0.192
 6523SOL     OW19857   5.699   0.737   1.597
 6523SOL    HW119858   5.787   0.724   1.642
 6523SOL    HW219859   5.686   0.834   1.575
 6524SOL     OW19860   5.783   0.976   1.264
 6524SOL    HW119861   5.872   0.931   1.250
 6524SOL    HW219862   5.710   0.911   1.245
 6525SOL     OW19863   5.662   0.811   0.789
 6525SOL    HW119864   5.761   0.799   0.798
 6525SOL    HW219865   5.638   0.906   0.810
 6526SOL     OW19866   5.716   1.821   1.571
 6526SOL    HW119867   5.706   1.806   1.670
 6526SOL    HW219868   5.630   1.857   1.535
 6527SOL     OW19869   5.788   0.285   1.498
 6527SOL    HW119870   5.708   0.345   1.485
 6527SOL    HW219871   5.778   0.236   1.584
 6528SOL     OW19872   6.050   1.743   0.323
 6528SOL    HW119873   6.083   1.782   0.409
 6528SOL    HW219874   6.126   1.736   0.258
 6529SOL     OW19875   5.835   1.785   1.241
 6529SOL    HW119876   5.892   1.720   1.291
 6529SOL    HW219877   5.819   1.752   1.148
 6530SOL     OW19878   5.883   0.035   0.171
 6530SOL    HW119879   5.932   0.119   0.150
 6530SOL    HW219880   5.945  -0.030   0.216
 6531SOL     OW19881   5.664   0.556   1.386
 6531SOL    HW119882   5.756   0.555   1.345
 6531SOL    HW219883   5.658   0.630   1.453
 6532SOL     OW19884   5.650   1.564   1.331
 6532SOL    HW119885   5.604   1.646   1.297
 6532SOL    HW219886   5.748   1.583   1.340
 6533SOL     OW19887   6.152   0.537   0.865
 6533SOL    HW119888   6.164   0.603   0.791
 6533SOL    HW219889   6.198   0.571   0.948
 6534SOL     OW19890   5.893   0.213   1.231
 6534SOL    HW119891   5.870   0.250   1.321
 6534SOL    HW219892   5.863   0.118   1.225
 6535SOL     OW19893   5.623   1.310   1.282
 6535SOL    HW119894   5.676   1.261   1.350
 6535SOL    HW219895   5.645   1.408   1.287
 6536SOL     OW19896   5.905   0.810   0.949
 6536SOL    HW119897   5.998   0.846   0.954
 6536SOL    HW219898   5.899   0.725   1.001
 6537SOL     OW19899   5.674   1.801   0.927
 6537SOL    HW119900   5.632   1.715   0.900
 6537SOL    HW219901   5.768   1.804   0.893
 6538SOL     OW19902   6.090   1.568   0.910
 6538SOL    HW119903   6.156   1.642   0.919
 6538SOL    HW219904   6.134   1.489   0.868
 6539SOL     OW19905   5.626   0.544   1.114
 6539SOL    HW119906   5.711   0.511   1.073
 6539SOL    HW219907   5.639   0.559   1.212
 6540SOL     OW19908   5.775   0.520   1.722
 6540SOL    HW119909   5.834   0.480   1.652
 6540SOL    HW219910   5.717   0.591   1.681
 6541SOL     OW19911   5.838   1.564   1.744
 6541SOL    HW119912   5.808   1.621   1.820
 6541SOL    HW219913   5.831   1.467   1.770
 6542SOL     OW19914   5.745   1.137   1.466
 6542SOL    HW119915   5.767   1.076   1.542
 6542SOL    HW219916   5.755   1.088   1.380
 6543SOL     OW19917   5.669   1.258   1.022
 6543SOL    HW119918   5.664   1.257   1.122
 6543SOL    HW219919   5.586   1.217   0.984
 6544SOL     OW19920   5.716   1.794   1.851
 6544SOL    HW119921   5.675   1.720   1.904
 6544SOL    HW219922   5.780   1.845   1.909
 6545SOL     OW19923   5.958   1.288   1.490
 6545SOL    HW119924   5.945   1.381   1.456
 6545SOL    HW219925   5.874   1.236   1.477
 6546SOL     OW19926   5.691   1.013   1.726
 6546SOL    HW119927   5.614   0.980   1.780
 6546SOL    HW219928   5.776   0.983   1.768
 6547SOL     OW19929   5.661   0.345   0.033
 6547SOL    HW119930   5.569   0.317   0.004
 6547SOL    HW219931   5.692   0.422  -0.023
 6548SOL     OW19932   5.658   0.166   0.318
 6548SOL    HW119933   5.641   0.249   0.264
 6548SOL    HW219934   5.748   0.129   0.296
 6549SOL     OW19935   6.199   0.842   1.431
 6549SOL    HW119936   6.255   0.923   1.414
 6549SOL    HW219937   6.258   0.762   1.434
 6550SOL     OW19938   5.665   1.240   0.653
 6550SOL    HW119939   5.664   1.193   0.741
 6550SOL    HW219940   5.747   1.212   0.602
 6551SOL     OW19941   5.625   1.077   0.300
 6551SOL    HW119942   5.724   1.066   0.291
 6551SOL    HW219943   5.585   0.991   0.332
 6552SOL     OW19944   5.816   0.628   1.975
 6552SOL    HW119945   5.723   0.626   2.012
 6552SOL    HW219946   5.817   0.589   1.883
 6553SOL     OW19947   5.811   0.275   2.858
 6553SOL    HW119948   5.846   0.258   2.950
 6553SOL    HW219949   5.723   0.230   2.846
 6554SOL     OW19950   5.605   0.368   2.509
 6554SOL    HW119951   5.523   0.411   2.548
 6554SOL    HW219952   5.577   0.295   2.446
 6555SOL     OW19953   6.271   1.012   2.527
 6555SOL    HW119954   6.340   0.996   2.597
 6555SOL    HW219955   6.198   1.069   2.565
 6556SOL     OW19956   5.921   1.435   2.923
 6556SOL    HW119957   5.843   1.404   2.870
 6556SOL    HW219958   5.979   1.493   2.866
 6557SOL     OW19959   5.817   1.713   2.345
 6557SOL    HW119960   5.851   1.790   2.399
 6557SOL    HW219961   5.861   1.713   2.255
 6558SOL     OW19962   5.816   1.434   2.400
 6558SOL    HW119963   5.790   1.530   2.400
 6558SOL    HW219964   5.745   1.380   2.445
 6559SOL     OW19965   5.826   1.091   2.748
 6559SOL    HW119966   5.840   1.007   2.800
 6559SOL    HW219967   5.771   1.155   2.803
 6560SOL     OW19968   5.708   0.643   2.425
 6560SOL    HW119969   5.663   0.555   2.442
 6560SOL    HW219970   5.707   0.697   2.509
 6561SOL     OW19971   5.613   1.596   1.979
 6561SOL    HW119972   5.594   1.500   2.000
 6561SOL    HW219973   5.580   1.654   2.054
 6562SOL     OW19974   5.699   0.737   3.459
 6562SOL    HW119975   5.787   0.724   3.504
 6562SOL    HW219976   5.686   0.834   3.437
 6563SOL     OW19977   5.783   0.976   3.126
 6563SOL    HW119978   5.872   0.931   3.112
 6563SOL    HW219979   5.710   0.911   3.107
 6564SOL     OW19980   5.662   0.811   2.651
 6564SOL    HW119981   5.761   0.799   2.660
 6564SOL    HW219982   5.638   0.906   2.672
 6565SOL     OW19983   5.716   1.821   3.433
 6565SOL    HW119984   5.706   1.806   3.532
 6565SOL    HW219985   5.630   1.857   3.397
 6566SOL     OW19986   5.788   0.285   3.360
 6566SOL    HW119987   5.708   0.345   3.347
 6566SOL    HW219988   5.778   0.236   3.446
 6567SOL     OW19989   6.050   1.743   2.185
 6567SOL    HW119990   6.083   1.782   2.271
 6567SOL    HW219991   6.126   1.736   2.120
 6568SOL     OW19992   5.835   1.785   3.103
 6568SOL    HW119993   5.892   1.720   3.153
 6568SOL    HW219994   5.819   1.752   3.010
 6569SOL     OW19995   5.883   0.035   2.033
 6569SOL    HW119996   5.932   0.119   2.012
 6569SOL    HW219997   5.945  -0.030   2.078
 6570SOL     OW19998   5.664   0.556   3.248
 6570SOL    HW119999   5.756   0.555   3.207
 6570SOL    HW220000   5.658   0.630   3.315
 6571SOL     OW20001   5.650   1.564   3.193
 6571SOL    HW120002   5.604   1.646   3.159
 6571SOL    HW220003   5.748   1.583   3.202
 6572SOL     OW20004   6.152   0.537   2.727
 6572SOL    HW120005   6.164   0.603   2.653
 6572SOL    HW220006   6.198   0.571   2.810
 6573SOL     OW20007   5.893   0.213   3.093
 6573SOL    HW120008   5.870   0.250   3.183
 6573SOL    HW220009   5.863   0.118   3.087
 6574SOL     OW20010   5.623   1.310   3.144
 6574SOL    HW120011   5.676   1.261   3.212
 6574SOL    HW220012   5.645   1.408   3.149
 6575SOL     OW20013   5.905   0.810   2.811
 6575SOL    HW120014   5.998   0.846   2.816
 6575SOL    HW220015   5.899   0.725   2.863
 6576SOL     OW20016   5.594   1.326   2.062
 6576SOL    HW120017   5.501   1.347   2.031
 6576SOL    HW220018   5.604   1.227   2.075
 6577SOL     OW20019   5.674   1.801   2.789
 6577SOL    HW120020   5.632   1.715   2.762
 6577SOL    HW220021   5.768   1.804   2.755
 6578SOL     OW20022   6.090   1.568   2.772
 6578SOL    HW120023   6.156   1.642   2.781
 6578SOL    HW220024   6.134   1.489   2.730
 6579SOL     OW20025   5.626   0.544   2.976
 6579SOL    HW120026   5.711   0.511   2.935
 6579SOL    HW220027   5.639   0.559   3.074
 6580SOL     OW20028   5.775   0.520   3.584
 6580SOL    HW120029   5.834   0.480   3.514
 6580SOL    HW220030   5.717   0.591   3.543
 6581SOL     OW20031   5.838   1.564   3.606
 6581SOL    HW120032   5.808   1.621   3.682
 6581SOL    HW220033   5.831   1.467   3.632
 6582SOL     OW20034   5.745   1.137   3.328
 6582SOL    HW120035   5.767   1.076   3.404
 6582SOL    HW220036   5.755   1.088   3.242
 6583SOL     OW20037   5.669   1.258   2.884
 6583SOL    HW120038   5.664   1.257   2.984
 6583SOL    HW220039   5.586   1.217   2.846
 6584SOL     OW20040   5.716   1.794   3.713
 6584SOL    HW120041   5.675   1.720   3.766
 6584SOL    HW220042   5.780   1.845   3.771
 6585SOL     OW20043   5.958   1.288   3.352
 6585SOL    HW120044   5.945   1.381   3.318
 6585SOL    HW220045   5.874   1.236   3.339
 6586SOL     OW20046   5.691   1.013   3.588
 6586SOL    HW120047   5.614   0.980   3.642
 6586SOL    HW220048   5.776   0.983   3.630
 6587SOL     OW20049   5.661   0.345   1.895
 6587SOL    HW120050   5.569   0.317   1.866
 6587SOL    HW220051   5.692   0.422   1.839
 6588SOL     OW20052   5.658   0.166   2.180
 6588SOL    HW120053   5.641   0.249   2.126
 6588SOL    HW220054   5.748   0.129   2.158
 6589SOL     OW20055   6.199   0.842   3.293
 6589SOL    HW120056   6.255   0.923   3.276
 6589SOL    HW220057   6.258   0.762   3.296
 6590SOL     OW20058   5.665   1.240   2.515
 6590SOL    HW120059   5.664   1.193   2.603
 6590SOL    HW220060   5.747   1.212   2.464
 6591SOL     OW20061   5.625   1.077   2.162
 6591SOL    HW120062   5.724   1.066   2.153
 6591SOL    HW220063   5.585   0.991   2.194
 6592SOL     OW20064   5.816   0.628   3.837
 6592SOL    HW120065   5.723   0.626   3.874
 6592SOL    HW220066   5.817   0.589   3.745
 6593SOL     OW20067   5.811   0.275   4.720
 6593SOL    HW120068   5.846   0.258   4.812
 6593SOL    HW220069   5.723   0.230   4.708
 6594SOL     OW20070   5.605   0.368   4.371
 6594SOL    HW120071   5.523   0.411   4.410
 6594SOL    HW220072   5.577   0.295   4.308
 6595SOL     OW20073   6.271   1.012   4.389
 6595SOL    HW120074   6.340   0.996   4.459
 6595SOL    HW220075   6.198   1.069   4.427
 6596SOL     OW20076   5.921   1.435   4.785
 6596SOL    HW120077   5.843   1.404   4.732
 6596SOL    HW220078   5.979   1.493   4.728
 6597SOL     OW20079   5.817   1.713   4.207
 6597SOL    HW120080   5.851   1.790   4.261
 6597SOL    HW220081   5.861   1.713   4.117
 6598SOL     OW20082   5.816   1.434   4.262
 6598SOL    HW120083   5.790   1.530   4.262
 6598SOL    HW220084   5.745   1.380   4.307
 6599SOL     OW20085   5.826   1.091   4.610
 6599SOL    HW120086   5.840   1.007   4.662
 6599SOL    HW220087   5.771   1.155   4.665
 6600SOL     OW20088   5.708   0.643   4.287
 6600SOL    HW120089   5.663   0.555   4.304
 6600SOL    HW220090   5.707   0.697   4.371
 6601SOL     OW20091   5.613   1.596   3.841
 6601SOL    HW120092   5.594   1.500   3.862
 6601SOL    HW220093   5.580   1.654   3.916
 6602SOL     OW20094   5.699   0.737   5.321
 6602SOL    HW120095   5.787   0.724   5.366
 6602SOL    HW220096   5.686   0.834   5.299
 6603SOL     OW20097   5.783   0.976   4.988
 6603SOL    HW120098   5.872   0.931   4.974
 6603SOL    HW220099   5.710   0.911   4.969
 6604SOL     OW20100   5.662   0.811   4.513
 6604SOL    HW120101   5.761   0.799   4.522
 6604SOL    HW220102   5.638   0.906   4.534
 6605SOL     OW20103   5.716   1.821   5.295
 6605SOL    HW120104   5.706   1.806   5.394
 6605SOL    HW220105   5.630   1.857   5.259
 6606SOL     OW20106   5.788   0.285   5.222
 6606SOL    HW120107   5.708   0.345   5.209
 6606SOL    HW220108   5.778   0.236   5.308
 6607SOL     OW20109   6.050   1.743   4.047
 6607SOL    HW120110   6.083   1.782   4.133
 6607SOL    HW220111   6.126   1.736   3.982
 6608SOL     OW20112   5.835   1.785   4.965
 6608SOL    HW120113   5.892   1.720   5.015
 6608SOL    HW220114   5.819   1.752   4.872
 6609SOL     OW20115   5.883   0.035   3.895
 6609SOL    HW120116   5.932   0.119   3.874
 6609SOL    HW220117   5.945  -0.030   3.940
 6610SOL     OW20118   5.664   0.556   5.110
 6610SOL    HW120119   5.756   0.555   5.069
 6610SOL    HW220120   5.658   0.630   5.177
 6611SOL     OW20121   5.650   1.564   5.055
 6611SOL    HW120122   5.604   1.646   5.021
 6611SOL    HW220123   5.748   1.583   5.064
 6612SOL     OW20124   6.152   0.537   4.589
 6612SOL    HW120125   6.164   0.603   4.515
 6612SOL    HW220126   6.198   0.571   4.672
 6613SOL     OW20127   5.893   0.213   4.955
 6613SOL    HW120128   5.870   0.250   5.045
 6613SOL    HW220129   5.863   0.118   4.949
 6614SOL     OW20130   5.623   1.310   5.006
 6614SOL    HW120131   5.676   1.261   5.074
 6614SOL    HW220132   5.645   1.408   5.011
 6615SOL     OW20133   5.905   0.810   4.673
 6615SOL    HW120134   5.998   0.846   4.678
 6615SOL    HW220135   5.899   0.725   4.725
 6616SOL     OW20136   5.594   1.326   3.924
 6616SOL    HW120137   5.501   1.347   3.893
 6616SOL    HW220138   5.604   1.227   3.937
 6617SOL     OW20139   5.674   1.801   4.651
 6617SOL    HW120140   5.632   1.715   4.624
 6617SOL    HW220141   5.768   1.804   4.617
 6618SOL     OW20142   6.090   1.568   4.634
 6618SOL    HW120143   6.156   1.642   4.643
 6618SOL    HW220144   6.134   1.489   4.592
 6619SOL     OW20145   5.626   0.544   4.838
 6619SOL    HW120146   5.711   0.511   4.797
 6619SOL    HW220147   5.639   0.559   4.936
 6620SOL     OW20148   5.775   0.520   5.446
 6620SOL    HW120149   5.834   0.480   5.376
 6620SOL    HW220150   5.717   0.591   5.405
 6621SOL     OW20151   5.838   1.564   5.468
 6621SOL    HW120152   5.808   1.621   5.544
 6621SOL    HW220153   5.831   1.467   5.494
 6622SOL     OW20154   5.745   1.137   5.190
 6622SOL    HW120155   5.767   1.076   5.266
 6622SOL    HW220156   5.755   1.088   5.104
 6623SOL     OW20157   5.669   1.258   4.746
 6623SOL    HW120158   5.664   1.257   4.846
 6623SOL    HW220159   5.586   1.217   4.708
 6624SOL     OW20160   5.716   1.794   5.575
 6624SOL    HW120161   5.675   1.720   5.628
 6624SOL    HW220162   5.780   1.845   5.633
 6625SOL     OW20163   5.958   1.288   5.214
 6625SOL    HW120164   5.945   1.381   5.180
 6625SOL    HW220165   5.874   1.236   5.201
 6626SOL     OW20166   5.691   1.013   5.450
 6626SOL    HW120167   5.614   0.980   5.504
 6626SOL    HW220168   5.776   0.983   5.492
 6627SOL     OW20169   5.661   0.345   3.757
 6627SOL    HW120170   5.569   0.317   3.728
 6627SOL    HW220171   5.692   0.422   3.701
 6628SOL     OW20172   5.658   0.166   4.042
 6628SOL    HW120173   5.641   0.249   3.988
 6628SOL    HW220174   5.748   0.129   4.020
 6629SOL     OW20175   6.199   0.842   5.155
 6629SOL    HW120176   6.255   0.923   5.138
 6629SOL    HW220177   6.258   0.762   5.158
 6630SOL     OW20178   5.665   1.240   4.377
 6630SOL    HW120179   5.664   1.193   4.465
 6630SOL    HW220180   5.747   1.212   4.326
 6631SOL     OW20181   5.625   1.077   4.024
 6631SOL    HW120182   5.724   1.066   4.015
 6631SOL    HW220183   5.585   0.991   4.056
 6632SOL     OW20184   5.816   0.628   5.699
 6632SOL    HW120185   5.723   0.626   5.736
 6632SOL    HW220186   5.817   0.589   5.607
 6633SOL     OW20187   5.817   1.713   6.069
 6633SOL    HW120188   5.851   1.790   6.123
 6633SOL    HW220189   5.861   1.713   5.979
 6634SOL     OW20190   5.613   1.596   5.703
 6634SOL    HW120191   5.594   1.500   5.724
 6634SOL    HW220192   5.580   1.654   5.778
 6635SOL     OW20193   6.050   1.743   5.909
 6635SOL    HW120194   6.083   1.782   5.995
 6635SOL    HW220195   6.126   1.736   5.844
 6636SOL     OW20196   5.883   0.035   5.757
 6636SOL    HW120197   5.932   0.119   5.736
 6636SOL    HW220198   5.945  -0.030   5.802
 6637SOL     OW20199   5.594   1.326   5.786
 6637SOL    HW120200   5.501   1.347   5.755
 6637SOL    HW220201   5.604   1.227   5.799
 6638SOL     OW20202   5.661   0.345   5.619
 6638SOL    HW120203   5.569   0.317   5.590
 6638SOL    HW220204   5.692   0.422   5.563
 6639SOL     OW20205   5.658   0.166   5.904
 6639SOL    HW120206   5.641   0.249   5.850
 6639SOL    HW220207   5.748   0.129   5.882
 6640SOL     OW20208   5.625   1.077   5.886
 6640SOL    HW120209   5.724   1.066   5.877
 6640SOL    HW220210   5.585   0.991   5.918
 6641SOL     OW20211   5.816   2.490   0.113
 6641SOL    HW120212   5.723   2.488   0.150
 6641SOL    HW220213   5.817   2.451   0.021
 6642SOL     OW20214   5.811   2.137   0.996
 6642SOL    HW120215   5.846   2.120   1.088
 6642SOL    HW220216   5.723   2.092   0.984
 6643SOL     OW20217   5.605   2.230   0.647
 6643SOL    HW120218   5.523   2.273   0.686
 6643SOL    HW220219   5.577   2.157   0.584
 6644SOL     OW20220   6.271   2.874   0.665
 6644SOL    HW120221   6.340   2.858   0.735
 6644SOL    HW220222   6.198   2.931   0.703
 6645SOL     OW20223   5.921   3.297   1.061
 6645SOL    HW120224   5.843   3.266   1.008
 6645SOL    HW220225   5.979   3.355   1.004
 6646SOL     OW20226   5.817   3.575   0.483
 6646SOL    HW120227   5.851   3.652   0.537
 6646SOL    HW220228   5.861   3.575   0.393
 6647SOL     OW20229   5.816   3.296   0.538
 6647SOL    HW120230   5.790   3.392   0.538
 6647SOL    HW220231   5.745   3.242   0.583
 6648SOL     OW20232   5.826   2.953   0.886
 6648SOL    HW120233   5.840   2.869   0.938
 6648SOL    HW220234   5.771   3.017   0.941
 6649SOL     OW20235   5.708   2.505   0.563
 6649SOL    HW120236   5.663   2.417   0.580
 6649SOL    HW220237   5.707   2.559   0.647
 6650SOL     OW20238   5.613   3.458   0.117
 6650SOL    HW120239   5.594   3.362   0.138
 6650SOL    HW220240   5.580   3.516   0.192
 6651SOL     OW20241   5.699   2.599   1.597
 6651SOL    HW120242   5.787   2.586   1.642
 6651SOL    HW220243   5.686   2.696   1.575
 6652SOL     OW20244   5.783   2.838   1.264
 6652SOL    HW120245   5.872   2.793   1.250
 6652SOL    HW220246   5.710   2.773   1.245
 6653SOL     OW20247   5.662   2.673   0.789
 6653SOL    HW120248   5.761   2.661   0.798
 6653SOL    HW220249   5.638   2.768   0.810
 6654SOL     OW20250   5.716   3.683   1.571
 6654SOL    HW120251   5.706   3.668   1.670
 6654SOL    HW220252   5.630   3.719   1.535
 6655SOL     OW20253   5.788   2.147   1.498
 6655SOL    HW120254   5.708   2.207   1.485
 6655SOL    HW220255   5.778   2.098   1.584
 6656SOL     OW20256   6.050   3.605   0.323
 6656SOL    HW120257   6.083   3.644   0.409
 6656SOL    HW220258   6.126   3.598   0.258
 6657SOL     OW20259   5.835   3.647   1.241
 6657SOL    HW120260   5.892   3.582   1.291
 6657SOL    HW220261   5.819   3.614   1.148
 6658SOL     OW20262   5.664   2.418   1.386
 6658SOL    HW120263   5.756   2.417   1.345
 6658SOL    HW220264   5.658   2.492   1.453
 6659SOL     OW20265   5.650   3.426   1.331
 6659SOL    HW120266   5.604   3.508   1.297
 6659SOL    HW220267   5.748   3.445   1.340
 6660SOL     OW20268   6.152   2.399   0.865
 6660SOL    HW120269   6.164   2.465   0.791
 6660SOL    HW220270   6.198   2.433   0.948
 6661SOL     OW20271   5.893   2.075   1.231
 6661SOL    HW120272   5.870   2.112   1.321
 6661SOL    HW220273   5.863   1.980   1.225
 6662SOL     OW20274   5.623   3.172   1.282
 6662SOL    HW120275   5.676   3.123   1.350
 6662SOL    HW220276   5.645   3.270   1.287
 6663SOL     OW20277   5.893   1.925   0.618
 6663SOL    HW120278   5.882   2.019   0.651
 6663SOL    HW220279   5.888   1.862   0.695
 6664SOL     OW20280   5.905   2.672   0.949
 6664SOL    HW120281   5.998   2.708   0.954
 6664SOL    HW220282   5.899   2.587   1.001
 6665SOL     OW20283   5.674   3.663   0.927
 6665SOL    HW120284   5.632   3.577   0.900
 6665SOL    HW220285   5.768   3.666   0.893
 6666SOL     OW20286   6.090   3.430   0.910
 6666SOL    HW120287   6.156   3.504   0.919
 6666SOL    HW220288   6.134   3.351   0.868
 6667SOL     OW20289   5.626   2.406   1.114
 6667SOL    HW120290   5.711   2.373   1.073
 6667SOL    HW220291   5.639   2.421   1.212
 6668SOL     OW20292   5.775   2.382   1.722
 6668SOL    HW120293   5.834   2.342   1.652
 6668SOL    HW220294   5.717   2.453   1.681
 6669SOL     OW20295   5.838   3.426   1.744
 6669SOL    HW120296   5.808   3.483   1.820
 6669SOL    HW220297   5.831   3.329   1.770
 6670SOL     OW20298   5.745   2.999   1.466
 6670SOL    HW120299   5.767   2.938   1.542
 6670SOL    HW220300   5.755   2.950   1.380
 6671SOL     OW20301   5.669   3.120   1.022
 6671SOL    HW120302   5.664   3.119   1.122
 6671SOL    HW220303   5.586   3.079   0.984
 6672SOL     OW20304   5.716   3.656   1.851
 6672SOL    HW120305   5.675   3.582   1.904
 6672SOL    HW220306   5.780   3.707   1.909
 6673SOL     OW20307   5.958   3.150   1.490
 6673SOL    HW120308   5.945   3.243   1.456
 6673SOL    HW220309   5.874   3.098   1.477
 6674SOL     OW20310   5.691   2.875   1.726
 6674SOL    HW120311   5.614   2.842   1.780
 6674SOL    HW220312   5.776   2.845   1.768
 6675SOL     OW20313   5.661   2.207   0.033
 6675SOL    HW120314   5.569   2.179   0.004
 6675SOL    HW220315   5.692   2.284  -0.023
 6676SOL     OW20316   5.658   2.028   0.318
 6676SOL    HW120317   5.641   2.111   0.264
 6676SOL    HW220318   5.748   1.991   0.296
 6677SOL     OW20319   6.199   2.704   1.431
 6677SOL    HW120320   6.255   2.785   1.414
 6677SOL    HW220321   6.258   2.624   1.434
 6678SOL     OW20322   5.665   3.102   0.653
 6678SOL    HW120323   5.664   3.055   0.741
 6678SOL    HW220324   5.747   3.074   0.602
 6679SOL     OW20325   5.625   2.939   0.300
 6679SOL    HW120326   5.724   2.928   0.291
 6679SOL    HW220327   5.585   2.853   0.332
 6680SOL     OW20328   5.816   2.490   1.975
 6680SOL    HW120329   5.723   2.488   2.012
 6680SOL    HW220330   5.817   2.451   1.883
 6681SOL     OW20331   5.811   2.137   2.858
 6681SOL    HW120332   5.846   2.120   2.950
 6681SOL    HW220333   5.723   2.092   2.846
 6682SOL     OW20334   5.605   2.230   2.509
 6682SOL    HW120335   5.523   2.273   2.548
 6682SOL    HW220336   5.577   2.157   2.446
 6683SOL     OW20337   6.271   2.874   2.527
 6683SOL    HW120338   6.340   2.858   2.597
 6683SOL    HW220339   6.198   2.931   2.565
 6684SOL     OW20340   5.921   3.297   2.923
 6684SOL    HW120341   5.843   3.266   2.870
 6684SOL    HW220342   5.979   3.355   2.866
 6685SOL     OW20343   5.817   3.575   2.345
 6685SOL    HW120344   5.851   3.652   2.399
 6685SOL    HW220345   5.861   3.575   2.255
 6686SOL     OW20346   5.816   3.296   2.400
 6686SOL    HW120347   5.790   3.392   2.400
 6686SOL    HW220348   5.745   3.242   2.445
 6687SOL     OW20349   5.826   2.953   2.748
 6687SOL    HW120350   5.840   2.869   2.800
 6687SOL    HW220351   5.771   3.017   2.803
 6688SOL     OW20352   5.708   2.505   2.425
 6688SOL    HW120353   5.663   2.417   2.442
 6688SOL    HW220354   5.707   2.559   2.509
 6689SOL     OW20355   5.613   3.458   1.979
 6689SOL    HW120356   5.594   3.362   2.000
 6689SOL    HW220357   5.580   3.516   2.054
 6690SOL     OW20358   5.699   2.599   3.459
 6690SOL    HW120359   5.787   2.586   3.504
 6690SOL    HW220360   5.686   2.696   3.437
 6691SOL     OW20361   5.783   2.838   3.126
 6691SOL    HW120362   5.872   2.793   3.112
 6691SOL    HW220363   5.710   2.773   3.107
 6692SOL     OW20364   5.662   2.673   2.651
 6692SOL    HW120365   5.761   2.661   2.660
 6692SOL    HW220366   5.638   2.768   2.672
 6693SOL     OW20367   5.716   3.683   3.433
 6693SOL    HW120368   5.706   3.668   3.532
 6693SOL    HW220369   5.630   3.719   3.397
 6694SOL     OW20370   5.788   2.147   3.360
 6694SOL    HW120371   5.708   2.207   3.347
 6694SOL    HW220372   5.778   2.098   3.446
 6695SOL     OW20373   6.050   3.605   2.185
 6695SOL    HW120374   6.083   3.644   2.271
 6695SOL    HW220375   6.126   3.598   2.120
 6696SOL     OW20376   5.835   3.647   3.103
 6696SOL    HW120377   5.892   3.582   3.153
 6696SOL    HW220378   5.819   3.614   3.010
 6697SOL     OW20379   5.883   1.897   2.033
 6697SOL    HW120380   5.932   1.981   2.012
 6697SOL    HW220381   5.945   1.832   2.078
 6698SOL     OW20382   5.664   2.418   3.248
 6698SOL    HW120383   5.756   2.417   3.207
 6698SOL    HW220384   5.658   2.492   3.315
 6699SOL     OW20385   5.650   3.426   3.193
 6699SOL    HW120386   5.604   3.508   3.159
 6699SOL    HW220387   5.748   3.445   3.202
 6700SOL     OW20388   6.152   2.399   2.727
 6700SOL    HW120389   6.164   2.465   2.653
 6700SOL    HW220390   6.198   2.433   2.810
 6701SOL     OW20391   5.893   2.075   3.093
 6701SOL    HW120392   5.870   2.112   3.183
 6701SOL    HW220393   5.863   1.980   3.087
 6702SOL     OW20394   5.623   3.172   3.144
 6702SOL    HW120395   5.676   3.123   3.212
 6702SOL    HW220396   5.645   3.270   3.149
 6703SOL     OW20397   5.893   1.925   2.480
 6703SOL    HW120398   5.882   2.019   2.513
 6703SOL    HW220399   5.888   1.862   2.557
 6704SOL     OW20400   5.905   2.672   2.811
 6704SOL    HW120401   5.998   2.708   2.816
 6704SOL    HW220402   5.899   2.587   2.863
 6705SOL     OW20403   5.594   3.188   2.062
 6705SOL    HW120404   5.501   3.209   2.031
 6705SOL    HW220405   5.604   3.089   2.075
 6706SOL     OW20406   5.674   3.663   2.789
 6706SOL    HW120407   5.632   3.577   2.762
 6706SOL    HW220408   5.768   3.666   2.755
 6707SOL     OW20409   6.090   3.430   2.772
 6707SOL    HW120410   6.156   3.504   2.781
 6707SOL    HW220411   6.134   3.351   2.730
 6708SOL     OW20412   5.626   2.406   2.976
 6708SOL    HW120413   5.711   2.373   2.935
 6708SOL    HW220414   5.639   2.421   3.074
 6709SOL     OW20415   5.775   2.382   3.584
 6709SOL    HW120416   5.834   2.342   3.514
 6709SOL    HW220417   5.717   2.453   3.543
 6710SOL     OW20418   5.838   3.426   3.606
 6710SOL    HW120419   5.808   3.483   3.682
 6710SOL    HW220420   5.831   3.329   3.632
 6711SOL     OW20421   5.745   2.999   3.328
 6711SOL    HW120422   5.767   2.938   3.404
 6711SOL    HW220423   5.755   2.950   3.242
 6712SOL     OW20424   5.669   3.120   2.884
 6712SOL    HW120425   5.664   3.119   2.984
 6712SOL    HW220426   5.586   3.079   2.846
 6713SOL     OW20427   5.716   3.656   3.713
 6713SOL    HW120428   5.675   3.582   3.766
 6713SOL    HW220429   5.780   3.707   3.771
 6714SOL     OW20430   5.958   3.150   3.352
 6714SOL    HW120431   5.945   3.243   3.318
 6714SOL    HW220432   5.874   3.098   3.339
 6715SOL     OW20433   5.691   2.875   3.588
 6715SOL    HW120434   5.614   2.842   3.642
 6715SOL    HW220435   5.776   2.845   3.630
 6716SOL     OW20436   5.661   2.207   1.895
 6716SOL    HW120437   5.569   2.179   1.866
 6716SOL    HW220438   5.692   2.284   1.839
 6717SOL     OW20439   5.658   2.028   2.180
 6717SOL    HW120440   5.641   2.111   2.126
 6717SOL    HW220441   5.748   1.991   2.158
 6718SOL     OW20442   6.199   2.704   3.293
 6718SOL    HW120443   6.255   2.785   3.276
 6718SOL    HW220444   6.258   2.624   3.296
 6719SOL     OW20445   5.665   3.102   2.515
 6719SOL    HW120446   5.664   3.055   2.603
 6719SOL    HW220447   5.747   3.074   2.464
 6720SOL     OW20448   5.625   2.939   2.162
 6720SOL    HW120449   5.724   2.928   2.153
 6720SOL    HW220450   5.585   2.853   2.194
 6721SOL     OW20451   5.816   2.490   3.837
 6721SOL    HW120452   5.723   2.488   3.874
 6721SOL    HW220453   5.817   2.451   3.745
 6722SOL     OW20454   5.811   2.137   4.720
 6722SOL    HW120455   5.846   2.120   4.812
 6722SOL    HW220456   5.723   2.092   4.708
 6723SOL     OW20457   5.605   2.230   4.371
 6723SOL    HW120458   5.523   2.273   4.410
 6723SOL    HW220459   5.577   2.157   4.308
 6724SOL     OW20460   6.271   2.874   4.389
 6724SOL    HW120461   6.340   2.858   4.459
 6724SOL    HW220462   6.198   2.931   4.427
 6725SOL     OW20463   5.921   3.297   4.785
 6725SOL    HW120464   5.843   3.266   4.732
 6725SOL    HW220465   5.979   3.355   4.728
 6726SOL     OW20466   5.817   3.575   4.207
 6726SOL    HW120467   5.851   3.652   4.261
 6726SOL    HW220468   5.861   3.575   4.117
 6727SOL     OW20469   5.816   3.296   4.262
 6727SOL    HW120470   5.790   3.392   4.262
 6727SOL    HW220471   5.745   3.242   4.307
 6728SOL     OW20472   5.826   2.953   4.610
 6728SOL    HW120473   5.840   2.869   4.662
 6728SOL    HW220474   5.771   3.017   4.665
 6729SOL     OW20475   5.708   2.505   4.287
 6729SOL    HW120476   5.663   2.417   4.304
 6729SOL    HW220477   5.707   2.559   4.371
 6730SOL     OW20478   5.613   3.458   3.841
 6730SOL    HW120479   5.594   3.362   3.862
 6730SOL    HW220480   5.580   3.516   3.916
 6731SOL     OW20481   5.699   2.599   5.321
 6731SOL    HW120482   5.787   2.586   5.366
 6731SOL    HW220483   5.686   2.696   5.299
 6732SOL     OW20484   5.783   2.838   4.988
 6732SOL    HW120485   5.872   2.793   4.974
 6732SOL    HW220486   5.710   2.773   4.969
 6733SOL     OW20487   5.662   2.673   4.513
 6733SOL    HW120488   5.761   2.661   4.522
 6733SOL    HW220489   5.638   2.768   4.534
 6734SOL     OW20490   5.716   3.683   5.295
 6734SOL    HW120491   5.706   3.668   5.394
 6734SOL    HW220492   5.630   3.719   5.259
 6735SOL     OW20493   5.788   2.147   5.222
 6735SOL    HW120494   5.708   2.207   5.209
 6735SOL    HW220495   5.778   2.098   5.308
 6736SOL     OW20496   6.050   3.605   4.047
 6736SOL    HW120497   6.083   3.644   4.133
 6736SOL    HW220498   6.126   3.598   3.982
 6737SOL     OW20499   5.835   3.647   4.965
 6737SOL    HW120500   5.892   3.582   5.015
 6737SOL    HW220501   5.819   3.614   4.872
 6738SOL     OW20502   5.883   1.897   3.895
 6738SOL    HW120503   5.932   1.981   3.874
 6738SOL    HW220504   5.945   1.832   3.940
 6739SOL     OW20505   5.664   2.418   5.110
 6739SOL    HW120506   5.756   2.417   5.069
 6739SOL    HW220507   5.658   2.492   5.177
 6740SOL     OW20508   5.650   3.426   5.055
 6740SOL    HW120509   5.604   3.508   5.021
 6740SOL    HW220510   5.748   3.445   5.064
 6741SOL     OW20511   6.152   2.399   4.589
 6741SOL    HW120512   6.164   2.465   4.515
 6741SOL    HW220513   6.198   2.433   4.672
 6742SOL     OW20514   5.893   2.075   4.955
 6742SOL    HW120515   5.870   2.112   5.045
 6742SOL    HW220516   5.863   1.980   4.949
 6743SOL     OW20517   5.623   3.172   5.006
 6743SOL    HW120518   5.676   3.123   5.074
 6743SOL    HW220519   5.645   3.270   5.011
 6744SOL     OW20520   5.893   1.925   4.342
 6744SOL    HW120521   5.882   2.019   4.375
 6744SOL    HW220522   5.888   1.862   4.419
 6745SOL     OW20523   5.905   2.672   4.673
 6745SOL    HW120524   5.998   2.708   4.678
 6745SOL    HW220525   5.899   2.587   4.725
 6746SOL     OW20526   5.594   3.188   3.924
 6746SOL    HW120527   5.501   3.209   3.893
 6746SOL    HW220528   5.604   3.089   3.937
 6747SOL     OW20529   5.674   3.663   4.651
 6747SOL    HW120530   5.632   3.577   4.624
 6747SOL    HW220531   5.768   3.666   4.617
 6748SOL     OW20532   6.090   3.430   4.634
 6748SOL    HW120533   6.156   3.504   4.643
 6748SOL    HW220534   6.134   3.351   4.592
 6749SOL     OW20535   5.626   2.406   4.838
 6749SOL    HW120536   5.711   2.373   4.797
 6749SOL    HW220537   5.639   2.421   4.936
 6750SOL     OW20538   5.775   2.382   5.446
 6750SOL    HW120539   5.834   2.342   5.376
 6750SOL    HW220540   5.717   2.453   5.405
 6751SOL     OW20541   5.838   3.426   5.468
 6751SOL    HW120542   5.808   3.483   5.544
 6751SOL    HW220543   5.831   3.329   5.494
 6752SOL     OW20544   5.745   2.999   5.190
 6752SOL    HW120545   5.767   2.938   5.266
 6752SOL    HW220546   5.755   2.950   5.104
 6753SOL     OW20547   5.669   3.120   4.746
 6753SOL    HW120548   5.664   3.119   4.846
 6753SOL    HW220549   5.586   3.079   4.708
 6754SOL     OW20550   5.716   3.656   5.575
 6754SOL    HW120551   5.675   3.582   5.628
 6754SOL    HW220552   5.780   3.707   5.633
 6755SOL     OW20553   5.958   3.150   5.214
 6755SOL    HW120554   5.945   3.243   5.180
 6755SOL    HW220555   5.874   3.098   5.201
 6756SOL     OW20556   5.691   2.875   5.450
 6756SOL    HW120557   5.614   2.842   5.504
 6756SOL    HW220558   5.776   2.845   5.492
 6757SOL     OW20559   5.661   2.207   3.757
 6757SOL    HW120560   5.569   2.179   3.728
 6757SOL    HW220561   5.692   2.284   3.701
 6758SOL     OW20562   5.658   2.028   4.042
 6758SOL    HW120563   5.641   2.111   3.988
 6758SOL    HW220564   5.748   1.991   4.020
 6759SOL     OW20565   6.199   2.704   5.155
 6759SOL    HW120566   6.255   2.785   5.138
 6759SOL    HW220567   6.258   2.624   5.158
 6760SOL     OW20568   5.665   3.102   4.377
 6760SOL    HW120569   5.664   3.055   4.465
 6760SOL    HW220570   5.747   3.074   4.326
 6761SOL     OW20571   5.625   2.939   4.024
 6761SOL    HW120572   5.724   2.928   4.015
 6761SOL    HW220573   5.585   2.853   4.056
 6762SOL     OW20574   5.816   2.490   5.699
 6762SOL    HW120575   5.723   2.488   5.736
 6762SOL    HW220576   5.817   2.451   5.607
 6763SOL     OW20577   5.817   3.575   6.069
 6763SOL    HW120578   5.851   3.652   6.123
 6763SOL    HW220579   5.861   3.575   5.979
 6764SOL     OW20580   5.613   3.458   5.703
 6764SOL    HW120581   5.594   3.362   5.724
 6764SOL    HW220582   5.580   3.516   5.778
 6765SOL     OW20583   6.050   3.605   5.909
 6765SOL    HW120584   6.083   3.644   5.995
 6765SOL    HW220585   6.126   3.598   5.844
 6766SOL     OW20586   5.883   1.897   5.757
 6766SOL    HW120587   5.932   1.981   5.736
 6766SOL    HW220588   5.945   1.832   5.802
 6767SOL     OW20589   5.893   1.925   6.204
 6767SOL    HW120590   5.882   2.019   6.237
 6767SOL    HW220591   5.888   1.862   6.281
 6768SOL     OW20592   5.594   3.188   5.786
 6768SOL    HW120593   5.501   3.209   5.755
 6768SOL    HW220594   5.604   3.089   5.799
 6769SOL     OW20595   5.661   2.207   5.619
 6769SOL    HW120596   5.569   2.179   5.590
 6769SOL    HW220597   5.692   2.284   5.563
 6770SOL     OW20598   5.658   2.028   5.904
 6770SOL    HW120599   5.641   2.111   5.850
 6770SOL    HW220600   5.748   1.991   5.882
 6771SOL     OW20601   5.625   2.939   5.886
 6771SOL    HW120602   5.724   2.928   5.877
 6771SOL    HW220603   5.585   2.853   5.918
 6772SOL     OW20604   5.816   4.352   0.113
 6772SOL    HW120605   5.723   4.350   0.150
 6772SOL    HW220606   5.817   4.313   0.021
 6773SOL     OW20607   5.811   3.999   0.996
 6773SOL    HW120608   5.846   3.982   1.088
 6773SOL    HW220609   5.723   3.954   0.984
 6774SOL     OW20610   5.605   4.092   0.647
 6774SOL    HW120611   5.523   4.135   0.686
 6774SOL    HW220612   5.577   4.019   0.584
 6775SOL     OW20613   6.271   4.736   0.665
 6775SOL    HW120614   6.340   4.720   0.735
 6775SOL    HW220615   6.198   4.793   0.703
 6776SOL     OW20616   5.921   5.159   1.061
 6776SOL    HW120617   5.843   5.128   1.008
 6776SOL    HW220618   5.979   5.217   1.004
 6777SOL     OW20619   5.817   5.437   0.483
 6777SOL    HW120620   5.851   5.514   0.537
 6777SOL    HW220621   5.861   5.437   0.393
 6778SOL     OW20622   5.816   5.158   0.538
 6778SOL    HW120623   5.790   5.254   0.538
 6778SOL    HW220624   5.745   5.104   0.583
 6779SOL     OW20625   5.826   4.815   0.886
 6779SOL    HW120626   5.840   4.731   0.938
 6779SOL    HW220627   5.771   4.879   0.941
 6780SOL     OW20628   5.708   4.367   0.563
 6780SOL    HW120629   5.663   4.279   0.580
 6780SOL    HW220630   5.707   4.421   0.647
 6781SOL     OW20631   5.613   5.320   0.117
 6781SOL    HW120632   5.594   5.224   0.138
 6781SOL    HW220633   5.580   5.378   0.192
 6782SOL     OW20634   5.699   4.461   1.597
 6782SOL    HW120635   5.787   4.448   1.642
 6782SOL    HW220636   5.686   4.558   1.575
 6783SOL     OW20637   5.783   4.700   1.264
 6783SOL    HW120638   5.872   4.655   1.250
 6783SOL    HW220639   5.710   4.635   1.245
 6784SOL     OW20640   5.662   4.535   0.789
 6784SOL    HW120641   5.761   4.523   0.798
 6784SOL    HW220642   5.638   4.630   0.810
 6785SOL     OW20643   5.716   5.545   1.571
 6785SOL    HW120644   5.706   5.530   1.670
 6785SOL    HW220645   5.630   5.581   1.535
 6786SOL     OW20646   5.788   4.009   1.498
 6786SOL    HW120647   5.708   4.069   1.485
 6786SOL    HW220648   5.778   3.960   1.584
 6787SOL     OW20649   6.050   5.467   0.323
 6787SOL    HW120650   6.083   5.506   0.409
 6787SOL    HW220651   6.126   5.460   0.258
 6788SOL     OW20652   5.835   5.509   1.241
 6788SOL    HW120653   5.892   5.444   1.291
 6788SOL    HW220654   5.819   5.476   1.148
 6789SOL     OW20655   5.664   4.280   1.386
 6789SOL    HW120656   5.756   4.279   1.345
 6789SOL    HW220657   5.658   4.354   1.453
 6790SOL     OW20658   5.650   5.288   1.331
 6790SOL    HW120659   5.604   5.370   1.297
 6790SOL    HW220660   5.748   5.307   1.340
 6791SOL     OW20661   6.152   4.261   0.865
 6791SOL    HW120662   6.164   4.327   0.791
 6791SOL    HW220663   6.198   4.295   0.948
 6792SOL     OW20664   5.893   3.937   1.231
 6792SOL    HW120665   5.870   3.974   1.321
 6792SOL    HW220666   5.863   3.842   1.225
 6793SOL     OW20667   5.623   5.034   1.282
 6793SOL    HW120668   5.676   4.985   1.350
 6793SOL    HW220669   5.645   5.132   1.287
 6794SOL     OW20670   5.893   3.787   0.618
 6794SOL    HW120671   5.882   3.881   0.651
 6794SOL    HW220672   5.888   3.724   0.695
 6795SOL     OW20673   5.905   4.534   0.949
 6795SOL    HW120674   5.998   4.570   0.954
 6795SOL    HW220675   5.899   4.449   1.001
 6796SOL     OW20676   5.674   5.525   0.927
 6796SOL    HW120677   5.632   5.439   0.900
 6796SOL    HW220678   5.768   5.528   0.893
 6797SOL     OW20679   6.090   5.292   0.910
 6797SOL    HW120680   6.156   5.366   0.919
 6797SOL    HW220681   6.134   5.213   0.868
 6798SOL     OW20682   5.626   4.268   1.114
 6798SOL    HW120683   5.711   4.235   1.073
 6798SOL    HW220684   5.639   4.283   1.212
 6799SOL     OW20685   5.775   4.244   1.722
 6799SOL    HW120686   5.834   4.204   1.652
 6799SOL    HW220687   5.717   4.315   1.681
 6800SOL     OW20688   5.838   5.288   1.744
 6800SOL    HW120689   5.808   5.345   1.820
 6800SOL    HW220690   5.831   5.191   1.770
 6801SOL     OW20691   5.745   4.861   1.466
 6801SOL    HW120692   5.767   4.800   1.542
 6801SOL    HW220693   5.755   4.812   1.380
 6802SOL     OW20694   5.669   4.982   1.022
 6802SOL    HW120695   5.664   4.981   1.122
 6802SOL    HW220696   5.586   4.941   0.984
 6803SOL     OW20697   5.716   5.518   1.851
 6803SOL    HW120698   5.675   5.444   1.904
 6803SOL    HW220699   5.780   5.569   1.909
 6804SOL     OW20700   5.958   5.012   1.490
 6804SOL    HW120701   5.945   5.105   1.456
 6804SOL    HW220702   5.874   4.960   1.477
 6805SOL     OW20703   5.691   4.737   1.726
 6805SOL    HW120704   5.614   4.704   1.780
 6805SOL    HW220705   5.776   4.707   1.768
 6806SOL     OW20706   5.661   4.069   0.033
 6806SOL    HW120707   5.569   4.041   0.004
 6806SOL    HW220708   5.692   4.146  -0.023
 6807SOL     OW20709   5.658   3.890   0.318
 6807SOL    HW120710   5.641   3.973   0.264
 6807SOL    HW220711   5.748   3.853   0.296
 6808SOL     OW20712   6.199   4.566   1.431
 6808SOL    HW120713   6.255   4.647   1.414
 6808SOL    HW220714   6.258   4.486   1.434
 6809SOL     OW20715   5.665   4.964   0.653
 6809SOL    HW120716   5.664   4.917   0.741
 6809SOL    HW220717   5.747   4.936   0.602
 6810SOL     OW20718   5.625   4.801   0.300
 6810SOL    HW120719   5.724   4.790   0.291
 6810SOL    HW220720   5.585   4.715   0.332
 6811SOL     OW20721   5.816   4.352   1.975
 6811SOL    HW120722   5.723   4.350   2.012
 6811SOL    HW220723   5.817   4.313   1.883
 6812SOL     OW20724   5.811   3.999   2.858
 6812SOL    HW120725   5.846   3.982   2.950
 6812SOL    HW220726   5.723   3.954   2.846
 6813SOL     OW20727   5.605   4.092   2.509
 6813SOL    HW120728   5.523   4.135   2.548
 6813SOL    HW220729   5.577   4.019   2.446
 6814SOL     OW20730   6.271   4.736   2.527
 6814SOL    HW120731   6.340   4.720   2.597
 6814SOL    HW220732   6.198   4.793   2.565
 6815SOL     OW20733   5.921   5.159   2.923
 6815SOL    HW120734   5.843   5.128   2.870
 6815SOL    HW220735   5.979   5.217   2.866
 6816SOL     OW20736   5.817   5.437   2.345
 6816SOL    HW120737   5.851   5.514   2.399
 6816SOL    HW220738   5.861   5.437   2.255
 6817SOL     OW20739   5.816   5.158   2.400
 6817SOL    HW120740   5.790   5.254   2.400
 6817SOL    HW220741   5.745   5.104   2.445
 6818SOL     OW20742   5.826   4.815   2.748
 6818SOL    HW120743   5.840   4.731   2.800
 6818SOL    HW220744   5.771   4.879   2.803
 6819SOL     OW20745   5.708   4.367   2.425
 6819SOL    HW120746   5.663   4.279   2.442
 6819SOL    HW220747   5.707   4.421   2.509
 6820SOL     OW20748   5.613   5.320   1.979
 6820SOL    HW120749   5.594   5.224   2.000
 6820SOL    HW220750   5.580   5.378   2.054
 6821SOL     OW20751   5.699   4.461   3.459
 6821SOL    HW120752   5.787   4.448   3.504
 6821SOL    HW220753   5.686   4.558   3.437
 6822SOL     OW20754   5.783   4.700   3.126
 6822SOL    HW120755   5.872   4.655   3.112
 6822SOL    HW220756   5.710   4.635   3.107
 6823SOL     OW20757   5.662   4.535   2.651
 6823SOL    HW120758   5.761   4.523   2.660
 6823SOL    HW220759   5.638   4.630   2.672
 6824SOL     OW20760   5.716   5.545   3.433
 6824SOL    HW120761   5.706   5.530   3.532
 6824SOL    HW220762   5.630   5.581   3.397
 6825SOL     OW20763   5.788   4.009   3.360
 6825SOL    HW120764   5.708   4.069   3.347
 6825SOL    HW220765   5.778   3.960   3.446
 6826SOL     OW20766   6.050   5.467   2.185
 6826SOL    HW120767   6.083   5.506   2.271
 6826SOL    HW220768   6.126   5.460   2.120
 6827SOL     OW20769   5.835   5.509   3.103
 6827SOL    HW120770   5.892   5.444   3.153
 6827SOL    HW220771   5.819   5.476   3.010
 6828SOL     OW20772   5.883   3.759   2.033
 6828SOL    HW120773   5.932   3.843   2.012
 6828SOL    HW220774   5.945   3.694   2.078
 6829SOL     OW20775   5.664   4.280   3.248
 6829SOL    HW120776   5.756   4.279   3.207
 6829SOL    HW220777   5.658   4.354   3.315
 6830SOL     OW20778   5.650   5.288   3.193
 6830SOL    HW120779   5.604   5.370   3.159
 6830SOL    HW220780   5.748   5.307   3.202
 6831SOL     OW20781   6.152   4.261   2.727
 6831SOL    HW120782   6.164   4.327   2.653
 6831SOL    HW220783   6.198   4.295   2.810
 6832SOL     OW20784   5.893   3.937   3.093
 6832SOL    HW120785   5.870   3.974   3.183
 6832SOL    HW220786   5.863   3.842   3.087
 6833SOL     OW20787   5.623   5.034   3.144
 6833SOL    HW120788   5.676   4.985   3.212
 6833SOL    HW220789   5.645   5.132   3.149
 6834SOL     OW20790   5.893   3.787   2.480
 6834SOL    HW120791   5.882   3.881   2.513
 6834SOL    HW220792   5.888   3.724   2.557
 6835SOL     OW20793   5.905   4.534   2.811
 6835SOL    HW120794   5.998   4.570   2.816
 6835SOL    HW220795   5.899   4.449   2.863
 6836SOL     OW20796   5.594   5.050   2.062
 6836SOL    HW120797   5.501   5.071   2.031
 6836SOL    HW220798   5.604   4.951   2.075
 6837SOL     OW20799   5.674   5.525   2.789
 6837SOL    HW120800   5.632   5.439   2.762
 6837SOL    HW220801   5.768   5.528   2.755
 6838SOL     OW20802   6.090   5.292   2.772
 6838SOL    HW120803   6.156   5.366   2.781
 6838SOL    HW220804   6.134   5.213   2.730
 6839SOL     OW20805   5.626   4.268   2.976
 6839SOL    HW120806   5.711   4.235   2.935
 6839SOL    HW220807   5.639   4.283   3.074
 6840SOL     OW20808   5.775   4.244   3.584
 6840SOL    HW120809   5.834   4.204   3.514
 6840SOL    HW220810   5.717   4.315   3.543
 6841SOL     OW20811   5.838   5.288   3.606
 6841SOL    HW120812   5.808   5.345   3.682
 6841SOL    HW220813   5.831   5.191   3.632
 6842SOL     OW20814   5.745   4.861   3.328
 6842SOL    HW120815   5.767   4.800   3.404
 6842SOL    HW220816   5.755   4.812   3.242
 6843SOL     OW20817   5.669   4.982   2.884
 6843SOL    HW120818   5.664   4.981   2.984
 6843SOL    HW220819   5.586   4.941   2.846
 6844SOL     OW20820   5.716   5.518   3.713
 6844SOL    HW120821   5.675   5.444   3.766
 6844SOL    HW220822   5.780   5.569   3.771
 6845SOL     OW20823   5.958   5.012   3.352
 6845SOL    HW120824   5.945   5.105   3.318
 6845SOL    HW220825   5.874   4.960   3.339
 6846SOL     OW20826   5.691   4.737   3.588
 6846SOL    HW120827   5.614   4.704   3.642
 6846SOL    HW220828   5.776   4.707   3.630
 6847SOL     OW20829   5.661   4.069   1.895
 6847SOL    HW120830   5.569   4.041   1.866
 6847SOL    HW220831   5.692   4.146   1.839
 6848SOL     OW20832   5.658   3.890   2.180
 6848SOL    HW120833   5.641   3.973   2.126
 6848SOL    HW220834   5.748   3.853   2.158
 6849SOL     OW20835   6.199   4.566   3.293
 6849SOL    HW120836   6.255   4.647   3.276
 6849SOL    HW220837   6.258   4.486   3.296
 6850SOL     OW20838   5.665   4.964   2.515
 6850SOL    HW120839   5.664   4.917   2.603
 6850SOL    HW220840   5.747   4.936   2.464
 6851SOL     OW20841   5.625   4.801   2.162
 6851SOL    HW120842   5.724   4.790   2.153
 6851SOL    HW220843   5.585   4.715   2.194
 6852SOL     OW20844   5.816   4.352   3.837
 6852SOL    HW120845   5.723   4.350   3.874
 6852SOL    HW220846   5.817   4.313   3.745
 6853SOL     OW20847   5.811   3.999   4.720
 6853SOL    HW120848   5.846   3.982   4.812
 6853SOL    HW220849   5.723   3.954   4.708
 6854SOL     OW20850   5.605   4.092   4.371
 6854SOL    HW120851   5.523   4.135   4.410
 6854SOL    HW220852   5.577   4.019   4.308
 6855SOL     OW20853   6.271   4.736   4.389
 6855SOL    HW120854   6.340   4.720   4.459
 6855SOL    HW220855   6.198   4.793   4.427
 6856SOL     OW20856   5.921   5.159   4.785
 6856SOL    HW120857   5.843   5.128   4.732
 6856SOL    HW220858   5.979   5.217   4.728
 6857SOL     OW20859   5.817   5.437   4.207
 6857SOL    HW120860   5.851   5.514   4.261
 6857SOL    HW220861   5.861   5.437   4.117
 6858SOL     OW20862   5.816   5.158   4.262
 6858SOL    HW120863   5.790   5.254   4.262
 6858SOL    HW220864   5.745   5.104   4.307
 6859SOL     OW20865   5.826   4.815   4.610
 6859SOL    HW120866   5.840   4.731   4.662
 6859SOL    HW220867   5.771   4.879   4.665
 6860SOL     OW20868   5.708   4.367   4.287
 6860SOL    HW120869   5.663   4.279   4.304
 6860SOL    HW220870   5.707   4.421   4.371
 6861SOL     OW20871   5.613   5.320   3.841
 6861SOL    HW120872   5.594   5.224   3.862
 6861SOL    HW220873   5.580   5.378   3.916
 6862SOL     OW20874   5.699   4.461   5.321
 6862SOL    HW120875   5.787   4.448   5.366
 6862SOL    HW220876   5.686   4.558   5.299
 6863SOL     OW20877   5.783   4.700   4.988
 6863SOL    HW120878   5.872   4.655   4.974
 6863SOL    HW220879   5.710   4.635   4.969
 6864SOL     OW20880   5.662   4.535   4.513
 6864SOL    HW120881   5.761   4.523   4.522
 6864SOL    HW220882   5.638   4.630   4.534
 6865SOL     OW20883   5.716   5.545   5.295
 6865SOL    HW120884   5.706   5.530   5.394
 6865SOL    HW220885   5.630   5.581   5.259
 6866SOL     OW20886   5.788   4.009   5.222
 6866SOL    HW120887   5.708   4.069   5.209
 6866SOL    HW220888   5.778   3.960   5.308
 6867SOL     OW20889   6.050   5.467   4.047
 6867SOL    HW120890   6.083   5.506   4.133
 6867SOL    HW220891   6.126   5.460   3.982
 6868SOL     OW20892   5.835   5.509   4.965
 6868SOL    HW120893   5.892   5.444   5.015
 6868SOL    HW220894   5.819   5.476   4.872
 6869SOL     OW20895   5.883   3.759   3.895
 6869SOL    HW120896   5.932   3.843   3.874
 6869SOL    HW220897   5.945   3.694   3.940
 6870SOL     OW20898   5.664   4.280   5.110
 6870SOL    HW120899   5.756   4.279   5.069
 6870SOL    HW220900   5.658   4.354   5.177
 6871SOL     OW20901   5.650   5.288   5.055
 6871SOL    HW120902   5.604   5.370   5.021
 6871SOL    HW220903   5.748   5.307   5.064
 6872SOL     OW20904   6.152   4.261   4.589
 6872SOL    HW120905   6.164   4.327   4.515
 6872SOL    HW220906   6.198   4.295   4.672
 6873SOL     OW20907   5.893   3.937   4.955
 6873SOL    HW120908   5.870   3.974   5.045
 6873SOL    HW220909   5.863   3.842   4.949
 6874SOL     OW20910   5.623   5.034   5.006
 6874SOL    HW120911   5.676   4.985   5.074
 6874SOL    HW220912   5.645   5.132   5.011
 6875SOL     OW20913   5.893   3.787   4.342
 6875SOL    HW120914   5.882   3.881   4.375
 6875SOL    HW220915   5.888   3.724   4.419
 6876SOL     OW20916   5.905   4.534   4.673
 6876SOL    HW120917   5.998   4.570   4.678
 6876SOL    HW220918   5.899   4.449   4.725
 6877SOL     OW20919   5.594   5.050   3.924
 6877SOL    HW120920   5.501   5.071   3.893
 6877SOL    HW220921   5.604   4.951   3.937
 6878SOL     OW20922   5.674   5.525   4.651
 6878SOL    HW120923   5.632   5.439   4.624
 6878SOL    HW220924   5.768   5.528   4.617
 6879SOL     OW20925   6.090   5.292   4.634
 6879SOL    HW120926   6.156   5.366   4.643
 6879SOL    HW220927   6.134   5.213   4.592
 6880SOL     OW20928   5.626   4.268   4.838
 6880SOL    HW120929   5.711   4.235   4.797
 6880SOL    HW220930   5.639   4.283   4.936
 6881SOL     OW20931   5.775   4.244   5.446
 6881SOL    HW120932   5.834   4.204   5.376
 6881SOL    HW220933   5.717   4.315   5.405
 6882SOL     OW20934   5.838   5.288   5.468
 6882SOL    HW120935   5.808   5.345   5.544
 6882SOL    HW220936   5.831   5.191   5.494
 6883SOL     OW20937   5.745   4.861   5.190
 6883SOL    HW120938   5.767   4.800   5.266
 6883SOL    HW220939   5.755   4.812   5.104
 6884SOL     OW20940   5.669   4.982   4.746
 6884SOL    HW120941   5.664   4.981   4.846
 6884SOL    HW220942   5.586   4.941   4.708
 6885SOL     OW20943   5.716   5.518   5.575
 6885SOL    HW120944   5.675   5.444   5.628
 6885SOL    HW220945   5.780   5.569   5.633
 6886SOL     OW20946   5.958   5.012   5.214
 6886SOL    HW120947   5.945   5.105   5.180
 6886SOL    HW220948   5.874   4.960   5.201
 6887SOL     OW20949   5.691   4.737   5.450
 6887SOL    HW120950   5.614   4.704   5.504
 6887SOL    HW220951   5.776   4.707   5.492
 6888SOL     OW20952   5.661   4.069   3.757
 6888SOL    HW120953   5.569   4.041   3.728
 6888SOL    HW220954   5.692   4.146   3.701
 6889SOL     OW20955   5.658   3.890   4.042
 6889SOL    HW120956   5.641   3.973   3.988
 6889SOL    HW220957   5.748   3.853   4.020
 6890SOL     OW20958   6.199   4.566   5.155
 6890SOL    HW120959   6.255   4.647   5.138
 6890SOL    HW220960   6.258   4.486   5.158
 6891SOL     OW20961   5.665   4.964   4.377
 6891SOL    HW120962   5.664   4.917   4.465
 6891SOL    HW220963   5.747   4.936   4.326
 6892SOL     OW20964   5.625   4.801   4.024
 6892SOL    HW120965   5.724   4.790   4.015
 6892SOL    HW220966   5.585   4.715   4.056
 6893SOL     OW20967   5.816   4.352   5.699
 6893SOL    HW120968   5.723   4.350   5.736
 6893SOL    HW220969   5.817   4.313   5.607
 6894SOL     OW20970   5.817   5.437   6.069
 6894SOL    HW120971   5.851   5.514   6.123
 6894SOL    HW220972   5.861   5.437   5.979
 6895SOL     OW20973   5.613   5.320   5.703
 6895SOL    HW120974   5.594   5.224   5.724
 6895SOL    HW220975   5.580   5.378   5.778
 6896SOL     OW20976   6.050   5.467   5.909
 6896SOL    HW120977   6.083   5.506   5.995
 6896SOL    HW220978   6.126   5.460   5.844
 6897SOL     OW20979   5.883   3.759   5.757
 6897SOL    HW120980   5.932   3.843   5.736
 6897SOL    HW220981   5.945   3.694   5.802
 6898SOL     OW20982   5.893   3.787   6.204
 6898SOL    HW120983   5.882   3.881   6.237
 6898SOL    HW220984   5.888   3.724   6.281
 6899SOL     OW20985   5.594   5.050   5.786
 6899SOL    HW120986   5.501   5.071   5.755
 6899SOL    HW220987   5.604   4.951   5.799
 6900SOL     OW20988   5.661   4.069   5.619
 6900SOL    HW120989   5.569   4.041   5.590
 6900SOL    HW220990   5.692   4.146   5.563
 6901SOL     OW20991   5.658   3.890   5.904
 6901SOL    HW120992   5.641   3.973   5.850
 6901SOL    HW220993   5.748   3.853   5.882
 6902SOL     OW20994   5.625   4.801   5.886
 6902SOL    HW120995   5.724   4.790   5.877
 6902SOL    HW220996   5.585   4.715   5.918
 6903SOL     OW20997   5.816   6.214   0.113
 6903SOL    HW120998   5.723   6.212   0.150
 6903SOL    HW220999   5.817   6.175   0.021
 6904SOL     OW21000   5.811   5.861   0.996
 6904SOL    HW121001   5.846   5.844   1.088
 6904SOL    HW221002   5.723   5.816   0.984
 6905SOL     OW21003   5.605   5.954   0.647
 6905SOL    HW121004   5.523   5.997   0.686
 6905SOL    HW221005   5.577   5.881   0.584
 6906SOL     OW21006   5.788   5.871   1.498
 6906SOL    HW121007   5.708   5.931   1.485
 6906SOL    HW221008   5.778   5.822   1.584
 6907SOL     OW21009   5.893   5.799   1.231
 6907SOL    HW121010   5.870   5.836   1.321
 6907SOL    HW221011   5.863   5.704   1.225
 6908SOL     OW21012   5.893   5.649   0.618
 6908SOL    HW121013   5.882   5.743   0.651
 6908SOL    HW221014   5.888   5.586   0.695
 6909SOL     OW21015   5.661   5.931   0.033
 6909SOL    HW121016   5.569   5.903   0.004
 6909SOL    HW221017   5.692   6.008  -0.023
 6910SOL     OW21018   5.658   5.752   0.318
 6910SOL    HW121019   5.641   5.835   0.264
 6910SOL    HW221020   5.748   5.715   0.296
 6911SOL     OW21021   5.816   6.214   1.975
 6911SOL    HW121022   5.723   6.212   2.012
 6911SOL    HW221023   5.817   6.175   1.883
 6912SOL     OW21024   5.811   5.861   2.858
 6912SOL    HW121025   5.846   5.844   2.950
 6912SOL    HW221026   5.723   5.816   2.846
 6913SOL     OW21027   5.605   5.954   2.509
 6913SOL    HW121028   5.523   5.997   2.548
 6913SOL    HW221029   5.577   5.881   2.446
 6914SOL     OW21030   5.788   5.871   3.360
 6914SOL    HW121031   5.708   5.931   3.347
 6914SOL    HW221032   5.778   5.822   3.446
 6915SOL     OW21033   5.883   5.621   2.033
 6915SOL    HW121034   5.932   5.705   2.012
 6915SOL    HW221035   5.945   5.556   2.078
 6916SOL     OW21036   5.893   5.799   3.093
 6916SOL    HW121037   5.870   5.836   3.183
 6916SOL    HW221038   5.863   5.704   3.087
 6917SOL     OW21039   5.893   5.649   2.480
 6917SOL    HW121040   5.882   5.743   2.513
 6917SOL    HW221041   5.888   5.586   2.557
 6918SOL     OW21042   5.661   5.931   1.895
 6918SOL    HW121043   5.569   5.903   1.866
 6918SOL    HW221044   5.692   6.008   1.839
 6919SOL     OW21045   5.658   5.752   2.180
 6919SOL    HW121046   5.641   5.835   2.126
 6919SOL    HW221047   5.748   5.715   2.158
 6920SOL     OW21048   5.816   6.214   3.837
 6920SOL    HW121049   5.723   6.212   3.874
 6920SOL    HW221050   5.817   6.175   3.745
 6921SOL     OW21051   5.811   5.861   4.720
 6921SOL    HW121052   5.846   5.844   4.812
 6921SOL    HW221053   5.723   5.816   4.708
 6922SOL     OW21054   5.605   5.954   4.371
 6922SOL    HW121055   5.523   5.997   4.410
 6922SOL    HW221056   5.577   5.881   4.308
 6923SOL     OW21057   5.788   5.871   5.222
 6923SOL    HW121058   5.708   5.931   5.209
 6923SOL    HW221059   5.778   5.822   5.308
 6924SOL     OW21060   5.883   5.621   3.895
 6924SOL    HW121061   5.932   5.705   3.874
 6924SOL    HW221062   5.945   5.556   3.940
 6925SOL     OW21063   5.893   5.799   4.955
 6925SOL    HW121064   5.870   5.836   5.045
 6925SOL    HW221065   5.863   5.704   4.949
 6926SOL     OW21066   5.893   5.649   4.342
 6926SOL    HW121067   5.882   5.743   4.375
 6926SOL    HW221068   5.888   5.586   4.419
 6927SOL     OW21069   5.661   5.931   3.757
 6927SOL    HW121070   5.569   5.903   3.728
 6927SOL    HW221071   5.692   6.008   3.701
 6928SOL     OW21072   5.658   5.752   4.042
 6928SOL    HW121073   5.641   5.835   3.988
 6928SOL    HW221074   5.748   5.715   4.020
 6929SOL     OW21075   5.816   6.214   5.699
 6929SOL    HW121076   5.723   6.212   5.736
 6929SOL    HW221077   5.817   6.175   5.607
 6930SOL     OW21078   5.883   5.621   5.757
 6930SOL    HW121079   5.932   5.705   5.736
 6930SOL    HW221080   5.945   5.556   5.802
 6931SOL     OW21081   5.893   5.649   6.204
 6931SOL    HW121082   5.882   5.743   6.237
 6931SOL    HW221083   5.888   5.586   6.281
 6932SOL     OW21084   5.661   5.931   5.619
 6932SOL    HW121085   5.569   5.903   5.590
 6932SOL    HW221086   5.692   6.008   5.563
 6933SOL     OW21087   5.658   5.752   5.904
 6933SOL    HW121088   5.641   5.835   5.850
 6933SOL    HW221089   5.748   5.715   5.882
 6934CL      CL21090   0.504   3.430   0.910
 6935CL      CL21091   4.322   0.729   0.270
   5.99195   5.99195   5.99195
