Great Red Owns Many ACres of Sand 
  353
    1MET      N    1   1.905   2.021   3.792
    1MET     H1    2   1.878   1.998   3.699
    1MET     H2    3   2.005   2.023   3.799
    1MET     H3    4   1.869   1.952   3.855
    1MET     CA    5   1.851   2.153   3.828
    1MET     HA    6   1.752   2.145   3.819
    1MET     CB    7   1.892   2.189   3.972
    1MET    HB1    8   1.879   2.287   3.985
    1MET    HB2    9   1.988   2.165   3.985
    1MET     CG   10   1.811   2.115   4.076
    1MET    HG1   11   1.827   2.018   4.059
    1MET    HG2   12   1.715   2.137   4.055
    1MET     SD   13   1.858   2.165   4.242
    1MET     CE   14   1.722   2.097   4.337
    1MET    HE1   15   1.736   2.118   4.434
    1MET    HE2   16   1.636   2.137   4.306
    1MET    HE3   17   1.719   1.998   4.325
    1MET      C   18   1.907   2.260   3.735
    1MET      O   19   1.994   2.232   3.653
    2LYS      N   20   1.855   2.382   3.747
    2LYS      H   21   1.785   2.401   3.816
    2LYS     CA   22   1.901   2.489   3.658
    2LYS     HA   23   1.891   2.450   3.566
    2LYS     CB   24   1.814   2.613   3.676
    2LYS    HB1   25   1.725   2.595   3.632
    2LYS    HB2   26   1.859   2.690   3.630
    2LYS     CG   27   1.788   2.653   3.821
    2LYS    HG1   28   1.873   2.683   3.863
    2LYS    HG2   29   1.752   2.574   3.870
    2LYS     CD   30   1.687   2.766   3.827
    2LYS    HD1   31   1.602   2.737   3.782
    2LYS    HD2   32   1.724   2.845   3.779
    2LYS     CE   33   1.659   2.801   3.972
    2LYS    HE1   34   1.743   2.830   4.017
    2LYS    HE2   35   1.622   2.721   4.020
    2LYS     NZ   36   1.558   2.913   3.982
    2LYS    HZ1   37   1.542   2.934   4.078
    2LYS    HZ2   38   1.594   2.994   3.935
    2LYS    HZ3   39   1.473   2.884   3.938
    2LYS      C   40   2.049   2.526   3.678
    2LYS      O   41   2.108   2.596   3.595
    3LEU      N   42   2.109   2.474   3.783
    3LEU      H   43   2.055   2.421   3.848
    3LEU     CA   44   2.252   2.494   3.807
    3LEU     HA   45   2.264   2.593   3.815
    3LEU     CB   46   2.294   2.423   3.936
    3LEU    HB1   47   2.390   2.396   3.928
    3LEU    HB2   48   2.238   2.341   3.947
    3LEU     CG   49   2.280   2.510   4.062
    3LEU     HG   50   2.186   2.545   4.068
    3LEU    CD1   51   2.308   2.426   4.186
    3LEU   HD11   52   2.298   2.482   4.268
    3LEU   HD12   53   2.243   2.350   4.190
    3LEU   HD13   54   2.401   2.390   4.181
    3LEU    CD2   55   2.374   2.630   4.056
    3LEU   HD21   56   2.363   2.686   4.139
    3LEU   HD22   57   2.468   2.598   4.050
    3LEU   HD23   58   2.352   2.686   3.976
    3LEU      C   59   2.334   2.439   3.691
    3LEU      O   60   2.438   2.494   3.654
    4ALA      N   61   2.288   2.330   3.633
    4ALA      H   62   2.204   2.287   3.667
    4ALA     CA   63   2.358   2.269   3.519
    4ALA     HA   64   2.452   2.252   3.549
    4ALA     CB   65   2.290   2.138   3.481
    4ALA    HB1   66   2.337   2.096   3.404
    4ALA    HB2   67   2.292   2.075   3.559
    4ALA    HB3   68   2.195   2.156   3.456
    4ALA      C   69   2.359   2.365   3.400
    4ALA      O   70   2.459   2.378   3.329
    5VAL      N   71   2.248   2.432   3.379
    5VAL      H   72   2.169   2.416   3.438
    5VAL     CA   73   2.237   2.529   3.270
    5VAL     HA   74   2.264   2.480   3.188
    5VAL     CB   75   2.092   2.581   3.258
    5VAL     HB   76   2.063   2.624   3.344
    5VAL    CG1   77   2.083   2.687   3.149
    5VAL   HG11   78   1.989   2.720   3.142
    5VAL   HG12   79   2.144   2.764   3.171
    5VAL   HG13   80   2.111   2.647   3.061
    5VAL    CG2   81   1.997   2.465   3.228
    5VAL   HG21   82   1.903   2.500   3.221
    5VAL   HG22   83   2.023   2.422   3.142
    5VAL   HG23   84   2.002   2.398   3.303
    5VAL      C   85   2.332   2.647   3.294
    5VAL      O   86   2.399   2.693   3.201
    6ASP      N   87   2.338   2.693   3.417
    6ASP      H   88   2.281   2.653   3.488
    6ASP     CA   89   2.427   2.804   3.451
    6ASP     HA   90   2.400   2.879   3.390
    6ASP     CB   91   2.409   2.842   3.599
    6ASP    HB1   92   2.492   2.886   3.631
    6ASP    HB2   93   2.392   2.759   3.651
    6ASP     CG   94   2.292   2.937   3.620
    6ASP    OD1   95   2.228   2.976   3.521
    6ASP    OD2   96   2.266   2.973   3.737
    6ASP      C   97   2.574   2.767   3.426
    6ASP      O   98   2.652   2.847   3.376
    7ALA      N   99   2.610   2.643   3.461
    7ALA      H  100   2.543   2.581   3.502
    7ALA     CA  101   2.748   2.596   3.441
    7ALA     HA  102   2.807   2.661   3.489
    7ALA     CB  103   2.764   2.456   3.501
    7ALA    HB1  104   2.858   2.425   3.487
    7ALA    HB2  105   2.744   2.459   3.599
    7ALA    HB3  106   2.701   2.393   3.455
    7ALA      C  107   2.783   2.595   3.292
    7ALA      O  108   2.891   2.639   3.252
    8LEU      N  109   2.691   2.546   3.211
    8LEU      H  110   2.605   2.512   3.250
    8LEU     CA  111   2.711   2.541   3.067
    8LEU     HA  112   2.795   2.488   3.054
    8LEU     CB  113   2.592   2.473   2.999
    8LEU    HB1  114   2.578   2.516   2.910
    8LEU    HB2  115   2.511   2.487   3.056
    8LEU     CG  116   2.609   2.322   2.976
    8LEU     HG  117   2.635   2.278   3.062
    8LEU    CD1  118   2.478   2.262   2.929
    8LEU   HD11  119   2.490   2.164   2.914
    8LEU   HD12  120   2.408   2.277   2.998
    8LEU   HD13  121   2.450   2.306   2.843
    8LEU    CD2  122   2.720   2.296   2.874
    8LEU   HD21  123   2.730   2.198   2.860
    8LEU   HD22  124   2.696   2.340   2.787
    8LEU   HD23  125   2.806   2.334   2.908
    8LEU      C  126   2.729   2.682   3.009
    8LEU      O  127   2.821   2.707   2.930
    9LEU      N  128   2.643   2.772   3.048
    9LEU      H  129   2.571   2.746   3.113
    9LEU     CA  130   2.649   2.910   3.000
    9LEU     HA  131   2.644   2.903   2.900
    9LEU     CB  132   2.532   2.991   3.056
    9LEU    HB1  133   2.555   3.088   3.049
    9LEU    HB2  134   2.521   2.967   3.153
    9LEU     CG  135   2.398   2.967   2.985
    9LEU     HG  136   2.378   2.869   2.982
    9LEU    CD1  137   2.286   3.035   3.061
    9LEU   HD11  138   2.199   3.019   3.014
    9LEU   HD12  139   2.281   2.997   3.153
    9LEU   HD13  140   2.304   3.133   3.065
    9LEU    CD2  141   2.405   3.019   2.840
    9LEU   HD21  142   2.318   3.002   2.794
    9LEU   HD22  143   2.425   3.117   2.841
    9LEU   HD23  144   2.478   2.971   2.791
    9LEU      C  145   2.781   2.976   3.038
    9LEU      O  146   2.842   3.048   2.960
   10ARG      N  147   2.825   2.950   3.160
   10ARG      H  148   2.772   2.890   3.220
   10ARG     CA  149   2.950   3.009   3.209
   10ARG     HA  150   2.942   3.108   3.196
   10ARG     CB  151   2.968   2.975   3.357
   10ARG    HB1  152   3.008   2.884   3.366
   10ARG    HB2  153   2.878   2.977   3.402
   10ARG     CG  154   3.059   3.076   3.425
   10ARG    HG1  155   3.028   3.169   3.403
   10ARG    HG2  156   3.152   3.064   3.393
   10ARG     CD  157   3.056   3.058   3.575
   10ARG    HD1  158   3.096   2.970   3.600
   10ARG    HD2  159   2.962   3.063   3.608
   10ARG     NE  160   3.133   3.164   3.640
   10ARG     HE  161   3.230   3.172   3.617
   10ARG     CZ  162   3.083   3.249   3.727
   10ARG    NH1  163   2.956   3.244   3.762
   10ARG   HH11  164   2.896   3.174   3.723
   10ARG   HH12  165   2.919   3.310   3.829
   10ARG    NH2  166   3.160   3.343   3.780
   10ARG   HH21  167   3.256   3.349   3.753
   10ARG   HH22  168   3.122   3.408   3.846
   10ARG      C  169   3.070   2.958   3.129
   10ARG      O  170   3.157   3.034   3.090
   11THR      N  171   3.072   2.828   3.103
   11THR      H  172   2.998   2.770   3.137
   11THR     CA  173   3.180   2.768   3.026
   11THR     HA  174   3.264   2.792   3.076
   11THR     CB  175   3.163   2.616   3.017
   11THR     HB  176   3.079   2.593   2.970
   11THR    CG2  177   3.281   2.551   2.947
   11THR   HG21  178   3.268   2.452   2.942
   11THR   HG22  179   3.289   2.588   2.854
   11THR   HG23  180   3.365   2.571   2.997
   11THR    OG1  181   3.154   2.561   3.150
   11THR    HG1  182   3.143   2.462   3.144
   11THR      C  183   3.183   2.827   2.885
   11THR      O  184   3.289   2.859   2.831
   12PHE      N  185   3.067   2.842   2.826
   12PHE      H  186   2.983   2.815   2.873
   12PHE     CA  187   3.057   2.898   2.692
   12PHE     HA  188   3.117   2.843   2.634
   12PHE     CB  189   2.912   2.890   2.644
   12PHE    HB1  190   2.857   2.956   2.694
   12PHE    HB2  191   2.877   2.798   2.662
   12PHE     CG  192   2.898   2.918   2.497
   12PHE    CD1  193   2.938   2.824   2.403
   12PHE    HD1  194   2.975   2.736   2.434
   12PHE    CE1  195   2.926   2.849   2.267
   12PHE    HE1  196   2.956   2.780   2.200
   12PHE     CZ  197   2.874   2.970   2.223
   12PHE     HZ  198   2.865   2.989   2.125
   12PHE    CE2  199   2.834   3.066   2.316
   12PHE    HE2  200   2.796   3.153   2.285
   12PHE    CD2  201   2.846   3.039   2.452
   12PHE    HD2  202   2.818   3.108   2.519
   12PHE      C  203   3.105   3.043   2.689
   12PHE      O  204   3.174   3.086   2.597
   13ALA      N  205   3.068   3.120   2.791
   13ALA      H  206   3.011   3.081   2.863
   13ALA     CA  207   3.110   3.260   2.799
   13ALA     HA  208   3.078   3.303   2.715
   13ALA     CB  209   3.044   3.325   2.922
   13ALA    HB1  210   3.073   3.421   2.928
   13ALA    HB2  211   2.945   3.320   2.913
   13ALA    HB3  212   3.073   3.277   3.005
   13ALA      C  213   3.262   3.272   2.808
   13ALA      O  214   3.322   3.357   2.742
   14GLU      N  215   3.324   3.186   2.886
   14GLU      H  216   3.270   3.119   2.937
   14GLU     CA  217   3.469   3.187   2.899
   14GLU     HA  218   3.491   3.280   2.928
   14GLU     CB  219   3.514   3.084   3.003
   14GLU    HB1  220   3.602   3.046   2.975
   14GLU    HB2  221   3.446   3.011   3.008
   14GLU     CG  222   3.529   3.144   3.142
   14GLU    HG1  223   3.438   3.165   3.178
   14GLU    HG2  224   3.583   3.228   3.134
   14GLU     CD  225   3.599   3.050   3.238
   14GLU    OE1  226   3.632   2.937   3.198
   14GLU    OE2  227   3.621   3.088   3.352
   14GLU      C  228   3.536   3.156   2.766
   14GLU      O  229   3.633   3.220   2.725
   15SER      N  230   3.484   3.055   2.697
   15SER      H  231   3.405   3.006   2.735
   15SER     CA  232   3.538   3.015   2.568
   15SER     HA  233   3.634   2.994   2.584
   15SER     CB  234   3.464   2.892   2.516
   15SER    HB1  235   3.370   2.916   2.490
   15SER    HB2  236   3.462   2.820   2.585
   15SER     OG  237   3.526   2.839   2.402
   15SER     HG  238   3.475   2.759   2.370
   15SER      C  239   3.526   3.130   2.468
   15SER      O  240   3.619   3.161   2.393
   16SER      N  241   3.410   3.194   2.466
   16SER      H  242   3.338   3.164   2.528
   16SER     CA  243   3.385   3.306   2.377
   16SER     HA  244   3.402   3.272   2.285
   16SER     CB  245   3.240   3.353   2.391
   16SER    HB1  246   3.224   3.392   2.482
   16SER    HB2  247   3.177   3.277   2.377
   16SER     OG  248   3.209   3.452   2.296
   16SER     HG  249   3.113   3.481   2.307
   16SER      C  250   3.480   3.423   2.407
   16SER      O  251   3.529   3.490   2.315
   17ASP      N  252   3.505   3.447   2.535
   17ASP      H  253   3.463   3.390   2.605
   17ASP     CA  254   3.594   3.556   2.575
   17ASP     HA  255   3.554   3.639   2.535
   17ASP     CB  256   3.598   3.567   2.728
   17ASP    HB1  257   3.650   3.490   2.765
   17ASP    HB2  258   3.505   3.564   2.764
   17ASP     CG  259   3.663   3.696   2.775
   17ASP    OD1  260   3.636   3.801   2.713
   17ASP    OD2  261   3.741   3.692   2.872
   17ASP      C  262   3.736   3.536   2.521
   17ASP      O  263   3.802   3.630   2.476
   18LYS      N  264   3.784   3.411   2.524
   18LYS      H  265   3.727   3.338   2.562
   18LYS     CA  266   3.917   3.380   2.473
   18LYS     HA  267   3.980   3.443   2.519
   18LYS     CB  268   3.952   3.234   2.506
   18LYS    HB1  269   4.021   3.201   2.441
   18LYS    HB2  270   3.869   3.178   2.498
   18LYS     CG  271   4.007   3.222   2.648
   18LYS    HG1  272   3.950   3.275   2.711
   18LYS    HG2  273   4.101   3.257   2.650
   18LYS     CD  274   4.008   3.076   2.694
   18LYS    HD1  275   3.923   3.032   2.665
   18LYS    HD2  276   4.015   3.072   2.794
   18LYS     CE  277   4.122   3.000   2.636
   18LYS    HE1  278   4.208   3.043   2.663
   18LYS    HE2  279   4.115   2.999   2.537
   18LYS     NZ  280   4.119   2.860   2.688
   18LYS    HZ1  281   4.196   2.809   2.649
   18LYS    HZ2  282   4.127   2.861   2.787
   18LYS    HZ3  283   4.033   2.817   2.661
   18LYS      C  284   3.924   3.401   2.322
   18LYS      O  285   4.021   3.457   2.271
   19LEU      N  286   3.821   3.357   2.252
   19LEU      H  287   3.746   3.311   2.300
   19LEU     CA  288   3.814   3.373   2.107
   19LEU     HA  289   3.900   3.334   2.073
   19LEU     CB  290   3.693   3.297   2.049
   19LEU    HB1  291   3.671   3.337   1.961
   19LEU    HB2  292   3.616   3.309   2.112
   19LEU     CG  293   3.717   3.147   2.030
   19LEU     HG  294   3.747   3.106   2.116
   19LEU    CD1  295   3.586   3.081   1.988
   19LEU   HD11  296   3.601   2.983   1.976
   19LEU   HD12  297   3.517   3.095   2.060
   19LEU   HD13  298   3.554   3.121   1.903
   19LEU    CD2  299   3.825   3.124   1.923
   19LEU   HD21  300   3.839   3.026   1.910
   19LEU   HD22  301   3.795   3.165   1.836
   19LEU   HD23  302   3.910   3.167   1.952
   19LEU      C  303   3.804   3.520   2.069
   19LEU      O  304   3.864   3.565   1.972
   20ARG      N  305   3.725   3.595   2.145
   20ARG      H  306   3.679   3.553   2.223
   20ARG     CA  307   3.706   3.736   2.118
   20ARG     HA  308   3.674   3.741   2.023
   20ARG     CB  309   3.602   3.794   2.215
   20ARG    HB1  310   3.643   3.801   2.306
   20ARG    HB2  311   3.523   3.732   2.219
   20ARG     CG  312   3.554   3.931   2.173
   20ARG    HG1  313   3.520   3.925   2.080
   20ARG    HG2  314   3.632   3.994   2.177
   20ARG     CD  315   3.445   3.982   2.263
   20ARG    HD1  316   3.478   3.992   2.357
   20ARG    HD2  317   3.367   3.919   2.262
   20ARG     NE  318   3.398   4.112   2.219
   20ARG     HE  319   3.338   4.114   2.139
   20ARG     CZ  320   3.428   4.227   2.279
   20ARG    NH1  321   3.498   4.230   2.390
   20ARG   HH11  322   3.530   4.144   2.431
   20ARG   HH12  323   3.520   4.317   2.434
   20ARG    NH2  324   3.386   4.341   2.225
   20ARG   HH21  325   3.332   4.340   2.141
   20ARG   HH22  326   3.408   4.428   2.269
   20ARG      C  327   3.835   3.815   2.129
   20ARG      O  328   3.859   3.910   2.054
   21ARG      N  329   3.916   3.776   2.225
   21ARG      H  330   3.889   3.701   2.286
   21ARG     CA  331   4.045   3.841   2.242
   21ARG     HA  332   4.024   3.939   2.243
   21ARG     CB  333   4.112   3.798   2.372
   21ARG    HB1  334   4.151   3.707   2.361
   21ARG    HB2  335   4.045   3.798   2.446
   21ARG     CG  336   4.224   3.895   2.407
   21ARG    HG1  337   4.187   3.988   2.407
   21ARG    HG2  338   4.296   3.887   2.338
   21ARG     CD  339   4.283   3.866   2.543
   21ARG    HD1  340   4.326   3.776   2.544
   21ARG    HD2  341   4.212   3.871   2.613
   21ARG     NE  342   4.384   3.967   2.571
   21ARG     HE  343   4.354   4.061   2.586
   21ARG     CZ  344   4.513   3.942   2.580
   21ARG    NH1  345   4.556   3.819   2.571
   21ARG   HH11  346   4.492   3.744   2.557
   21ARG   HH12  347   4.654   3.800   2.577
   21ARG    NH2  348   4.600   4.041   2.596
   21ARG   HH21  349   4.568   4.136   2.601
   21ARG   HH22  350   4.698   4.021   2.602
   21ARG      C  351   4.137   3.809   2.126
   21ARG    OC1  352   4.147   3.715   2.093
   21ARG    OC2  353   4.203   3.906   2.073
   5.99195   5.99195   5.99195
