GRoups of Organic Molecules in ACtion for Science
17214
    1LEU      N    1   3.277   3.416   1.446
    1LEU     H1    2   3.233   3.326   1.454
    1LEU     H2    3   3.213   3.480   1.404
    1LEU     H3    4   3.359   3.408   1.389
    1LEU     CA    5   3.315   3.464   1.579
    1LEU     HA    6   3.379   3.395   1.612
    1LEU     CB    7   3.383   3.602   1.571
    1LEU    HB1    8   3.362   3.652   1.656
    1LEU    HB2    9   3.345   3.651   1.493
    1LEU     CG   10   3.534   3.596   1.555
    1LEU     HG   11   3.556   3.540   1.475
    1LEU    CD1   12   3.589   3.734   1.530
    1LEU   HD11   13   3.688   3.728   1.520
    1LEU   HD12   14   3.549   3.771   1.447
    1LEU   HD13   15   3.567   3.793   1.607
    1LEU    CD2   16   3.600   3.532   1.674
    1LEU   HD21   17   3.699   3.530   1.660
    1LEU   HD22   18   3.579   3.584   1.756
    1LEU   HD23   19   3.566   3.438   1.684
    1LEU      C   20   3.196   3.471   1.675
    1LEU      O   21   3.204   3.421   1.785
    2ILE      N   22   3.085   3.528   1.633
    2ILE      H   23   3.081   3.565   1.541
    2ILE     CA   24   2.965   3.537   1.718
    2ILE     HA   25   2.995   3.584   1.801
    2ILE     CB   26   2.855   3.618   1.647
    2ILE     HB   27   2.841   3.584   1.554
    2ILE    CG2   28   2.724   3.604   1.723
    2ILE   HG21   29   2.653   3.657   1.676
    2ILE   HG22   30   2.697   3.508   1.726
    2ILE   HG23   31   2.735   3.639   1.816
    2ILE    CG1   32   2.896   3.765   1.642
    2ILE   HG11   33   2.978   3.773   1.584
    2ILE   HG12   34   2.918   3.795   1.734
    2ILE     CD   35   2.791   3.857   1.586
    2ILE    HD1   36   2.826   3.951   1.586
    2ILE    HD2   37   2.768   3.829   1.493
    2ILE    HD3   38   2.709   3.852   1.643
    2ILE      C   39   2.914   3.399   1.756
    2ILE      O   40   2.884   3.373   1.872
    3LEU      N   41   2.906   3.310   1.661
    3LEU      H   42   2.932   3.336   1.568
    3LEU     CA   43   2.860   3.174   1.686
    3LEU     HA   44   2.769   3.185   1.726
    3LEU     CB   45   2.855   3.094   1.555
    3LEU    HB1   46   2.900   3.006   1.570
    3LEU    HB2   47   2.904   3.146   1.485
    3LEU     CG   48   2.715   3.067   1.501
    3LEU     HG   49   2.668   3.154   1.490
    3LEU    CD1   50   2.724   3.000   1.366
    3LEU   HD11   51   2.631   2.982   1.332
    3LEU   HD12   52   2.772   3.060   1.302
    3LEU   HD13   53   2.773   2.913   1.375
    3LEU    CD2   54   2.636   2.980   1.598
    3LEU   HD21   55   2.545   2.963   1.560
    3LEU   HD22   56   2.683   2.893   1.611
    3LEU   HD23   57   2.627   3.027   1.686
    3LEU      C   58   2.949   3.102   1.786
    3LEU      O   59   2.901   3.032   1.875
    4LEU      N   60   3.079   3.120   1.772
    4LEU      H   61   3.112   3.179   1.698
    4LEU     CA   62   3.178   3.056   1.860
    4LEU     HA   63   3.159   2.958   1.856
    4LEU     CB   64   3.319   3.088   1.811
    4LEU    HB1   65   3.362   3.149   1.877
    4LEU    HB2   66   3.312   3.134   1.723
    4LEU     CG   67   3.411   2.967   1.793
    4LEU     HG   68   3.365   2.900   1.735
    4LEU    CD1   69   3.538   3.008   1.724
    4LEU   HD11   70   3.597   2.928   1.713
    4LEU   HD12   71   3.516   3.046   1.634
    4LEU   HD13   72   3.585   3.077   1.779
    4LEU    CD2   73   3.442   2.903   1.927
    4LEU   HD21   74   3.503   2.825   1.913
    4LEU   HD22   75   3.488   2.970   1.986
    4LEU   HD23   76   3.357   2.873   1.970
    4LEU      C   77   3.161   3.104   2.003
    4LEU      O   78   3.162   3.026   2.097
    5VAL      N   79   3.145   3.233   2.020
    5VAL      H   80   3.145   3.293   1.940
    5VAL     CA   81   3.129   3.294   2.152
    5VAL     HA   82   3.206   3.262   2.206
    5VAL     CB   83   3.128   3.448   2.142
    5VAL     HB   84   3.056   3.478   2.079
    5VAL    CG1   85   3.100   3.511   2.278
    5VAL   HG11   86   3.100   3.610   2.269
    5VAL   HG12   87   3.011   3.480   2.311
    5VAL   HG13   88   3.171   3.482   2.342
    5VAL    CG2   89   3.261   3.498   2.088
    5VAL   HG21   90   3.260   3.597   2.082
    5VAL   HG22   91   3.334   3.469   2.149
    5VAL   HG23   92   3.277   3.459   1.997
    5VAL      C   93   2.998   3.248   2.215
    5VAL      O   94   2.993   3.219   2.334
    6LEU      N   95   2.895   3.239   2.134
    6LEU      H   96   2.907   3.262   2.038
    6LEU     CA   97   2.763   3.196   2.182
    6LEU     HA   98   2.739   3.257   2.257
    6LEU     CB   99   2.661   3.207   2.067
    6LEU    HB1  100   2.647   3.116   2.029
    6LEU    HB2  101   2.699   3.267   1.997
    6LEU     CG  102   2.526   3.262   2.107
    6LEU     HG  103   2.541   3.340   2.169
    6LEU    CD1  104   2.450   3.312   1.987
    6LEU   HD11  105   2.362   3.348   2.015
    6LEU   HD12  106   2.503   3.384   1.941
    6LEU   HD13  107   2.436   3.236   1.923
    6LEU    CD2  108   2.445   3.156   2.179
    6LEU   HD21  109   2.356   3.194   2.205
    6LEU   HD22  110   2.432   3.078   2.118
    6LEU   HD23  111   2.494   3.126   2.261
    6LEU      C  112   2.768   3.052   2.233
    6LEU      O  113   2.716   3.022   2.339
    7VAL      N  114   2.833   2.966   2.158
    7VAL      H  115   2.874   2.996   2.072
    7VAL     CA  116   2.847   2.826   2.197
    7VAL     HA  117   2.754   2.793   2.211
    7VAL     CB  118   2.919   2.744   2.087
    7VAL     HB  119   3.006   2.789   2.062
    7VAL    CG1  120   2.952   2.605   2.136
    7VAL   HG11  121   2.998   2.554   2.064
    7VAL   HG12  122   3.012   2.611   2.216
    7VAL   HG13  123   2.868   2.558   2.161
    7VAL    CG2  124   2.833   2.737   1.962
    7VAL   HG21  125   2.881   2.684   1.892
    7VAL   HG22  126   2.747   2.693   1.984
    7VAL   HG23  127   2.816   2.830   1.929
    7VAL      C  128   2.926   2.815   2.327
    7VAL      O  129   2.891   2.739   2.416
    8LEU      N  130   3.032   2.894   2.338
    8LEU      H  131   3.055   2.955   2.263
    8LEU     CA  132   3.115   2.893   2.458
    8LEU     HA  133   3.145   2.798   2.471
    8LEU     CB  134   3.236   2.985   2.436
    8LEU    HB1  135   3.206   3.080   2.449
    8LEU    HB2  136   3.269   2.973   2.343
    8LEU     CG  137   3.353   2.959   2.530
    8LEU     HG  138   3.346   2.865   2.564
    8LEU    CD1  139   3.485   2.975   2.458
    8LEU   HD11  140   3.560   2.958   2.522
    8LEU   HD12  141   3.489   2.910   2.383
    8LEU   HD13  142   3.492   3.068   2.422
    8LEU    CD2  143   3.347   3.053   2.649
    8LEU   HD21  144   3.424   3.034   2.710
    8LEU   HD22  145   3.351   3.147   2.617
    8LEU   HD23  146   3.261   3.038   2.699
    8LEU      C  147   3.035   2.937   2.580
    8LEU      O  148   3.048   2.878   2.687
    9ILE      N  149   2.952   3.037   2.564
    9ILE      H  150   2.946   3.081   2.474
    9ILE     CA  151   2.868   3.087   2.673
    9ILE     HA  152   2.932   3.106   2.748
    9ILE     CB  153   2.792   3.214   2.629
    9ILE     HB  154   2.750   3.201   2.540
    9ILE    CG2  155   2.683   3.247   2.731
    9ILE   HG21  156   2.634   3.329   2.702
    9ILE   HG22  157   2.619   3.170   2.736
    9ILE   HG23  158   2.724   3.262   2.820
    9ILE    CG1  159   2.890   3.331   2.622
    9ILE   HG11  160   2.959   3.311   2.552
    9ILE   HG12  161   2.935   3.341   2.711
    9ILE     CD  162   2.825   3.463   2.587
    9ILE    HD1  163   2.895   3.535   2.584
    9ILE    HD2  164   2.781   3.456   2.498
    9ILE    HD3  165   2.757   3.486   2.657
    9ILE      C  166   2.769   2.981   2.716
    9ILE      O  167   2.747   2.959   2.835
   10VAL      N  168   2.708   2.912   2.620
   10VAL      H  169   2.730   2.933   2.525
   10VAL     CA  170   2.611   2.808   2.650
   10VAL     HA  171   2.542   2.853   2.707
   10VAL     CB  172   2.547   2.753   2.520
   10VAL     HB  173   2.619   2.724   2.457
   10VAL    CG1  174   2.461   2.632   2.550
   10VAL   HG11  175   2.421   2.598   2.465
   10VAL   HG12  176   2.517   2.560   2.591
   10VAL   HG13  177   2.388   2.658   2.613
   10VAL    CG2  178   2.465   2.860   2.452
   10VAL   HG21  179   2.425   2.823   2.369
   10VAL   HG22  180   2.392   2.890   2.514
   10VAL   HG23  181   2.524   2.938   2.430
   10VAL      C  182   2.676   2.694   2.725
   10VAL      O  183   2.621   2.642   2.822
   11VAL      N  184   2.796   2.654   2.683
   11VAL      H  185   2.837   2.700   2.604
   11VAL     CA  186   2.870   2.546   2.747
   11VAL     HA  187   2.807   2.468   2.745
   11VAL     CB  188   3.001   2.515   2.672
   11VAL     HB  189   3.053   2.599   2.661
   11VAL    CG1  190   3.085   2.416   2.750
   11VAL   HG11  191   3.170   2.397   2.700
   11VAL   HG12  192   3.108   2.455   2.839
   11VAL   HG13  193   3.034   2.331   2.763
   11VAL    CG2  194   2.969   2.459   2.533
   11VAL   HG21  195   3.055   2.439   2.485
   11VAL   HG22  196   2.916   2.375   2.543
   11VAL   HG23  197   2.917   2.526   2.481
   11VAL      C  198   2.903   2.582   2.891
   11VAL      O  199   2.887   2.500   2.982
   12VAL      N  200   2.947   2.704   2.913
   12VAL      H  201   2.959   2.766   2.836
   12VAL     CA  202   2.981   2.751   3.047
   12VAL     HA  203   3.048   2.684   3.082
   12VAL     CB  204   3.042   2.892   3.043
   12VAL     HB  205   2.980   2.952   2.993
   12VAL    CG1  206   3.060   2.948   3.184
   12VAL   HG11  207   3.099   3.039   3.178
   12VAL   HG12  208   2.971   2.952   3.229
   12VAL   HG13  209   3.121   2.888   3.236
   12VAL    CG2  210   3.176   2.890   2.972
   12VAL   HG21  211   3.214   2.983   2.970
   12VAL   HG22  212   3.238   2.830   3.020
   12VAL   HG23  213   3.163   2.857   2.878
   12VAL      C  214   2.857   2.752   3.135
   12VAL      O  215   2.862   2.712   3.251
   13LEU      N  216   2.747   2.796   3.079
   13LEU      H  217   2.750   2.826   2.983
   13LEU     CA  218   2.620   2.802   3.151
   13LEU     HA  219   2.638   2.856   3.234
   13LEU     CB  220   2.514   2.870   3.064
   13LEU    HB1  221   2.432   2.813   3.063
   13LEU    HB2  222   2.550   2.879   2.972
   13LEU     CG  223   2.476   3.008   3.115
   13LEU     HG  224   2.554   3.049   3.161
   13LEU    CD1  225   2.439   3.099   3.001
   13LEU   HD11  226   2.414   3.189   3.037
   13LEU   HD12  227   2.517   3.108   2.939
   13LEU   HD13  228   2.361   3.060   2.952
   13LEU    CD2  229   2.359   2.997   3.212
   13LEU   HD21  230   2.334   3.088   3.245
   13LEU   HD22  231   2.280   2.956   3.165
   13LEU   HD23  232   2.385   2.940   3.289
   13LEU      C  233   2.572   2.663   3.191
   13LEU      O  234   2.526   2.642   3.302
   14VAL      N  235   2.584   2.569   3.101
   14VAL      H  236   2.622   2.591   3.011
   14VAL     CA  237   2.543   2.431   3.128
   14VAL     HA  238   2.448   2.438   3.160
   14VAL     CB  239   2.552   2.344   3.000
   14VAL     HB  240   2.643   2.353   2.958
   14VAL    CG1  241   2.531   2.197   3.033
   14VAL   HG11  242   2.538   2.143   2.949
   14VAL   HG12  243   2.601   2.167   3.097
   14VAL   HG13  244   2.441   2.185   3.074
   14VAL    CG2  245   2.451   2.390   2.898
   14VAL   HG21  246   2.457   2.333   2.816
   14VAL   HG22  247   2.359   2.382   2.937
   14VAL   HG23  248   2.468   2.486   2.874
   14VAL      C  249   2.630   2.370   3.236
   14VAL      O  250   2.581   2.302   3.326
   15LEU      N  251   2.760   2.395   3.230
   15LEU      H  252   2.795   2.451   3.154
   15LEU     CA  253   2.854   2.345   3.329
   15LEU     HA  254   2.840   2.246   3.331
   15LEU     CB  255   2.998   2.379   3.289
   15LEU    HB1  256   3.054   2.380   3.372
   15LEU    HB2  257   2.998   2.470   3.248
   15LEU     CG  258   3.062   2.283   3.189
   15LEU     HG  259   3.001   2.274   3.110
   15LEU    CD1  260   3.194   2.339   3.143
   15LEU   HD11  261   3.236   2.275   3.078
   15LEU   HD12  262   3.180   2.427   3.099
   15LEU   HD13  263   3.255   2.350   3.222
   15LEU    CD2  264   3.081   2.145   3.250
   15LEU   HD21  265   3.123   2.084   3.182
   15LEU   HD22  266   3.140   2.152   3.330
   15LEU   HD23  267   2.992   2.108   3.277
   15LEU      C  268   2.824   2.403   3.466
   15LEU      O  269   2.830   2.334   3.567
   16LEU      N  270   2.791   2.531   3.468
   16LEU      H  271   2.789   2.582   3.382
   16LEU     CA  272   2.759   2.600   3.593
   16LEU     HA  273   2.834   2.584   3.657
   16LEU     CB  274   2.743   2.751   3.564
   16LEU    HB1  275   2.648   2.768   3.537
   16LEU    HB2  276   2.804   2.774   3.487
   16LEU     CG  277   2.777   2.843   3.680
   16LEU     HG  278   2.849   2.801   3.735
   16LEU    CD1  279   2.828   2.975   3.629
   16LEU   HD11  280   2.850   3.035   3.707
   16LEU   HD12  281   2.911   2.960   3.575
   16LEU   HD13  282   2.758   3.019   3.572
   16LEU    CD2  283   2.653   2.865   3.766
   16LEU   HD21  284   2.677   2.926   3.842
   16LEU   HD22  285   2.581   2.907   3.711
   16LEU   HD23  286   2.622   2.778   3.802
   16LEU      C  287   2.631   2.544   3.653
   16LEU      O  288   2.621   2.524   3.773
   17LEU      N  289   2.535   2.517   3.569
   17LEU      H  290   2.550   2.535   3.471
   17LEU     CA  291   2.407   2.460   3.612
   17LEU     HA  292   2.370   2.521   3.682
   17LEU     CB  293   2.311   2.453   3.491
   17LEU    HB1  294   2.332   2.370   3.440
   17LEU    HB2  295   2.328   2.534   3.434
   17LEU     CG  296   2.164   2.450   3.524
   17LEU     HG  297   2.149   2.507   3.605
   17LEU    CD1  298   2.082   2.507   3.411
   17LEU   HD11  299   1.985   2.504   3.435
   17LEU   HD12  300   2.110   2.602   3.395
   17LEU   HD13  301   2.098   2.453   3.329
   17LEU    CD2  302   2.119   2.308   3.554
   17LEU   HD21  303   2.021   2.308   3.576
   17LEU   HD22  304   2.136   2.251   3.474
   17LEU   HD23  305   2.171   2.272   3.632
   17LEU      C  306   2.427   2.321   3.670
   17LEU      O  307   2.370   2.287   3.772
   18LEU      N  308   2.511   2.243   3.607
   18LEU      H  309   2.555   2.276   3.524
   18LEU     CA  310   2.543   2.108   3.654
   18LEU     HA  311   2.455   2.062   3.663
   18LEU     CB  312   2.633   2.036   3.553
   18LEU    HB1  313   2.687   1.968   3.602
   18LEU    HB2  314   2.694   2.104   3.512
   18LEU     CG  315   2.560   1.964   3.441
   18LEU     HG  316   2.500   2.031   3.396
   18LEU    CD1  317   2.660   1.912   3.340
   18LEU   HD11  318   2.611   1.865   3.266
   18LEU   HD12  319   2.712   1.988   3.301
   18LEU   HD13  320   2.722   1.848   3.384
   18LEU    CD2  321   2.475   1.850   3.494
   18LEU   HD21  322   2.429   1.805   3.418
   18LEU   HD22  323   2.534   1.784   3.541
   18LEU   HD23  324   2.407   1.886   3.558
   18LEU      C  325   2.613   2.113   3.789
   18LEU      O  326   2.592   2.028   3.875
   19LEU      N  327   2.697   2.213   3.808
   19LEU      H  328   2.711   2.280   3.734
   19LEU     CA  329   2.771   2.230   3.933
   19LEU     HA  330   2.815   2.142   3.951
   19LEU     CB  331   2.874   2.343   3.918
   19LEU    HB1  332   2.830   2.429   3.944
   19LEU    HB2  333   2.901   2.347   3.822
   19LEU     CG  334   3.000   2.328   4.001
   19LEU     HG  335   3.029   2.233   4.001
   19LEU    CD1  336   3.112   2.410   3.942
   19LEU   HD11  337   3.194   2.400   3.998
   19LEU   HD12  338   3.130   2.378   3.849
   19LEU   HD13  339   3.085   2.506   3.940
   19LEU    CD2  340   2.975   2.370   4.145
   19LEU   HD21  341   3.059   2.360   4.198
   19LEU   HD22  342   2.945   2.465   4.147
   19LEU   HD23  343   2.903   2.312   4.184
   19LEU      C  344   2.675   2.263   4.048
   19LEU      O  345   2.691   2.213   4.159
   20ILE      N  346   2.574   2.344   4.019
   20ILE      H  347   2.565   2.379   3.926
   20ILE     CA  348   2.475   2.383   4.120
   20ILE     HA  349   2.528   2.408   4.201
   20ILE     CB  350   2.389   2.501   4.068
   20ILE     HB  351   2.357   2.483   3.974
   20ILE    CG2  352   2.267   2.520   4.156
   20ILE   HG21  353   2.212   2.596   4.122
   20ILE   HG22  354   2.212   2.436   4.156
   20ILE   HG23  355   2.296   2.540   4.250
   20ILE    CG1  356   2.473   2.627   4.068
   20ILE   HG11  357   2.548   2.616   4.002
   20ILE   HG12  358   2.510   2.641   4.159
   20ILE     CD  359   2.396   2.752   4.029
   20ILE    HD1  360   2.457   2.831   4.031
   20ILE    HD2  361   2.358   2.741   3.937
   20ILE    HD3  362   2.321   2.766   4.094
   20ILE      C  363   2.383   2.267   4.153
   20ILE      O  364   2.347   2.247   4.269
   21LEU      N  365   2.346   2.191   4.053
   21LEU      H  366   2.378   2.213   3.961
   21LEU     CA  367   2.260   2.075   4.072
   21LEU     HA  368   2.180   2.110   4.121
   21LEU     CB  369   2.219   2.015   3.936
   21LEU    HB1  370   2.204   1.917   3.949
   21LEU    HB2  371   2.294   2.029   3.872
   21LEU     CG  372   2.093   2.071   3.870
   21LEU     HG  373   2.106   2.168   3.852
   21LEU    CD1  374   2.069   2.003   3.739
   21LEU   HD11  375   1.987   2.041   3.697
   21LEU   HD12  376   2.147   2.019   3.679
   21LEU   HD13  377   2.057   1.905   3.754
   21LEU    CD2  378   1.974   2.053   3.962
   21LEU   HD21  379   1.892   2.090   3.917
   21LEU   HD22  380   1.960   1.956   3.980
   21LEU   HD23  381   1.990   2.102   4.047
   21LEU      C  382   2.330   1.967   4.153
   21LEU    OC1  383   2.426   1.945   4.135
   21LEU    OC2  384   2.268   1.908   4.241
   22SOL     OW  385   0.230   0.628   0.113
   22SOL    HW1  386   0.137   0.626   0.150
   22SOL    HW2  387   0.231   0.589   0.021
   23SOL     OW  388   0.225   0.275   0.996
   23SOL    HW1  389   0.260   0.258   1.088
   23SOL    HW2  390   0.137   0.230   0.984
   24SOL     OW  391   0.019   0.368   0.647
   24SOL    HW1  392  -0.063   0.411   0.686
   24SOL    HW2  393  -0.009   0.295   0.584
   25SOL     OW  394   0.569   1.275   1.165
   25SOL    HW1  395   0.476   1.268   1.128
   25SOL    HW2  396   0.580   1.364   1.209
   26SOL     OW  397   1.555   1.511   0.703
   26SOL    HW1  398   1.498   1.495   0.784
   26SOL    HW2  399   1.496   1.521   0.623
   27SOL     OW  400   1.135   0.703   0.717
   27SOL    HW1  401   1.192   0.781   0.692
   27SOL    HW2  402   1.075   0.729   0.793
   28SOL     OW  403   1.755   0.607   0.231
   28SOL    HW1  404   1.743   0.594   0.132
   28SOL    HW2  405   1.725   0.526   0.280
   29SOL     OW  406   0.768   1.144   1.023
   29SOL    HW1  407   0.690   1.161   1.083
   29SOL    HW2  408   0.802   1.231   0.987
   30SOL     OW  409   0.850   0.798   1.823
   30SOL    HW1  410   0.846   0.874   1.888
   30SOL    HW2  411   0.872   0.834   1.732
   31SOL     OW  412   0.685   1.012   0.665
   31SOL    HW1  413   0.754   0.996   0.735
   31SOL    HW2  414   0.612   1.069   0.703
   32SOL     OW  415   0.686   1.161   1.803
   32SOL    HW1  416   0.746   1.240   1.817
   32SOL    HW2  417   0.600   1.192   1.762
   33SOL     OW  418   0.335   1.435   1.061
   33SOL    HW1  419   0.257   1.404   1.008
   33SOL    HW2  420   0.393   1.493   1.004
   34SOL     OW  421   1.460   1.505   1.339
   34SOL    HW1  422   1.484   1.599   1.365
   34SOL    HW2  423   1.444   1.451   1.421
   35SOL     OW  424   0.438   0.392   1.499
   35SOL    HW1  425   0.520   0.336   1.508
   35SOL    HW2  426   0.357   0.334   1.503
   36SOL     OW  427   1.603   0.447   0.737
   36SOL    HW1  428   1.529   0.493   0.687
   36SOL    HW2  429   1.654   0.515   0.790
   37SOL     OW  430   0.231   1.713   0.483
   37SOL    HW1  431   0.265   1.790   0.537
   37SOL    HW2  432   0.275   1.713   0.393
   38SOL     OW  433   1.127   1.341   1.690
   38SOL    HW1  434   1.174   1.341   1.778
   38SOL    HW2  435   1.079   1.254   1.679
   39SOL     OW  436   0.230   1.434   0.538
   39SOL    HW1  437   0.204   1.530   0.538
   39SOL    HW2  438   0.159   1.380   0.583
   40SOL     OW  439   0.240   1.091   0.886
   40SOL    HW1  440   0.254   1.007   0.938
   40SOL    HW2  441   0.185   1.155   0.941
   41SOL     OW  442   0.620   1.786   1.439
   41SOL    HW1  443   0.528   1.769   1.474
   41SOL    HW2  444   0.648   1.878   1.465
   42SOL     OW  445   0.606   0.964   0.123
   42SOL    HW1  446   0.613   1.048   0.069
   42SOL    HW2  447   0.652   0.977   0.211
   43SOL     OW  448   1.594   0.114   1.480
   43SOL    HW1  449   1.576   0.181   1.408
   43SOL    HW2  450   1.591   0.160   1.569
   44SOL     OW  451   0.122   0.643   0.563
   44SOL    HW1  452   0.077   0.555   0.580
   44SOL    HW2  453   0.121   0.697   0.647
   45SOL     OW  454   1.842   1.767   0.359
   45SOL    HW1  455   1.896   1.738   0.439
   45SOL    HW2  456   1.872   1.857   0.330
   46SOL     OW  457   0.027   1.596   0.117
   46SOL    HW1  458   0.008   1.500   0.138
   46SOL    HW2  459  -0.006   1.654   0.192
   47SOL     OW  460   1.689   0.922   0.612
   47SOL    HW1  461   1.784   0.893   0.620
   47SOL    HW2  462   1.681   0.987   0.537
   48SOL     OW  463   1.641   1.108   0.432
   48SOL    HW1  464   1.727   1.110   0.380
   48SOL    HW2  465   1.655   1.155   0.520
   49SOL     OW  466   0.113   0.737   1.597
   49SOL    HW1  467   0.201   0.724   1.642
   49SOL    HW2  468   0.100   0.834   1.575
   50SOL     OW  469   0.613   1.365   0.726
   50SOL    HW1  470   0.564   1.278   0.735
   50SOL    HW2  471   0.590   1.408   0.639
   51SOL     OW  472   1.293   1.228   1.423
   51SOL    HW1  473   1.330   1.155   1.365
   51SOL    HW2  474   1.345   1.233   1.508
   52SOL     OW  475   0.809   0.004   0.502
   52SOL    HW1  476   0.849   0.095   0.493
   52SOL    HW2  477   0.709   0.012   0.508
   53SOL     OW  478   0.197   0.976   1.264
   53SOL    HW1  479   0.286   0.931   1.250
   53SOL    HW2  480   0.124   0.911   1.245
   54SOL     OW  481   1.525   0.999   0.190
   54SOL    HW1  482   1.462   0.923   0.203
   54SOL    HW2  483   1.573   1.017   0.276
   55SOL     OW  484   1.187   1.792   1.616
   55SOL    HW1  485   1.211   1.852   1.540
   55SOL    HW2  486   1.194   1.697   1.586
   56SOL     OW  487   0.317   0.251   1.801
   56SOL    HW1  488   0.388   0.322   1.807
   56SOL    HW2  489   0.229   0.290   1.829
   57SOL     OW  490   1.466   1.417   0.953
   57SOL    HW1  491   1.407   1.423   1.033
   57SOL    HW2  492   1.451   1.329   0.907
   58SOL     OW  493   1.667   1.714   0.572
   58SOL    HW1  494   1.626   1.691   0.484
   58SOL    HW2  495   1.649   1.640   0.637
   59SOL     OW  496   0.598   0.729   0.270
   59SOL    HW1  497   0.622   0.798   0.202
   59SOL    HW2  498   0.520   0.762   0.324
   60SOL     OW  499   1.281   0.345   0.944
   60SOL    HW1  500   1.195   0.295   0.931
   60SOL    HW2  501   1.343   0.291   1.000
   61SOL     OW  502   1.576   1.662   0.307
   61SOL    HW1  503   1.665   1.708   0.310
   61SOL    HW2  504   1.555   1.638   0.212
   62SOL     OW  505   0.807   0.605   1.465
   62SOL    HW1  506   0.760   0.602   1.554
   62SOL    HW2  507   0.756   0.550   1.399
   63SOL     OW  508   1.394   0.469   1.674
   63SOL    HW1  509   1.374   0.512   1.762
   63SOL    HW2  510   1.472   0.407   1.683
   64SOL     OW  511   0.973   0.890   1.572
   64SOL    HW1  512   1.019   0.806   1.543
   64SOL    HW2  513   0.917   0.924   1.497
   65SOL     OW  514   0.991   0.410   1.242
   65SOL    HW1  515   0.914   0.444   1.296
   65SOL    HW2  516   0.957   0.359   1.163
   66SOL     OW  517   1.041   0.701   0.429
   66SOL    HW1  518   1.067   0.697   0.525
   66SOL    HW2  519   0.956   0.650   0.415
   67SOL     OW  520   0.076   0.811   0.789
   67SOL    HW1  521   0.175   0.799   0.798
   67SOL    HW2  522   0.052   0.906   0.810
   68SOL     OW  523   0.130   1.821   1.571
   68SOL    HW1  524   0.120   1.806   1.670
   68SOL    HW2  525   0.044   1.857   1.535
   69SOL     OW  526   0.865   0.348   0.195
   69SOL    HW1  527   0.924   0.411   0.146
   69SOL    HW2  528   0.884   0.254   0.166
   70SOL     OW  529   1.719   0.585   1.831
   70SOL    HW1  530   1.693   0.674   1.795
   70SOL    HW2  531   1.717   0.517   1.758
   71SOL     OW  532   1.362   1.144   0.545
   71SOL    HW1  533   1.445   1.115   0.497
   71SOL    HW2  534   1.313   1.211   0.489
   72SOL     OW  535   0.550   0.196   0.885
   72SOL    HW1  536   0.545   0.191   0.985
   72SOL    HW2  537   0.552   0.292   0.856
   73SOL     OW  538   1.008   1.456   0.477
   73SOL    HW1  539   0.962   1.528   0.425
   73SOL    HW2  540   1.004   1.476   0.575
   74SOL     OW  541   0.351   1.801   0.853
   74SOL    HW1  542   0.401   1.715   0.859
   74SOL    HW2  543   0.416   1.878   0.850
   75SOL     OW  544   1.795   1.066   0.873
   75SOL    HW1  545   1.733   1.051   0.797
   75SOL    HW2  546   1.743   1.077   0.958
   76SOL     OW  547   1.227   1.550   1.506
   76SOL    HW1  548   1.233   1.473   1.570
   76SOL    HW2  549   1.175   1.524   1.426
   77SOL     OW  550   0.321   0.943   0.242
   77SOL    HW1  551   0.403   0.982   0.200
   77SOL    HW2  552   0.294   0.861   0.193
   78SOL     OW  553   1.458   0.735   0.728
   78SOL    HW1  554   1.453   0.670   0.803
   78SOL    HW2  555   1.538   0.794   0.741
   79SOL     OW  556   0.461   1.266   1.727
   79SOL    HW1  557   0.411   1.267   1.641
   79SOL    HW2  558   0.398   1.248   1.803
   80SOL     OW  559   1.111   1.776   0.237
   80SOL    HW1  560   1.051   1.714   0.287
   80SOL    HW2  561   1.142   1.732   0.152
   81SOL     OW  562   0.202   0.285   1.498
   81SOL    HW1  563   0.122   0.345   1.485
   81SOL    HW2  564   0.192   0.236   1.584
   82SOL     OW  565   1.632   1.377   0.081
   82SOL    HW1  566   1.600   1.471   0.071
   82SOL    HW2  567   1.556   1.314   0.069
   83SOL     OW  568   0.464   1.743   0.323
   83SOL    HW1  569   0.497   1.782   0.409
   83SOL    HW2  570   0.540   1.736   0.258
   84SOL     OW  571   1.400   0.107   0.426
   84SOL    HW1  572   1.376   0.070   0.336
   84SOL    HW2  573   1.499   0.123   0.430
   85SOL     OW  574   0.249   1.785   1.241
   85SOL    HW1  575   0.306   1.720   1.291
   85SOL    HW2  576   0.233   1.752   1.148
   86SOL     OW  577   0.940   1.698   0.904
   86SOL    HW1  578   1.020   1.641   0.925
   86SOL    HW2  579   0.891   1.658   0.827
   87SOL     OW  580   0.382   0.700   0.480
   87SOL    HW1  581   0.427   0.610   0.477
   87SOL    HW2  582   0.288   0.689   0.513
   88SOL     OW  583   1.547   0.222   1.729
   88SOL    HW1  584   1.542   0.259   1.821
   88SOL    HW2  585   1.475   0.153   1.717
   89SOL     OW  586   0.614   0.122   0.117
   89SOL    HW1  587   0.712   0.100   0.124
   89SOL    HW2  588   0.583   0.105   0.024
   90SOL     OW  589   0.781   0.264   1.749
   90SOL    HW1  590   0.848   0.203   1.792
   90SOL    HW2  591   0.708   0.283   1.814
   91SOL     OW  592   0.888   1.514   1.195
   91SOL    HW1  593   0.865   1.489   1.101
   91SOL    HW2  594   0.949   1.445   1.234
   92SOL     OW  595   1.351   0.590   1.433
   92SOL    HW1  596   1.379   0.547   1.518
   92SOL    HW2  597   1.376   0.686   1.434
   93SOL     OW  598   0.803   1.402   0.924
   93SOL    HW1  599   0.893   1.416   0.882
   93SOL    HW2  600   0.732   1.404   0.853
   94SOL     OW  601   0.922   0.503   0.899
   94SOL    HW1  602   0.897   0.494   0.803
   94SOL    HW2  603   0.970   0.421   0.930
   95SOL     OW  604   0.539   0.064   0.512
   95SOL    HW1  605   0.458   0.065   0.570
   95SOL    HW2  606   0.542   0.147   0.457
   96SOL     OW  607   1.434   1.188   0.041
   96SOL    HW1  608   1.466   1.112   0.098
   96SOL    HW2  609   1.342   1.215   0.071
   97SOL     OW  610   0.297   0.035   0.171
   97SOL    HW1  611   0.346   0.119   0.150
   97SOL    HW2  612   0.359  -0.030   0.216
   98SOL     OW  613   0.935   0.236   0.480
   98SOL    HW1  614   0.887   0.277   0.402
   98SOL    HW2  615   1.034   0.234   0.461
   99SOL     OW  616   1.076   0.683   1.464
   99SOL    HW1  617   0.996   0.622   1.467
   99SOL    HW2  618   1.157   0.630   1.440
  100SOL     OW  619   1.227   1.570   0.793
  100SOL    HW1  620   1.248   1.644   0.728
  100SOL    HW2  621   1.295   1.570   0.866
  101SOL     OW  622   0.459   1.152   0.741
  101SOL    HW1  623   0.388   1.125   0.806
  101SOL    HW2  624   0.433   1.124   0.648
  102SOL     OW  625   1.271   1.797   0.591
  102SOL    HW1  626   1.315   1.861   0.527
  102SOL    HW2  627   1.221   1.849   0.661
  103SOL     OW  628   1.032   0.549   0.016
  103SOL    HW1  629   0.991   0.631  -0.023
  103SOL    HW2  630   1.096   0.575   0.089
  104SOL     OW  631   0.078   0.556   1.386
  104SOL    HW1  632   0.170   0.555   1.345
  104SOL    HW2  633   0.072   0.630   1.453
  105SOL     OW  634   0.561   0.222   1.147
  105SOL    HW1  635   0.599   0.138   1.184
  105SOL    HW2  636   0.473   0.241   1.191
  106SOL     OW  637   0.866   0.454   0.642
  106SOL    HW1  638   0.834   0.526   0.580
  106SOL    HW2  639   0.890   0.373   0.589
  107SOL     OW  640   1.017   0.039   0.753
  107SOL    HW1  641   0.945   0.044   0.684
  107SOL    HW2  642   0.993  -0.030   0.822
  108SOL     OW  643   1.429   1.173   0.867
  108SOL    HW1  644   1.374   1.089   0.860
  108SOL    HW2  645   1.455   1.202   0.775
  109SOL     OW  646   1.466   0.590   0.992
  109SOL    HW1  647   1.436   0.495   0.999
  109SOL    HW2  648   1.539   0.606   1.058
  110SOL     OW  649   1.857   0.833   0.377
  110SOL    HW1  650   1.899   0.769   0.441
  110SOL    HW2  651   1.819   0.782   0.299
  111SOL     OW  652   0.488   1.385   0.174
  111SOL    HW1  653   0.401   1.370   0.221
  111SOL    HW2  654   0.471   1.411   0.079
  112SOL     OW  655   1.664   1.280   0.657
  112SOL    HW1  656   1.763   1.288   0.671
  112SOL    HW2  657   1.619   1.364   0.688
  113SOL     OW  658   1.390   0.575   0.078
  113SOL    HW1  659   1.336   0.554   0.159
  113SOL    HW2  660   1.481   0.534   0.087
  114SOL     OW  661   0.527   0.256   0.328
  114SOL    HW1  662   0.554   0.197   0.253
  114SOL    HW2  663   0.527   0.351   0.297
  115SOL     OW  664   1.754   1.223   1.588
  115SOL    HW1  665   1.845   1.184   1.575
  115SOL    HW2  666   1.762   1.319   1.612
  116SOL     OW  667   1.064   1.347   1.340
  116SOL    HW1  668   0.984   1.324   1.395
  116SOL    HW2  669   1.147   1.321   1.389
  117SOL     OW  670   1.592   1.629   1.625
  117SOL    HW1  671   1.619   1.663   1.535
  117SOL    HW2  672   1.671   1.591   1.671
  118SOL     OW  673   1.111   1.195   1.100
  118SOL    HW1  674   1.071   1.239   1.181
  118SOL    HW2  675   1.070   1.232   1.017
  119SOL     OW  676   1.638   1.099   1.079
  119SOL    HW1  677   1.643   1.180   1.138
  119SOL    HW2  678   1.552   1.101   1.028
  120SOL     OW  679   0.915   0.089   1.402
  120SOL    HW1  680   0.940   0.069   1.307
  120SOL    HW2  681   0.987   0.145   1.444
  121SOL     OW  682   0.980   1.116   1.719
  121SOL    HW1  683   0.881   1.122   1.729
  121SOL    HW2  684   1.003   1.036   1.663
  122SOL     OW  685   0.705   1.050   0.368
  122SOL    HW1  686   0.691   1.057   0.467
  122SOL    HW2  687   0.789   0.999   0.350
  123SOL     OW  688   0.410   0.813   1.251
  123SOL    HW1  689   0.496   0.825   1.301
  123SOL    HW2  690   0.368   0.726   1.278
  124SOL     OW  691   1.274   0.386   1.262
  124SOL    HW1  692   1.295   0.460   1.326
  124SOL    HW2  693   1.185   0.403   1.219
  125SOL     OW  694   0.064   1.564   1.331
  125SOL    HW1  695   0.018   1.646   1.297
  125SOL    HW2  696   0.162   1.583   1.340
  126SOL     OW  697   0.367   1.100   0.501
  126SOL    HW1  698   0.360   1.183   0.445
  126SOL    HW2  699   0.371   1.020   0.441
  127SOL     OW  700   0.566   0.537   0.865
  127SOL    HW1  701   0.578   0.603   0.791
  127SOL    HW2  702   0.612   0.571   0.948
  128SOL     OW  703   1.252   1.348   0.388
  128SOL    HW1  704   1.302   1.425   0.428
  128SOL    HW2  705   1.157   1.350   0.420
  129SOL     OW  706   1.272   1.445   1.142
  129SOL    HW1  707   1.319   1.458   1.229
  129SOL    HW2  708   1.206   1.371   1.151
  130SOL     OW  709   1.582   0.639   0.472
  130SOL    HW1  710   1.551   0.700   0.545
  130SOL    HW2  711   1.632   0.691   0.403
  131SOL     OW  712   0.354   1.510   1.329
  131SOL    HW1  713   0.333   1.466   1.242
  131SOL    HW2  714   0.451   1.536   1.332
  132SOL     OW  715   0.402   0.751   1.598
  132SOL    HW1  716   0.470   0.806   1.551
  132SOL    HW2  717   0.442   0.663   1.625
  133SOL     OW  718   1.587   0.779   1.670
  133SOL    HW1  719   1.495   0.817   1.665
  133SOL    HW2  720   1.647   0.826   1.605
  134SOL     OW  721   1.013   0.105   1.770
  134SOL    HW1  722   1.019   0.190   1.718
  134SOL    HW2  723   1.045   0.029   1.713
  135SOL     OW  724   0.504   0.050   1.740
  135SOL    HW1  725   0.462  -0.007   1.670
  135SOL    HW2  726   0.438   0.119   1.772
  136SOL     OW  727   0.573   0.870   1.029
  136SOL    HW1  728   0.617   0.959   1.020
  136SOL    HW2  729   0.510   0.870   1.106
  137SOL     OW  730   1.360   0.862   1.045
  137SOL    HW1  731   1.285   0.862   0.979
  137SOL    HW2  732   1.397   0.770   1.054
  138SOL     OW  733   1.209   0.525   0.275
  138SOL    HW1  734   1.222   0.441   0.329
  138SOL    HW2  735   1.180   0.599   0.335
  139SOL     OW  736   0.307   0.213   1.231
  139SOL    HW1  737   0.284   0.250   1.321
  139SOL    HW2  738   0.277   0.118   1.225
  140SOL     OW  739   0.037   1.310   1.282
  140SOL    HW1  740   0.090   1.261   1.350
  140SOL    HW2  741   0.059   1.408   1.287
  141SOL     OW  742   0.732   0.634   1.064
  141SOL    HW1  743   0.791   0.608   0.988
  141SOL    HW2  744   0.704   0.730   1.053
  142SOL     OW  745   1.728   0.935   1.854
  142SOL    HW1  746   1.682   0.928   1.765
  142SOL    HW2  747   1.666   0.979   1.920
  143SOL     OW  748   0.307   0.063   0.618
  143SOL    HW1  749   0.296   0.157   0.651
  143SOL    HW2  750   0.302   0.000   0.695
  144SOL     OW  751   1.622   0.367   0.374
  144SOL    HW1  752   1.624   0.291   0.438
  144SOL    HW2  753   1.574   0.444   0.414
  145SOL     OW  754   1.023   0.766   0.966
  145SOL    HW1  755   1.038   0.787   1.062
  145SOL    HW2  756   0.993   0.671   0.957
  146SOL     OW  757   0.980   1.573   1.700
  146SOL    HW1  758   0.960   1.617   1.612
  146SOL    HW2  759   1.019   1.482   1.684
  147SOL     OW  760   1.859   1.518   1.605
  147SOL    HW1  761   1.873   1.545   1.510
  147SOL    HW2  762   1.942   1.540   1.658
  148SOL     OW  763   0.350   0.898   1.804
  148SOL    HW1  764   0.426   0.942   1.852
  148SOL    HW2  765   0.385   0.851   1.722
  149SOL     OW  766   1.540   0.274   0.125
  149SOL    HW1  767   1.479   0.199   0.148
  149SOL    HW2  768   1.562   0.326   0.208
  150SOL     OW  769   1.303   0.838   0.042
  150SOL    HW1  770   1.337   0.745   0.057
  150SOL    HW2  771   1.321   0.865  -0.053
  151SOL     OW  772   1.068   1.333   0.849
  151SOL    HW1  773   1.075   1.249   0.794
  151SOL    HW2  774   1.130   1.402   0.813
  152SOL     OW  775   0.319   0.810   0.949
  152SOL    HW1  776   0.412   0.846   0.954
  152SOL    HW2  777   0.313   0.725   1.001
  153SOL     OW  778   0.339   0.509   1.006
  153SOL    HW1  779   0.287   0.426   0.989
  153SOL    HW2  780   0.416   0.514   0.942
  154SOL     OW  781   1.138   0.380   1.678
  154SOL    HW1  782   1.093   0.443   1.742
  154SOL    HW2  783   1.231   0.411   1.661
  155SOL     OW  784   1.160   0.207   1.477
  155SOL    HW1  785   1.160   0.271   1.554
  155SOL    HW2  786   1.188   0.255   1.394
  156SOL     OW  787   0.008   1.326   0.200
  156SOL    HW1  788  -0.085   1.347   0.169
  156SOL    HW2  789   0.018   1.227   0.213
  157SOL     OW  790   0.088   1.801   0.927
  157SOL    HW1  791   0.046   1.715   0.900
  157SOL    HW2  792   0.182   1.804   0.893
  158SOL     OW  793   0.504   1.568   0.910
  158SOL    HW1  794   0.570   1.642   0.919
  158SOL    HW2  795   0.548   1.489   0.868
  159SOL     OW  796   1.002   0.796   1.238
  159SOL    HW1  797   1.043   0.764   1.324
  159SOL    HW2  798   0.906   0.769   1.235
  160SOL     OW  799   0.040   0.544   1.114
  160SOL    HW1  800   0.125   0.511   1.073
  160SOL    HW2  801   0.053   0.559   1.212
  161SOL     OW  802   0.189   0.520   1.722
  161SOL    HW1  803   0.248   0.480   1.652
  161SOL    HW2  804   0.131   0.591   1.681
  162SOL     OW  805   1.369   0.950   1.660
  162SOL    HW1  806   1.408   1.039   1.680
  162SOL    HW2  807   1.379   0.930   1.563
  163SOL     OW  808   0.815   0.572   0.325
  163SOL    HW1  809   0.822   0.483   0.279
  163SOL    HW2  810   0.721   0.606   0.317
  164SOL     OW  811   1.657   0.604   1.206
  164SOL    HW1  812   1.619   0.535   1.268
  164SOL    HW2  813   1.739   0.568   1.162
  165SOL     OW  814   0.252   1.564   1.744
  165SOL    HW1  815   0.222   1.621   1.820
  165SOL    HW2  816   0.245   1.467   1.770
  166SOL     OW  817   0.671   0.464   1.269
  166SOL    HW1  818   0.637   0.375   1.239
  166SOL    HW2  819   0.697   0.518   1.189
  167SOL     OW  820   0.930   1.678   1.465
  167SOL    HW1  821   0.906   1.660   1.370
  167SOL    HW2  822   0.960   1.772   1.475
  168SOL     OW  823   0.473   0.500   0.191
  168SOL    HW1  824   0.534   0.580   0.195
  168SOL    HW2  825   0.378   0.531   0.198
  169SOL     OW  826   0.159   1.137   1.466
  169SOL    HW1  827   0.181   1.076   1.542
  169SOL    HW2  828   0.169   1.088   1.380
  170SOL     OW  829   1.347   1.059   1.234
  170SOL    HW1  830   1.371   0.996   1.160
  170SOL    HW2  831   1.257   1.099   1.216
  171SOL     OW  832   1.302   0.855   0.309
  171SOL    HW1  833   1.216   0.824   0.351
  171SOL    HW2  834   1.298   0.841   0.210
  172SOL     OW  835   1.759   1.747   1.154
  172SOL    HW1  836   1.820   1.777   1.081
  172SOL    HW2  837   1.721   1.658   1.132
  173SOL     OW  838   1.252   1.731   1.128
  173SOL    HW1  839   1.336   1.736   1.074
  173SOL    HW2  840   1.229   1.635   1.146
  174SOL     OW  841   0.083   1.258   1.022
  174SOL    HW1  842   0.078   1.257   1.122
  174SOL    HW2  843   0.000   1.217   0.984
  175SOL     OW  844   0.688   1.662   1.716
  175SOL    HW1  845   0.632   1.743   1.725
  175SOL    HW2  846   0.740   1.666   1.630
  176SOL     OW  847   0.903   0.086   0.133
  176SOL    HW1  848   0.954   0.087   0.047
  176SOL    HW2  849   0.959   0.044   0.204
  177SOL     OW  850   1.726   0.135   0.523
  177SOL    HW1  851   1.799   0.118   0.456
  177SOL    HW2  852   1.695   0.048   0.561
  178SOL     OW  853   1.388   1.573   0.477
  178SOL    HW1  854   1.455   1.585   0.403
  178SOL    HW2  855   1.348   1.662   0.500
  179SOL     OW  856   0.130   1.794   1.851
  179SOL    HW1  857   0.089   1.720   1.904
  179SOL    HW2  858   0.194   1.845   1.909
  180SOL     OW  859   1.280   0.927   0.672
  180SOL    HW1  860   1.340   0.846   0.674
  180SOL    HW2  861   1.320   0.996   0.612
  181SOL     OW  862   0.830   1.273   1.422
  181SOL    HW1  863   0.825   1.306   1.517
  181SOL    HW2  864   0.744   1.292   1.376
  182SOL     OW  865   0.672   1.616   0.154
  182SOL    HW1  866   0.681   1.626   0.055
  182SOL    HW2  867   0.632   1.527   0.175
  183SOL     OW  868   1.650   1.720   1.394
  183SOL    HW1  869   1.703   1.730   1.310
  183SOL    HW2  870   1.623   1.810   1.428
  184SOL     OW  871   1.841   0.175   0.963
  184SOL    HW1  872   1.880   0.090   0.927
  184SOL    HW2  873   1.743   0.177   0.944
  185SOL     OW  874   0.263   0.326   0.720
  185SOL    HW1  875   0.184   0.377   0.686
  185SOL    HW2  876   0.254   0.311   0.818
  186SOL     OW  877   1.194   1.612   0.031
  186SOL    HW1  878   1.200   1.519   0.068
  186SOL    HW2  879   1.135   1.612  -0.049
  187SOL     OW  880   0.822   1.002   1.372
  187SOL    HW1  881   0.862   1.001   1.280
  187SOL    HW2  882   0.832   1.094   1.412
  188SOL     OW  883   0.916   0.910   0.291
  188SOL    HW1  884   0.979   0.948   0.223
  188SOL    HW2  885   0.956   0.827   0.330
  189SOL     OW  886   1.504   1.607   0.044
  189SOL    HW1  887   1.412   1.644   0.051
  189SOL    HW2  888   1.542   1.627  -0.046
  190SOL     OW  889   0.372   1.288   1.490
  190SOL    HW1  890   0.359   1.381   1.456
  190SOL    HW2  891   0.288   1.236   1.477
  191SOL     OW  892   1.614   1.292   1.289
  191SOL    HW1  893   1.674   1.295   1.369
  191SOL    HW2  894   1.539   1.356   1.302
  192SOL     OW  895   1.039   1.098   0.696
  192SOL    HW1  896   0.969   1.051   0.750
  192SOL    HW2  897   1.098   1.030   0.653
  193SOL     OW  898   1.014   0.236   0.971
  193SOL    HW1  899   1.006   0.200   0.878
  193SOL    HW2  900   1.012   0.160   1.036
  194SOL     OW  901   0.590   1.487   0.491
  194SOL    HW1  902   0.632   1.429   0.421
  194SOL    HW2  903   0.546   1.566   0.447
  195SOL     OW  904   1.709   0.385   1.381
  195SOL    HW1  905   1.782   0.454   1.385
  195SOL    HW2  906   1.737   0.310   1.322
  196SOL     OW  907   0.255   1.348   0.290
  196SOL    HW1  908   0.159   1.349   0.263
  196SOL    HW2  909   0.267   1.401   0.374
  197SOL     OW  910   0.105   1.013   1.726
  197SOL    HW1  911   0.028   0.980   1.780
  197SOL    HW2  912   0.190   0.983   1.768
  198SOL     OW  913   0.672   0.203   1.489
  198SOL    HW1  914   0.762   0.187   1.449
  198SOL    HW2  915   0.680   0.208   1.588
  199SOL     OW  916   0.075   0.345   0.033
  199SOL    HW1  917  -0.017   0.317   0.004
  199SOL    HW2  918   0.106   0.422  -0.023
  200SOL     OW  919   1.440   0.856   1.398
  200SOL    HW1  920   1.383   0.908   1.335
  200SOL    HW2  921   1.536   0.868   1.374
  201SOL     OW  922   0.072   0.166   0.318
  201SOL    HW1  923   0.055   0.249   0.264
  201SOL    HW2  924   0.162   0.129   0.296
  202SOL     OW  925   1.183   1.335   0.119
  202SOL    HW1  926   1.084   1.324   0.121
  202SOL    HW2  927   1.217   1.350   0.212
  203SOL     OW  928   0.613   0.842   1.431
  203SOL    HW1  929   0.669   0.923   1.414
  203SOL    HW2  930   0.672   0.762   1.434
  204SOL     OW  931   1.493   1.767   0.959
  204SOL    HW1  932   1.526   1.831   0.890
  204SOL    HW2  933   1.559   1.761   1.034
  205SOL     OW  934   0.716   0.565   1.708
  205SOL    HW1  935   0.735   0.630   1.782
  205SOL    HW2  936   0.776   0.485   1.717
  206SOL     OW  937   1.450   1.220   1.633
  206SOL    HW1  938   1.441   1.210   1.732
  206SOL    HW2  939   1.546   1.213   1.607
  207SOL     OW  940   0.390   1.741   1.560
  207SOL    HW1  941   0.299   1.782   1.558
  207SOL    HW2  942   0.383   1.647   1.592
  208SOL     OW  943   1.674   0.883   1.254
  208SOL    HW1  944   1.647   0.794   1.217
  208SOL    HW2  945   1.675   0.951   1.181
  209SOL     OW  946   1.225   0.325   0.449
  209SOL    HW1  947   1.290   0.251   0.438
  209SOL    HW2  948   1.245   0.375   0.533
  210SOL     OW  949   0.594   0.745   0.652
  210SOL    HW1  950   0.644   0.830   0.633
  210SOL    HW2  951   0.506   0.747   0.604
  211SOL     OW  952   1.777   0.342   1.642
  211SOL    HW1  953   1.760   0.373   1.548
  211SOL    HW2  954   1.693   0.305   1.680
  212SOL     OW  955   1.730   0.934   1.517
  212SOL    HW1  956   1.768   1.025   1.532
  212SOL    HW2  957   1.722   0.917   1.418
  213SOL     OW  958   0.859   1.374   0.016
  213SOL    HW1  959   0.813   1.389   0.104
  213SOL    HW2  960   0.903   1.459  -0.014
  214SOL     OW  961   0.661   1.790   0.953
  214SOL    HW1  962   0.615   1.878   0.940
  214SOL    HW2  963   0.760   1.802   0.946
  215SOL     OW  964   0.859   0.956   0.861
  215SOL    HW1  965   0.913   0.887   0.909
  215SOL    HW2  966   0.827   1.025   0.927
  216SOL     OW  967   1.083   0.984   0.087
  216SOL    HW1  968   1.060   1.037   0.005
  216SOL    HW2  969   1.164   0.928   0.068
  217SOL     OW  970   1.861   1.569   0.851
  217SOL    HW1  971   1.790   1.557   0.781
  217SOL    HW2  972   1.862   1.490   0.911
  218SOL     OW  973   0.221   1.314   1.844
  218SOL    HW1  974   0.156   1.241   1.823
  218SOL    HW2  975   0.225   1.328   1.942
  219SOL     OW  976   0.079   1.240   0.653
  219SOL    HW1  977   0.078   1.193   0.741
  219SOL    HW2  978   0.161   1.212   0.602
  220SOL     OW  979   0.672   1.391   1.624
  220SOL    HW1  980   0.594   1.341   1.662
  220SOL    HW2  981   0.669   1.486   1.655
  221SOL     OW  982   1.824   0.192   1.227
  221SOL    HW1  983   1.820   0.102   1.271
  221SOL    HW2  984   1.827   0.181   1.128
  222SOL     OW  985   0.428   0.424   0.520
  222SOL    HW1  986   0.458   0.352   0.458
  222SOL    HW2  987   0.389   0.384   0.603
  223SOL     OW  988   1.705   1.487   1.104
  223SOL    HW1  989   1.612   1.462   1.077
  223SOL    HW2  990   1.731   1.437   1.186
  224SOL     OW  991   0.317   0.547   1.280
  224SOL    HW1  992   0.355   0.488   1.352
  224SOL    HW2  993   0.357   0.521   1.192
  225SOL     OW  994   0.812   1.586   0.687
  225SOL    HW1  995   0.844   1.596   0.593
  225SOL    HW2  996   0.733   1.524   0.689
  226SOL     OW  997   1.424   0.214   1.112
  226SOL    HW1  998   1.476   0.149   1.167
  226SOL    HW2  999   1.375   0.277   1.173
  227SOL     OW 1000   1.001   0.034   1.154
  227SOL    HW1 1001   0.938  -0.038   1.123
  227SOL    HW2 1002   1.094  -0.002   1.154
  228SOL     OW 1003   0.770   1.330   0.301
  228SOL    HW1 1004   0.724   1.243   0.318
  228SOL    HW2 1005   0.861   1.327   0.342
  229SOL     OW 1006   0.618   1.567   1.284
  229SOL    HW1 1007   0.613   1.649   1.341
  229SOL    HW2 1008   0.707   1.564   1.239
  230SOL     OW 1009   1.352   0.052   0.168
  230SOL    HW1 1010   1.387   0.011   0.084
  230SOL    HW2 1011   1.262   0.014   0.188
  231SOL     OW 1012   1.300   0.453   0.691
  231SOL    HW1 1013   1.241   0.533   0.695
  231SOL    HW2 1014   1.315   0.418   0.784
  232SOL     OW 1015   1.593   0.221   0.882
  232SOL    HW1 1016   1.509   0.220   0.936
  232SOL    HW2 1017   1.595   0.304   0.826
  233SOL     OW 1018   0.039   1.077   0.300
  233SOL    HW1 1019   0.138   1.066   0.291
  233SOL    HW2 1020  -0.001   0.991   0.332
  234SOL     OW 1021   0.875   1.646   0.337
  234SOL    HW1 1022   0.798   1.611   0.283
  234SOL    HW2 1023   0.843   1.717   0.399
  235SOL     OW 1024   0.230   0.628   1.975
  235SOL    HW1 1025   0.137   0.626   2.012
  235SOL    HW2 1026   0.231   0.589   1.883
  236SOL     OW 1027   0.225   0.275   2.858
  236SOL    HW1 1028   0.260   0.258   2.950
  236SOL    HW2 1029   0.137   0.230   2.846
  237SOL     OW 1030   0.019   0.368   2.509
  237SOL    HW1 1031  -0.063   0.411   2.548
  237SOL    HW2 1032  -0.009   0.295   2.446
  238SOL     OW 1033   0.569   1.275   3.027
  238SOL    HW1 1034   0.476   1.268   2.990
  238SOL    HW2 1035   0.580   1.364   3.071
  239SOL     OW 1036   1.555   1.511   2.565
  239SOL    HW1 1037   1.498   1.495   2.646
  239SOL    HW2 1038   1.496   1.521   2.485
  240SOL     OW 1039   1.135   0.703   2.579
  240SOL    HW1 1040   1.192   0.781   2.554
  240SOL    HW2 1041   1.075   0.729   2.655
  241SOL     OW 1042   1.755   0.607   2.093
  241SOL    HW1 1043   1.743   0.594   1.994
  241SOL    HW2 1044   1.725   0.526   2.142
  242SOL     OW 1045   0.768   1.144   2.885
  242SOL    HW1 1046   0.690   1.161   2.945
  242SOL    HW2 1047   0.802   1.231   2.849
  243SOL     OW 1048   0.850   0.798   3.685
  243SOL    HW1 1049   0.846   0.874   3.750
  243SOL    HW2 1050   0.872   0.834   3.594
  244SOL     OW 1051   0.685   1.012   2.527
  244SOL    HW1 1052   0.754   0.996   2.597
  244SOL    HW2 1053   0.612   1.069   2.565
  245SOL     OW 1054   0.686   1.161   3.665
  245SOL    HW1 1055   0.746   1.240   3.679
  245SOL    HW2 1056   0.600   1.192   3.624
  246SOL     OW 1057   0.335   1.435   2.923
  246SOL    HW1 1058   0.257   1.404   2.870
  246SOL    HW2 1059   0.393   1.493   2.866
  247SOL     OW 1060   1.460   1.505   3.201
  247SOL    HW1 1061   1.484   1.599   3.227
  247SOL    HW2 1062   1.444   1.451   3.283
  248SOL     OW 1063   0.438   0.392   3.361
  248SOL    HW1 1064   0.520   0.336   3.370
  248SOL    HW2 1065   0.357   0.334   3.365
  249SOL     OW 1066   1.603   0.447   2.599
  249SOL    HW1 1067   1.529   0.493   2.549
  249SOL    HW2 1068   1.654   0.515   2.652
  250SOL     OW 1069   0.231   1.713   2.345
  250SOL    HW1 1070   0.265   1.790   2.399
  250SOL    HW2 1071   0.275   1.713   2.255
  251SOL     OW 1072   1.127   1.341   3.552
  251SOL    HW1 1073   1.174   1.341   3.640
  251SOL    HW2 1074   1.079   1.254   3.541
  252SOL     OW 1075   0.230   1.434   2.400
  252SOL    HW1 1076   0.204   1.530   2.400
  252SOL    HW2 1077   0.159   1.380   2.445
  253SOL     OW 1078   0.240   1.091   2.748
  253SOL    HW1 1079   0.254   1.007   2.800
  253SOL    HW2 1080   0.185   1.155   2.803
  254SOL     OW 1081   0.620   1.786   3.301
  254SOL    HW1 1082   0.528   1.769   3.336
  254SOL    HW2 1083   0.648   1.878   3.327
  255SOL     OW 1084   0.606   0.964   1.985
  255SOL    HW1 1085   0.613   1.048   1.931
  255SOL    HW2 1086   0.652   0.977   2.073
  256SOL     OW 1087   1.594   0.114   3.342
  256SOL    HW1 1088   1.576   0.181   3.270
  256SOL    HW2 1089   1.591   0.160   3.431
  257SOL     OW 1090   0.122   0.643   2.425
  257SOL    HW1 1091   0.077   0.555   2.442
  257SOL    HW2 1092   0.121   0.697   2.509
  258SOL     OW 1093   1.842   1.767   2.221
  258SOL    HW1 1094   1.896   1.738   2.301
  258SOL    HW2 1095   1.872   1.857   2.192
  259SOL     OW 1096   0.027   1.596   1.979
  259SOL    HW1 1097   0.008   1.500   2.000
  259SOL    HW2 1098  -0.006   1.654   2.054
  260SOL     OW 1099   1.689   0.922   2.474
  260SOL    HW1 1100   1.784   0.893   2.482
  260SOL    HW2 1101   1.681   0.987   2.399
  261SOL     OW 1102   1.641   1.108   2.294
  261SOL    HW1 1103   1.727   1.110   2.242
  261SOL    HW2 1104   1.655   1.155   2.382
  262SOL     OW 1105   0.113   0.737   3.459
  262SOL    HW1 1106   0.201   0.724   3.504
  262SOL    HW2 1107   0.100   0.834   3.437
  263SOL     OW 1108   0.613   1.365   2.588
  263SOL    HW1 1109   0.564   1.278   2.597
  263SOL    HW2 1110   0.590   1.408   2.501
  264SOL     OW 1111   1.293   1.228   3.285
  264SOL    HW1 1112   1.330   1.155   3.227
  264SOL    HW2 1113   1.345   1.233   3.370
  265SOL     OW 1114   0.809   0.004   2.364
  265SOL    HW1 1115   0.849   0.095   2.355
  265SOL    HW2 1116   0.709   0.012   2.370
  266SOL     OW 1117   0.197   0.976   3.126
  266SOL    HW1 1118   0.286   0.931   3.112
  266SOL    HW2 1119   0.124   0.911   3.107
  267SOL     OW 1120   1.525   0.999   2.052
  267SOL    HW1 1121   1.462   0.923   2.065
  267SOL    HW2 1122   1.573   1.017   2.138
  268SOL     OW 1123   1.187   1.792   3.478
  268SOL    HW1 1124   1.211   1.852   3.402
  268SOL    HW2 1125   1.194   1.697   3.448
  269SOL     OW 1126   0.317   0.251   3.663
  269SOL    HW1 1127   0.388   0.322   3.669
  269SOL    HW2 1128   0.229   0.290   3.691
  270SOL     OW 1129   1.466   1.417   2.815
  270SOL    HW1 1130   1.407   1.423   2.895
  270SOL    HW2 1131   1.451   1.329   2.769
  271SOL     OW 1132   1.667   1.714   2.434
  271SOL    HW1 1133   1.626   1.691   2.346
  271SOL    HW2 1134   1.649   1.640   2.499
  272SOL     OW 1135   0.598   0.729   2.132
  272SOL    HW1 1136   0.622   0.798   2.064
  272SOL    HW2 1137   0.520   0.762   2.186
  273SOL     OW 1138   1.281   0.345   2.806
  273SOL    HW1 1139   1.195   0.295   2.793
  273SOL    HW2 1140   1.343   0.291   2.862
  274SOL     OW 1141   1.576   1.662   2.169
  274SOL    HW1 1142   1.665   1.708   2.172
  274SOL    HW2 1143   1.555   1.638   2.074
  275SOL     OW 1144   0.807   0.605   3.327
  275SOL    HW1 1145   0.760   0.602   3.416
  275SOL    HW2 1146   0.756   0.550   3.261
  276SOL     OW 1147   1.394   0.469   3.536
  276SOL    HW1 1148   1.374   0.512   3.624
  276SOL    HW2 1149   1.472   0.407   3.545
  277SOL     OW 1150   0.973   0.890   3.434
  277SOL    HW1 1151   1.019   0.806   3.405
  277SOL    HW2 1152   0.917   0.924   3.359
  278SOL     OW 1153   0.991   0.410   3.104
  278SOL    HW1 1154   0.914   0.444   3.158
  278SOL    HW2 1155   0.957   0.359   3.025
  279SOL     OW 1156   1.041   0.701   2.291
  279SOL    HW1 1157   1.067   0.697   2.387
  279SOL    HW2 1158   0.956   0.650   2.277
  280SOL     OW 1159   0.076   0.811   2.651
  280SOL    HW1 1160   0.175   0.799   2.660
  280SOL    HW2 1161   0.052   0.906   2.672
  281SOL     OW 1162   0.130   1.821   3.433
  281SOL    HW1 1163   0.120   1.806   3.532
  281SOL    HW2 1164   0.044   1.857   3.397
  282SOL     OW 1165   0.865   0.348   2.057
  282SOL    HW1 1166   0.924   0.411   2.008
  282SOL    HW2 1167   0.884   0.254   2.028
  283SOL     OW 1168   1.719   0.585   3.693
  283SOL    HW1 1169   1.693   0.674   3.657
  283SOL    HW2 1170   1.717   0.517   3.620
  284SOL     OW 1171   1.362   1.144   2.407
  284SOL    HW1 1172   1.445   1.115   2.359
  284SOL    HW2 1173   1.313   1.211   2.351
  285SOL     OW 1174   0.550   0.196   2.747
  285SOL    HW1 1175   0.545   0.191   2.847
  285SOL    HW2 1176   0.552   0.292   2.718
  286SOL     OW 1177   1.008   1.456   2.339
  286SOL    HW1 1178   0.962   1.528   2.287
  286SOL    HW2 1179   1.004   1.476   2.437
  287SOL     OW 1180   0.351   1.801   2.715
  287SOL    HW1 1181   0.401   1.715   2.721
  287SOL    HW2 1182   0.416   1.878   2.712
  288SOL     OW 1183   1.795   1.066   2.735
  288SOL    HW1 1184   1.733   1.051   2.659
  288SOL    HW2 1185   1.743   1.077   2.820
  289SOL     OW 1186   1.227   1.550   3.368
  289SOL    HW1 1187   1.233   1.473   3.432
  289SOL    HW2 1188   1.175   1.524   3.288
  290SOL     OW 1189   0.321   0.943   2.104
  290SOL    HW1 1190   0.403   0.982   2.062
  290SOL    HW2 1191   0.294   0.861   2.055
  291SOL     OW 1192   1.458   0.735   2.590
  291SOL    HW1 1193   1.453   0.670   2.665
  291SOL    HW2 1194   1.538   0.794   2.603
  292SOL     OW 1195   0.461   1.266   3.589
  292SOL    HW1 1196   0.411   1.267   3.503
  292SOL    HW2 1197   0.398   1.248   3.665
  293SOL     OW 1198   1.111   1.776   2.099
  293SOL    HW1 1199   1.051   1.714   2.149
  293SOL    HW2 1200   1.142   1.732   2.014
  294SOL     OW 1201   0.202   0.285   3.360
  294SOL    HW1 1202   0.122   0.345   3.347
  294SOL    HW2 1203   0.192   0.236   3.446
  295SOL     OW 1204   1.632   1.377   1.943
  295SOL    HW1 1205   1.600   1.471   1.933
  295SOL    HW2 1206   1.556   1.314   1.931
  296SOL     OW 1207   0.464   1.743   2.185
  296SOL    HW1 1208   0.497   1.782   2.271
  296SOL    HW2 1209   0.540   1.736   2.120
  297SOL     OW 1210   1.400   0.107   2.288
  297SOL    HW1 1211   1.376   0.070   2.198
  297SOL    HW2 1212   1.499   0.123   2.292
  298SOL     OW 1213   0.249   1.785   3.103
  298SOL    HW1 1214   0.306   1.720   3.153
  298SOL    HW2 1215   0.233   1.752   3.010
  299SOL     OW 1216   0.940   1.698   2.766
  299SOL    HW1 1217   1.020   1.641   2.787
  299SOL    HW2 1218   0.891   1.658   2.689
  300SOL     OW 1219   0.382   0.700   2.342
  300SOL    HW1 1220   0.427   0.610   2.339
  300SOL    HW2 1221   0.288   0.689   2.375
  301SOL     OW 1222   1.547   0.222   3.591
  301SOL    HW1 1223   1.542   0.259   3.683
  301SOL    HW2 1224   1.475   0.153   3.579
  302SOL     OW 1225   0.614   0.122   1.979
  302SOL    HW1 1226   0.712   0.100   1.986
  302SOL    HW2 1227   0.583   0.105   1.886
  303SOL     OW 1228   0.781   0.264   3.611
  303SOL    HW1 1229   0.848   0.203   3.654
  303SOL    HW2 1230   0.708   0.283   3.676
  304SOL     OW 1231   0.888   1.514   3.057
  304SOL    HW1 1232   0.865   1.489   2.963
  304SOL    HW2 1233   0.949   1.445   3.096
  305SOL     OW 1234   1.351   0.590   3.295
  305SOL    HW1 1235   1.379   0.547   3.380
  305SOL    HW2 1236   1.376   0.686   3.296
  306SOL     OW 1237   0.803   1.402   2.786
  306SOL    HW1 1238   0.893   1.416   2.744
  306SOL    HW2 1239   0.732   1.404   2.715
  307SOL     OW 1240   0.922   0.503   2.761
  307SOL    HW1 1241   0.897   0.494   2.665
  307SOL    HW2 1242   0.970   0.421   2.792
  308SOL     OW 1243   0.539   0.064   2.374
  308SOL    HW1 1244   0.458   0.065   2.432
  308SOL    HW2 1245   0.542   0.147   2.319
  309SOL     OW 1246   1.434   1.188   1.903
  309SOL    HW1 1247   1.466   1.112   1.960
  309SOL    HW2 1248   1.342   1.215   1.933
  310SOL     OW 1249   0.297   0.035   2.033
  310SOL    HW1 1250   0.346   0.119   2.012
  310SOL    HW2 1251   0.359  -0.030   2.078
  311SOL     OW 1252   0.935   0.236   2.342
  311SOL    HW1 1253   0.887   0.277   2.264
  311SOL    HW2 1254   1.034   0.234   2.323
  312SOL     OW 1255   1.076   0.683   3.326
  312SOL    HW1 1256   0.996   0.622   3.329
  312SOL    HW2 1257   1.157   0.630   3.302
  313SOL     OW 1258   1.227   1.570   2.655
  313SOL    HW1 1259   1.248   1.644   2.590
  313SOL    HW2 1260   1.295   1.570   2.728
  314SOL     OW 1261   0.459   1.152   2.603
  314SOL    HW1 1262   0.388   1.125   2.668
  314SOL    HW2 1263   0.433   1.124   2.510
  315SOL     OW 1264   1.271   1.797   2.453
  315SOL    HW1 1265   1.315   1.861   2.389
  315SOL    HW2 1266   1.221   1.849   2.523
  316SOL     OW 1267   1.032   0.549   1.878
  316SOL    HW1 1268   0.991   0.631   1.839
  316SOL    HW2 1269   1.096   0.575   1.951
  317SOL     OW 1270   0.078   0.556   3.248
  317SOL    HW1 1271   0.170   0.555   3.207
  317SOL    HW2 1272   0.072   0.630   3.315
  318SOL     OW 1273   0.561   0.222   3.009
  318SOL    HW1 1274   0.599   0.138   3.046
  318SOL    HW2 1275   0.473   0.241   3.053
  319SOL     OW 1276   0.866   0.454   2.504
  319SOL    HW1 1277   0.834   0.526   2.442
  319SOL    HW2 1278   0.890   0.373   2.451
  320SOL     OW 1279   1.017   0.039   2.615
  320SOL    HW1 1280   0.945   0.044   2.546
  320SOL    HW2 1281   0.993  -0.030   2.684
  321SOL     OW 1282   1.429   1.173   2.729
  321SOL    HW1 1283   1.374   1.089   2.722
  321SOL    HW2 1284   1.455   1.202   2.637
  322SOL     OW 1285   1.466   0.590   2.854
  322SOL    HW1 1286   1.436   0.495   2.861
  322SOL    HW2 1287   1.539   0.606   2.920
  323SOL     OW 1288   1.857   0.833   2.239
  323SOL    HW1 1289   1.899   0.769   2.303
  323SOL    HW2 1290   1.819   0.782   2.161
  324SOL     OW 1291   0.488   1.385   2.036
  324SOL    HW1 1292   0.401   1.370   2.083
  324SOL    HW2 1293   0.471   1.411   1.941
  325SOL     OW 1294   1.664   1.280   2.519
  325SOL    HW1 1295   1.763   1.288   2.533
  325SOL    HW2 1296   1.619   1.364   2.550
  326SOL     OW 1297   1.390   0.575   1.940
  326SOL    HW1 1298   1.336   0.554   2.021
  326SOL    HW2 1299   1.481   0.534   1.949
  327SOL     OW 1300   0.527   0.256   2.190
  327SOL    HW1 1301   0.554   0.197   2.115
  327SOL    HW2 1302   0.527   0.351   2.159
  328SOL     OW 1303   1.754   1.223   3.450
  328SOL    HW1 1304   1.845   1.184   3.437
  328SOL    HW2 1305   1.762   1.319   3.474
  329SOL     OW 1306   1.064   1.347   3.202
  329SOL    HW1 1307   0.984   1.324   3.257
  329SOL    HW2 1308   1.147   1.321   3.251
  330SOL     OW 1309   1.592   1.629   3.487
  330SOL    HW1 1310   1.619   1.663   3.397
  330SOL    HW2 1311   1.671   1.591   3.533
  331SOL     OW 1312   1.111   1.195   2.962
  331SOL    HW1 1313   1.071   1.239   3.043
  331SOL    HW2 1314   1.070   1.232   2.879
  332SOL     OW 1315   1.638   1.099   2.941
  332SOL    HW1 1316   1.643   1.180   3.000
  332SOL    HW2 1317   1.552   1.101   2.890
  333SOL     OW 1318   0.915   0.089   3.264
  333SOL    HW1 1319   0.940   0.069   3.169
  333SOL    HW2 1320   0.987   0.145   3.306
  334SOL     OW 1321   0.980   1.116   3.581
  334SOL    HW1 1322   0.881   1.122   3.591
  334SOL    HW2 1323   1.003   1.036   3.525
  335SOL     OW 1324   0.705   1.050   2.230
  335SOL    HW1 1325   0.691   1.057   2.329
  335SOL    HW2 1326   0.789   0.999   2.212
  336SOL     OW 1327   0.410   0.813   3.113
  336SOL    HW1 1328   0.496   0.825   3.163
  336SOL    HW2 1329   0.368   0.726   3.140
  337SOL     OW 1330   1.274   0.386   3.124
  337SOL    HW1 1331   1.295   0.460   3.188
  337SOL    HW2 1332   1.185   0.403   3.081
  338SOL     OW 1333   0.064   1.564   3.193
  338SOL    HW1 1334   0.018   1.646   3.159
  338SOL    HW2 1335   0.162   1.583   3.202
  339SOL     OW 1336   0.367   1.100   2.363
  339SOL    HW1 1337   0.360   1.183   2.307
  339SOL    HW2 1338   0.371   1.020   2.303
  340SOL     OW 1339   0.566   0.537   2.727
  340SOL    HW1 1340   0.578   0.603   2.653
  340SOL    HW2 1341   0.612   0.571   2.810
  341SOL     OW 1342   1.252   1.348   2.250
  341SOL    HW1 1343   1.302   1.425   2.290
  341SOL    HW2 1344   1.157   1.350   2.282
  342SOL     OW 1345   1.272   1.445   3.004
  342SOL    HW1 1346   1.319   1.458   3.091
  342SOL    HW2 1347   1.206   1.371   3.013
  343SOL     OW 1348   1.582   0.639   2.334
  343SOL    HW1 1349   1.551   0.700   2.407
  343SOL    HW2 1350   1.632   0.691   2.265
  344SOL     OW 1351   0.354   1.510   3.191
  344SOL    HW1 1352   0.333   1.466   3.104
  344SOL    HW2 1353   0.451   1.536   3.194
  345SOL     OW 1354   0.402   0.751   3.460
  345SOL    HW1 1355   0.470   0.806   3.413
  345SOL    HW2 1356   0.442   0.663   3.487
  346SOL     OW 1357   1.587   0.779   3.532
  346SOL    HW1 1358   1.495   0.817   3.527
  346SOL    HW2 1359   1.647   0.826   3.467
  347SOL     OW 1360   1.013   0.105   3.632
  347SOL    HW1 1361   1.019   0.190   3.580
  347SOL    HW2 1362   1.045   0.029   3.575
  348SOL     OW 1363   0.504   0.050   3.602
  348SOL    HW1 1364   0.462  -0.007   3.532
  348SOL    HW2 1365   0.438   0.119   3.634
  349SOL     OW 1366   0.573   0.870   2.891
  349SOL    HW1 1367   0.617   0.959   2.882
  349SOL    HW2 1368   0.510   0.870   2.968
  350SOL     OW 1369   1.360   0.862   2.907
  350SOL    HW1 1370   1.285   0.862   2.841
  350SOL    HW2 1371   1.397   0.770   2.916
  351SOL     OW 1372   1.209   0.525   2.137
  351SOL    HW1 1373   1.222   0.441   2.191
  351SOL    HW2 1374   1.180   0.599   2.197
  352SOL     OW 1375   0.307   0.213   3.093
  352SOL    HW1 1376   0.284   0.250   3.183
  352SOL    HW2 1377   0.277   0.118   3.087
  353SOL     OW 1378   0.037   1.310   3.144
  353SOL    HW1 1379   0.090   1.261   3.212
  353SOL    HW2 1380   0.059   1.408   3.149
  354SOL     OW 1381   0.732   0.634   2.926
  354SOL    HW1 1382   0.791   0.608   2.850
  354SOL    HW2 1383   0.704   0.730   2.915
  355SOL     OW 1384   1.728   0.935   3.716
  355SOL    HW1 1385   1.682   0.928   3.627
  355SOL    HW2 1386   1.666   0.979   3.782
  356SOL     OW 1387   0.307   0.063   2.480
  356SOL    HW1 1388   0.296   0.157   2.513
  356SOL    HW2 1389   0.302   0.000   2.557
  357SOL     OW 1390   1.622   0.367   2.236
  357SOL    HW1 1391   1.624   0.291   2.300
  357SOL    HW2 1392   1.574   0.444   2.276
  358SOL     OW 1393   1.023   0.766   2.828
  358SOL    HW1 1394   1.038   0.787   2.924
  358SOL    HW2 1395   0.993   0.671   2.819
  359SOL     OW 1396   0.980   1.573   3.562
  359SOL    HW1 1397   0.960   1.617   3.474
  359SOL    HW2 1398   1.019   1.482   3.546
  360SOL     OW 1399   1.859   1.518   3.467
  360SOL    HW1 1400   1.873   1.545   3.372
  360SOL    HW2 1401   1.942   1.540   3.520
  361SOL     OW 1402   0.350   0.898   3.666
  361SOL    HW1 1403   0.426   0.942   3.714
  361SOL    HW2 1404   0.385   0.851   3.584
  362SOL     OW 1405   1.540   0.274   1.987
  362SOL    HW1 1406   1.479   0.199   2.010
  362SOL    HW2 1407   1.562   0.326   2.070
  363SOL     OW 1408   1.303   0.838   1.904
  363SOL    HW1 1409   1.337   0.745   1.919
  363SOL    HW2 1410   1.321   0.865   1.809
  364SOL     OW 1411   1.068   1.333   2.711
  364SOL    HW1 1412   1.075   1.249   2.656
  364SOL    HW2 1413   1.130   1.402   2.675
  365SOL     OW 1414   0.319   0.810   2.811
  365SOL    HW1 1415   0.412   0.846   2.816
  365SOL    HW2 1416   0.313   0.725   2.863
  366SOL     OW 1417   0.339   0.509   2.868
  366SOL    HW1 1418   0.287   0.426   2.851
  366SOL    HW2 1419   0.416   0.514   2.804
  367SOL     OW 1420   1.138   0.380   3.540
  367SOL    HW1 1421   1.093   0.443   3.604
  367SOL    HW2 1422   1.231   0.411   3.523
  368SOL     OW 1423   1.160   0.207   3.339
  368SOL    HW1 1424   1.160   0.271   3.416
  368SOL    HW2 1425   1.188   0.255   3.256
  369SOL     OW 1426   0.008   1.326   2.062
  369SOL    HW1 1427  -0.085   1.347   2.031
  369SOL    HW2 1428   0.018   1.227   2.075
  370SOL     OW 1429   0.088   1.801   2.789
  370SOL    HW1 1430   0.046   1.715   2.762
  370SOL    HW2 1431   0.182   1.804   2.755
  371SOL     OW 1432   0.504   1.568   2.772
  371SOL    HW1 1433   0.570   1.642   2.781
  371SOL    HW2 1434   0.548   1.489   2.730
  372SOL     OW 1435   1.002   0.796   3.100
  372SOL    HW1 1436   1.043   0.764   3.186
  372SOL    HW2 1437   0.906   0.769   3.097
  373SOL     OW 1438   0.040   0.544   2.976
  373SOL    HW1 1439   0.125   0.511   2.935
  373SOL    HW2 1440   0.053   0.559   3.074
  374SOL     OW 1441   0.189   0.520   3.584
  374SOL    HW1 1442   0.248   0.480   3.514
  374SOL    HW2 1443   0.131   0.591   3.543
  375SOL     OW 1444   1.369   0.950   3.522
  375SOL    HW1 1445   1.408   1.039   3.542
  375SOL    HW2 1446   1.379   0.930   3.425
  376SOL     OW 1447   0.815   0.572   2.187
  376SOL    HW1 1448   0.822   0.483   2.141
  376SOL    HW2 1449   0.721   0.606   2.179
  377SOL     OW 1450   1.657   0.604   3.068
  377SOL    HW1 1451   1.619   0.535   3.130
  377SOL    HW2 1452   1.739   0.568   3.024
  378SOL     OW 1453   0.252   1.564   3.606
  378SOL    HW1 1454   0.222   1.621   3.682
  378SOL    HW2 1455   0.245   1.467   3.632
  379SOL     OW 1456   0.671   0.464   3.131
  379SOL    HW1 1457   0.637   0.375   3.101
  379SOL    HW2 1458   0.697   0.518   3.051
  380SOL     OW 1459   0.930   1.678   3.327
  380SOL    HW1 1460   0.906   1.660   3.232
  380SOL    HW2 1461   0.960   1.772   3.337
  381SOL     OW 1462   0.473   0.500   2.053
  381SOL    HW1 1463   0.534   0.580   2.057
  381SOL    HW2 1464   0.378   0.531   2.060
  382SOL     OW 1465   0.159   1.137   3.328
  382SOL    HW1 1466   0.181   1.076   3.404
  382SOL    HW2 1467   0.169   1.088   3.242
  383SOL     OW 1468   1.347   1.059   3.096
  383SOL    HW1 1469   1.371   0.996   3.022
  383SOL    HW2 1470   1.257   1.099   3.078
  384SOL     OW 1471   1.302   0.855   2.171
  384SOL    HW1 1472   1.216   0.824   2.213
  384SOL    HW2 1473   1.298   0.841   2.072
  385SOL     OW 1474   1.759   1.747   3.016
  385SOL    HW1 1475   1.820   1.777   2.943
  385SOL    HW2 1476   1.721   1.658   2.994
  386SOL     OW 1477   1.252   1.731   2.990
  386SOL    HW1 1478   1.336   1.736   2.936
  386SOL    HW2 1479   1.229   1.635   3.008
  387SOL     OW 1480   0.083   1.258   2.884
  387SOL    HW1 1481   0.078   1.257   2.984
  387SOL    HW2 1482   0.000   1.217   2.846
  388SOL     OW 1483   0.688   1.662   3.578
  388SOL    HW1 1484   0.632   1.743   3.587
  388SOL    HW2 1485   0.740   1.666   3.492
  389SOL     OW 1486   1.726   0.135   2.385
  389SOL    HW1 1487   1.799   0.118   2.318
  389SOL    HW2 1488   1.695   0.048   2.423
  390SOL     OW 1489   1.388   1.573   2.339
  390SOL    HW1 1490   1.455   1.585   2.265
  390SOL    HW2 1491   1.348   1.662   2.362
  391SOL     OW 1492   0.130   1.794   3.713
  391SOL    HW1 1493   0.089   1.720   3.766
  391SOL    HW2 1494   0.194   1.845   3.771
  392SOL     OW 1495   1.280   0.927   2.534
  392SOL    HW1 1496   1.340   0.846   2.536
  392SOL    HW2 1497   1.320   0.996   2.474
  393SOL     OW 1498   0.830   1.273   3.284
  393SOL    HW1 1499   0.825   1.306   3.379
  393SOL    HW2 1500   0.744   1.292   3.238
  394SOL     OW 1501   0.672   1.616   2.016
  394SOL    HW1 1502   0.681   1.626   1.917
  394SOL    HW2 1503   0.632   1.527   2.037
  395SOL     OW 1504   1.650   1.720   3.256
  395SOL    HW1 1505   1.703   1.730   3.172
  395SOL    HW2 1506   1.623   1.810   3.290
  396SOL     OW 1507   1.841   0.175   2.825
  396SOL    HW1 1508   1.880   0.090   2.789
  396SOL    HW2 1509   1.743   0.177   2.806
  397SOL     OW 1510   0.263   0.326   2.582
  397SOL    HW1 1511   0.184   0.377   2.548
  397SOL    HW2 1512   0.254   0.311   2.680
  398SOL     OW 1513   1.194   1.612   1.893
  398SOL    HW1 1514   1.200   1.519   1.930
  398SOL    HW2 1515   1.135   1.612   1.813
  399SOL     OW 1516   0.822   1.002   3.234
  399SOL    HW1 1517   0.862   1.001   3.142
  399SOL    HW2 1518   0.832   1.094   3.274
  400SOL     OW 1519   0.916   0.910   2.153
  400SOL    HW1 1520   0.979   0.948   2.085
  400SOL    HW2 1521   0.956   0.827   2.192
  401SOL     OW 1522   1.504   1.607   1.906
  401SOL    HW1 1523   1.412   1.644   1.913
  401SOL    HW2 1524   1.542   1.627   1.816
  402SOL     OW 1525   0.372   1.288   3.352
  402SOL    HW1 1526   0.359   1.381   3.318
  402SOL    HW2 1527   0.288   1.236   3.339
  403SOL     OW 1528   1.614   1.292   3.151
  403SOL    HW1 1529   1.674   1.295   3.231
  403SOL    HW2 1530   1.539   1.356   3.164
  404SOL     OW 1531   1.039   1.098   2.558
  404SOL    HW1 1532   0.969   1.051   2.612
  404SOL    HW2 1533   1.098   1.030   2.515
  405SOL     OW 1534   1.014   0.236   2.833
  405SOL    HW1 1535   1.006   0.200   2.740
  405SOL    HW2 1536   1.012   0.160   2.898
  406SOL     OW 1537   0.590   1.487   2.353
  406SOL    HW1 1538   0.632   1.429   2.283
  406SOL    HW2 1539   0.546   1.566   2.309
  407SOL     OW 1540   1.709   0.385   3.243
  407SOL    HW1 1541   1.782   0.454   3.247
  407SOL    HW2 1542   1.737   0.310   3.184
  408SOL     OW 1543   0.255   1.348   2.152
  408SOL    HW1 1544   0.159   1.349   2.125
  408SOL    HW2 1545   0.267   1.401   2.236
  409SOL     OW 1546   0.105   1.013   3.588
  409SOL    HW1 1547   0.028   0.980   3.642
  409SOL    HW2 1548   0.190   0.983   3.630
  410SOL     OW 1549   0.672   0.203   3.351
  410SOL    HW1 1550   0.762   0.187   3.311
  410SOL    HW2 1551   0.680   0.208   3.450
  411SOL     OW 1552   0.075   0.345   1.895
  411SOL    HW1 1553  -0.017   0.317   1.866
  411SOL    HW2 1554   0.106   0.422   1.839
  412SOL     OW 1555   1.440   0.856   3.260
  412SOL    HW1 1556   1.383   0.908   3.197
  412SOL    HW2 1557   1.536   0.868   3.236
  413SOL     OW 1558   0.072   0.166   2.180
  413SOL    HW1 1559   0.055   0.249   2.126
  413SOL    HW2 1560   0.162   0.129   2.158
  414SOL     OW 1561   1.183   1.335   1.981
  414SOL    HW1 1562   1.084   1.324   1.983
  414SOL    HW2 1563   1.217   1.350   2.074
  415SOL     OW 1564   0.613   0.842   3.293
  415SOL    HW1 1565   0.669   0.923   3.276
  415SOL    HW2 1566   0.672   0.762   3.296
  416SOL     OW 1567   1.493   1.767   2.821
  416SOL    HW1 1568   1.526   1.831   2.752
  416SOL    HW2 1569   1.559   1.761   2.896
  417SOL     OW 1570   0.716   0.565   3.570
  417SOL    HW1 1571   0.735   0.630   3.644
  417SOL    HW2 1572   0.776   0.485   3.579
  418SOL     OW 1573   1.450   1.220   3.495
  418SOL    HW1 1574   1.441   1.210   3.594
  418SOL    HW2 1575   1.546   1.213   3.469
  419SOL     OW 1576   0.390   1.741   3.422
  419SOL    HW1 1577   0.299   1.782   3.420
  419SOL    HW2 1578   0.383   1.647   3.454
  420SOL     OW 1579   1.674   0.883   3.116
  420SOL    HW1 1580   1.647   0.794   3.079
  420SOL    HW2 1581   1.675   0.951   3.043
  421SOL     OW 1582   1.225   0.325   2.311
  421SOL    HW1 1583   1.290   0.251   2.300
  421SOL    HW2 1584   1.245   0.375   2.395
  422SOL     OW 1585   0.594   0.745   2.514
  422SOL    HW1 1586   0.644   0.830   2.495
  422SOL    HW2 1587   0.506   0.747   2.466
  423SOL     OW 1588   1.777   0.342   3.504
  423SOL    HW1 1589   1.760   0.373   3.410
  423SOL    HW2 1590   1.693   0.305   3.542
  424SOL     OW 1591   1.730   0.934   3.379
  424SOL    HW1 1592   1.768   1.025   3.394
  424SOL    HW2 1593   1.722   0.917   3.280
  425SOL     OW 1594   0.859   1.374   1.878
  425SOL    HW1 1595   0.813   1.389   1.966
  425SOL    HW2 1596   0.903   1.459   1.848
  426SOL     OW 1597   0.661   1.790   2.815
  426SOL    HW1 1598   0.615   1.878   2.802
  426SOL    HW2 1599   0.760   1.802   2.808
  427SOL     OW 1600   0.859   0.956   2.723
  427SOL    HW1 1601   0.913   0.887   2.771
  427SOL    HW2 1602   0.827   1.025   2.789
  428SOL     OW 1603   1.083   0.984   1.949
  428SOL    HW1 1604   1.060   1.037   1.867
  428SOL    HW2 1605   1.164   0.928   1.930
  429SOL     OW 1606   1.861   1.569   2.713
  429SOL    HW1 1607   1.790   1.557   2.643
  429SOL    HW2 1608   1.862   1.490   2.773
  430SOL     OW 1609   0.221   1.314   3.706
  430SOL    HW1 1610   0.156   1.241   3.685
  430SOL    HW2 1611   0.225   1.328   3.804
  431SOL     OW 1612   0.079   1.240   2.515
  431SOL    HW1 1613   0.078   1.193   2.603
  431SOL    HW2 1614   0.161   1.212   2.464
  432SOL     OW 1615   0.672   1.391   3.486
  432SOL    HW1 1616   0.594   1.341   3.524
  432SOL    HW2 1617   0.669   1.486   3.517
  433SOL     OW 1618   1.824   0.192   3.089
  433SOL    HW1 1619   1.820   0.102   3.133
  433SOL    HW2 1620   1.827   0.181   2.990
  434SOL     OW 1621   0.428   0.424   2.382
  434SOL    HW1 1622   0.458   0.352   2.320
  434SOL    HW2 1623   0.389   0.384   2.465
  435SOL     OW 1624   1.705   1.487   2.966
  435SOL    HW1 1625   1.612   1.462   2.939
  435SOL    HW2 1626   1.731   1.437   3.048
  436SOL     OW 1627   0.317   0.547   3.142
  436SOL    HW1 1628   0.355   0.488   3.214
  436SOL    HW2 1629   0.357   0.521   3.054
  437SOL     OW 1630   0.812   1.586   2.549
  437SOL    HW1 1631   0.844   1.596   2.455
  437SOL    HW2 1632   0.733   1.524   2.551
  438SOL     OW 1633   1.424   0.214   2.974
  438SOL    HW1 1634   1.476   0.149   3.029
  438SOL    HW2 1635   1.375   0.277   3.035
  439SOL     OW 1636   1.001   0.034   3.016
  439SOL    HW1 1637   0.938  -0.038   2.985
  439SOL    HW2 1638   1.094  -0.002   3.016
  440SOL     OW 1639   0.770   1.330   2.163
  440SOL    HW1 1640   0.724   1.243   2.180
  440SOL    HW2 1641   0.861   1.327   2.204
  441SOL     OW 1642   0.618   1.567   3.146
  441SOL    HW1 1643   0.613   1.649   3.203
  441SOL    HW2 1644   0.707   1.564   3.101
  442SOL     OW 1645   1.352   0.052   2.030
  442SOL    HW1 1646   1.387   0.011   1.946
  442SOL    HW2 1647   1.262   0.014   2.050
  443SOL     OW 1648   1.300   0.453   2.553
  443SOL    HW1 1649   1.241   0.533   2.557
  443SOL    HW2 1650   1.315   0.418   2.646
  444SOL     OW 1651   1.593   0.221   2.744
  444SOL    HW1 1652   1.509   0.220   2.798
  444SOL    HW2 1653   1.595   0.304   2.688
  445SOL     OW 1654   0.039   1.077   2.162
  445SOL    HW1 1655   0.138   1.066   2.153
  445SOL    HW2 1656  -0.001   0.991   2.194
  446SOL     OW 1657   0.875   1.646   2.199
  446SOL    HW1 1658   0.798   1.611   2.145
  446SOL    HW2 1659   0.843   1.717   2.261
  447SOL     OW 1660   0.230   0.628   3.837
  447SOL    HW1 1661   0.137   0.626   3.874
  447SOL    HW2 1662   0.231   0.589   3.745
  448SOL     OW 1663   0.225   0.275   4.720
  448SOL    HW1 1664   0.260   0.258   4.812
  448SOL    HW2 1665   0.137   0.230   4.708
  449SOL     OW 1666   0.019   0.368   4.371
  449SOL    HW1 1667  -0.063   0.411   4.410
  449SOL    HW2 1668  -0.009   0.295   4.308
  450SOL     OW 1669   0.569   1.275   4.889
  450SOL    HW1 1670   0.476   1.268   4.852
  450SOL    HW2 1671   0.580   1.364   4.933
  451SOL     OW 1672   1.555   1.511   4.427
  451SOL    HW1 1673   1.498   1.495   4.508
  451SOL    HW2 1674   1.496   1.521   4.347
  452SOL     OW 1675   1.135   0.703   4.441
  452SOL    HW1 1676   1.192   0.781   4.416
  452SOL    HW2 1677   1.075   0.729   4.517
  453SOL     OW 1678   1.755   0.607   3.955
  453SOL    HW1 1679   1.743   0.594   3.856
  453SOL    HW2 1680   1.725   0.526   4.004
  454SOL     OW 1681   0.768   1.144   4.747
  454SOL    HW1 1682   0.690   1.161   4.807
  454SOL    HW2 1683   0.802   1.231   4.711
  455SOL     OW 1684   0.850   0.798   5.547
  455SOL    HW1 1685   0.846   0.874   5.612
  455SOL    HW2 1686   0.872   0.834   5.456
  456SOL     OW 1687   0.685   1.012   4.389
  456SOL    HW1 1688   0.754   0.996   4.459
  456SOL    HW2 1689   0.612   1.069   4.427
  457SOL     OW 1690   0.686   1.161   5.527
  457SOL    HW1 1691   0.746   1.240   5.541
  457SOL    HW2 1692   0.600   1.192   5.486
  458SOL     OW 1693   0.335   1.435   4.785
  458SOL    HW1 1694   0.257   1.404   4.732
  458SOL    HW2 1695   0.393   1.493   4.728
  459SOL     OW 1696   1.460   1.505   5.063
  459SOL    HW1 1697   1.484   1.599   5.089
  459SOL    HW2 1698   1.444   1.451   5.145
  460SOL     OW 1699   0.438   0.392   5.223
  460SOL    HW1 1700   0.520   0.336   5.232
  460SOL    HW2 1701   0.357   0.334   5.227
  461SOL     OW 1702   1.603   0.447   4.461
  461SOL    HW1 1703   1.529   0.493   4.411
  461SOL    HW2 1704   1.654   0.515   4.514
  462SOL     OW 1705   0.231   1.713   4.207
  462SOL    HW1 1706   0.265   1.790   4.261
  462SOL    HW2 1707   0.275   1.713   4.117
  463SOL     OW 1708   1.127   1.341   5.414
  463SOL    HW1 1709   1.174   1.341   5.502
  463SOL    HW2 1710   1.079   1.254   5.403
  464SOL     OW 1711   0.230   1.434   4.262
  464SOL    HW1 1712   0.204   1.530   4.262
  464SOL    HW2 1713   0.159   1.380   4.307
  465SOL     OW 1714   0.240   1.091   4.610
  465SOL    HW1 1715   0.254   1.007   4.662
  465SOL    HW2 1716   0.185   1.155   4.665
  466SOL     OW 1717   0.620   1.786   5.163
  466SOL    HW1 1718   0.528   1.769   5.198
  466SOL    HW2 1719   0.648   1.878   5.189
  467SOL     OW 1720   0.606   0.964   3.847
  467SOL    HW1 1721   0.613   1.048   3.793
  467SOL    HW2 1722   0.652   0.977   3.935
  468SOL     OW 1723   1.594   0.114   5.204
  468SOL    HW1 1724   1.576   0.181   5.132
  468SOL    HW2 1725   1.591   0.160   5.293
  469SOL     OW 1726   0.122   0.643   4.287
  469SOL    HW1 1727   0.077   0.555   4.304
  469SOL    HW2 1728   0.121   0.697   4.371
  470SOL     OW 1729   1.842   1.767   4.083
  470SOL    HW1 1730   1.896   1.738   4.163
  470SOL    HW2 1731   1.872   1.857   4.054
  471SOL     OW 1732   0.027   1.596   3.841
  471SOL    HW1 1733   0.008   1.500   3.862
  471SOL    HW2 1734  -0.006   1.654   3.916
  472SOL     OW 1735   1.689   0.922   4.336
  472SOL    HW1 1736   1.784   0.893   4.344
  472SOL    HW2 1737   1.681   0.987   4.261
  473SOL     OW 1738   1.641   1.108   4.156
  473SOL    HW1 1739   1.727   1.110   4.104
  473SOL    HW2 1740   1.655   1.155   4.244
  474SOL     OW 1741   0.113   0.737   5.321
  474SOL    HW1 1742   0.201   0.724   5.366
  474SOL    HW2 1743   0.100   0.834   5.299
  475SOL     OW 1744   0.613   1.365   4.450
  475SOL    HW1 1745   0.564   1.278   4.459
  475SOL    HW2 1746   0.590   1.408   4.363
  476SOL     OW 1747   1.293   1.228   5.147
  476SOL    HW1 1748   1.330   1.155   5.089
  476SOL    HW2 1749   1.345   1.233   5.232
  477SOL     OW 1750   0.809   0.004   4.226
  477SOL    HW1 1751   0.849   0.095   4.217
  477SOL    HW2 1752   0.709   0.012   4.232
  478SOL     OW 1753   0.197   0.976   4.988
  478SOL    HW1 1754   0.286   0.931   4.974
  478SOL    HW2 1755   0.124   0.911   4.969
  479SOL     OW 1756   1.525   0.999   3.914
  479SOL    HW1 1757   1.462   0.923   3.927
  479SOL    HW2 1758   1.573   1.017   4.000
  480SOL     OW 1759   1.187   1.792   5.340
  480SOL    HW1 1760   1.211   1.852   5.264
  480SOL    HW2 1761   1.194   1.697   5.310
  481SOL     OW 1762   0.317   0.251   5.525
  481SOL    HW1 1763   0.388   0.322   5.531
  481SOL    HW2 1764   0.229   0.290   5.553
  482SOL     OW 1765   1.466   1.417   4.677
  482SOL    HW1 1766   1.407   1.423   4.757
  482SOL    HW2 1767   1.451   1.329   4.631
  483SOL     OW 1768   1.667   1.714   4.296
  483SOL    HW1 1769   1.626   1.691   4.208
  483SOL    HW2 1770   1.649   1.640   4.361
  484SOL     OW 1771   0.598   0.729   3.994
  484SOL    HW1 1772   0.622   0.798   3.926
  484SOL    HW2 1773   0.520   0.762   4.048
  485SOL     OW 1774   1.281   0.345   4.668
  485SOL    HW1 1775   1.195   0.295   4.655
  485SOL    HW2 1776   1.343   0.291   4.724
  486SOL     OW 1777   1.576   1.662   4.031
  486SOL    HW1 1778   1.665   1.708   4.034
  486SOL    HW2 1779   1.555   1.638   3.936
  487SOL     OW 1780   0.807   0.605   5.189
  487SOL    HW1 1781   0.760   0.602   5.278
  487SOL    HW2 1782   0.756   0.550   5.123
  488SOL     OW 1783   1.394   0.469   5.398
  488SOL    HW1 1784   1.374   0.512   5.486
  488SOL    HW2 1785   1.472   0.407   5.407
  489SOL     OW 1786   0.973   0.890   5.296
  489SOL    HW1 1787   1.019   0.806   5.267
  489SOL    HW2 1788   0.917   0.924   5.221
  490SOL     OW 1789   0.991   0.410   4.966
  490SOL    HW1 1790   0.914   0.444   5.020
  490SOL    HW2 1791   0.957   0.359   4.887
  491SOL     OW 1792   1.041   0.701   4.153
  491SOL    HW1 1793   1.067   0.697   4.249
  491SOL    HW2 1794   0.956   0.650   4.139
  492SOL     OW 1795   0.076   0.811   4.513
  492SOL    HW1 1796   0.175   0.799   4.522
  492SOL    HW2 1797   0.052   0.906   4.534
  493SOL     OW 1798   0.130   1.821   5.295
  493SOL    HW1 1799   0.120   1.806   5.394
  493SOL    HW2 1800   0.044   1.857   5.259
  494SOL     OW 1801   0.865   0.348   3.919
  494SOL    HW1 1802   0.924   0.411   3.870
  494SOL    HW2 1803   0.884   0.254   3.890
  495SOL     OW 1804   1.719   0.585   5.555
  495SOL    HW1 1805   1.693   0.674   5.519
  495SOL    HW2 1806   1.717   0.517   5.482
  496SOL     OW 1807   1.362   1.144   4.269
  496SOL    HW1 1808   1.445   1.115   4.221
  496SOL    HW2 1809   1.313   1.211   4.213
  497SOL     OW 1810   0.550   0.196   4.609
  497SOL    HW1 1811   0.545   0.191   4.709
  497SOL    HW2 1812   0.552   0.292   4.580
  498SOL     OW 1813   1.008   1.456   4.201
  498SOL    HW1 1814   0.962   1.528   4.149
  498SOL    HW2 1815   1.004   1.476   4.299
  499SOL     OW 1816   0.351   1.801   4.577
  499SOL    HW1 1817   0.401   1.715   4.583
  499SOL    HW2 1818   0.416   1.878   4.574
  500SOL     OW 1819   1.795   1.066   4.597
  500SOL    HW1 1820   1.733   1.051   4.521
  500SOL    HW2 1821   1.743   1.077   4.682
  501SOL     OW 1822   1.227   1.550   5.230
  501SOL    HW1 1823   1.233   1.473   5.294
  501SOL    HW2 1824   1.175   1.524   5.150
  502SOL     OW 1825   0.321   0.943   3.966
  502SOL    HW1 1826   0.403   0.982   3.924
  502SOL    HW2 1827   0.294   0.861   3.917
  503SOL     OW 1828   1.458   0.735   4.452
  503SOL    HW1 1829   1.453   0.670   4.527
  503SOL    HW2 1830   1.538   0.794   4.465
  504SOL     OW 1831   0.461   1.266   5.451
  504SOL    HW1 1832   0.411   1.267   5.365
  504SOL    HW2 1833   0.398   1.248   5.527
  505SOL     OW 1834   1.111   1.776   3.961
  505SOL    HW1 1835   1.051   1.714   4.011
  505SOL    HW2 1836   1.142   1.732   3.876
  506SOL     OW 1837   0.202   0.285   5.222
  506SOL    HW1 1838   0.122   0.345   5.209
  506SOL    HW2 1839   0.192   0.236   5.308
  507SOL     OW 1840   1.632   1.377   3.805
  507SOL    HW1 1841   1.600   1.471   3.795
  507SOL    HW2 1842   1.556   1.314   3.793
  508SOL     OW 1843   0.464   1.743   4.047
  508SOL    HW1 1844   0.497   1.782   4.133
  508SOL    HW2 1845   0.540   1.736   3.982
  509SOL     OW 1846   1.400   0.107   4.150
  509SOL    HW1 1847   1.376   0.070   4.060
  509SOL    HW2 1848   1.499   0.123   4.154
  510SOL     OW 1849   0.249   1.785   4.965
  510SOL    HW1 1850   0.306   1.720   5.015
  510SOL    HW2 1851   0.233   1.752   4.872
  511SOL     OW 1852   0.940   1.698   4.628
  511SOL    HW1 1853   1.020   1.641   4.649
  511SOL    HW2 1854   0.891   1.658   4.551
  512SOL     OW 1855   0.382   0.700   4.204
  512SOL    HW1 1856   0.427   0.610   4.201
  512SOL    HW2 1857   0.288   0.689   4.237
  513SOL     OW 1858   1.547   0.222   5.453
  513SOL    HW1 1859   1.542   0.259   5.545
  513SOL    HW2 1860   1.475   0.153   5.441
  514SOL     OW 1861   0.614   0.122   3.841
  514SOL    HW1 1862   0.712   0.100   3.848
  514SOL    HW2 1863   0.583   0.105   3.748
  515SOL     OW 1864   0.781   0.264   5.473
  515SOL    HW1 1865   0.848   0.203   5.516
  515SOL    HW2 1866   0.708   0.283   5.538
  516SOL     OW 1867   0.888   1.514   4.919
  516SOL    HW1 1868   0.865   1.489   4.825
  516SOL    HW2 1869   0.949   1.445   4.958
  517SOL     OW 1870   1.351   0.590   5.157
  517SOL    HW1 1871   1.379   0.547   5.242
  517SOL    HW2 1872   1.376   0.686   5.158
  518SOL     OW 1873   0.803   1.402   4.648
  518SOL    HW1 1874   0.893   1.416   4.606
  518SOL    HW2 1875   0.732   1.404   4.577
  519SOL     OW 1876   0.922   0.503   4.623
  519SOL    HW1 1877   0.897   0.494   4.527
  519SOL    HW2 1878   0.970   0.421   4.654
  520SOL     OW 1879   0.539   0.064   4.236
  520SOL    HW1 1880   0.458   0.065   4.294
  520SOL    HW2 1881   0.542   0.147   4.181
  521SOL     OW 1882   1.434   1.188   3.765
  521SOL    HW1 1883   1.466   1.112   3.822
  521SOL    HW2 1884   1.342   1.215   3.795
  522SOL     OW 1885   0.297   0.035   3.895
  522SOL    HW1 1886   0.346   0.119   3.874
  522SOL    HW2 1887   0.359  -0.030   3.940
  523SOL     OW 1888   0.935   0.236   4.204
  523SOL    HW1 1889   0.887   0.277   4.126
  523SOL    HW2 1890   1.034   0.234   4.185
  524SOL     OW 1891   1.076   0.683   5.188
  524SOL    HW1 1892   0.996   0.622   5.191
  524SOL    HW2 1893   1.157   0.630   5.164
  525SOL     OW 1894   1.227   1.570   4.517
  525SOL    HW1 1895   1.248   1.644   4.452
  525SOL    HW2 1896   1.295   1.570   4.590
  526SOL     OW 1897   0.459   1.152   4.465
  526SOL    HW1 1898   0.388   1.125   4.530
  526SOL    HW2 1899   0.433   1.124   4.372
  527SOL     OW 1900   1.271   1.797   4.315
  527SOL    HW1 1901   1.315   1.861   4.251
  527SOL    HW2 1902   1.221   1.849   4.385
  528SOL     OW 1903   1.032   0.549   3.740
  528SOL    HW1 1904   0.991   0.631   3.701
  528SOL    HW2 1905   1.096   0.575   3.813
  529SOL     OW 1906   0.078   0.556   5.110
  529SOL    HW1 1907   0.170   0.555   5.069
  529SOL    HW2 1908   0.072   0.630   5.177
  530SOL     OW 1909   0.561   0.222   4.871
  530SOL    HW1 1910   0.599   0.138   4.908
  530SOL    HW2 1911   0.473   0.241   4.915
  531SOL     OW 1912   0.866   0.454   4.366
  531SOL    HW1 1913   0.834   0.526   4.304
  531SOL    HW2 1914   0.890   0.373   4.313
  532SOL     OW 1915   1.017   0.039   4.477
  532SOL    HW1 1916   0.945   0.044   4.408
  532SOL    HW2 1917   0.993  -0.030   4.546
  533SOL     OW 1918   1.429   1.173   4.591
  533SOL    HW1 1919   1.374   1.089   4.584
  533SOL    HW2 1920   1.455   1.202   4.499
  534SOL     OW 1921   1.466   0.590   4.716
  534SOL    HW1 1922   1.436   0.495   4.723
  534SOL    HW2 1923   1.539   0.606   4.782
  535SOL     OW 1924   1.857   0.833   4.101
  535SOL    HW1 1925   1.899   0.769   4.165
  535SOL    HW2 1926   1.819   0.782   4.023
  536SOL     OW 1927   0.488   1.385   3.898
  536SOL    HW1 1928   0.401   1.370   3.945
  536SOL    HW2 1929   0.471   1.411   3.803
  537SOL     OW 1930   1.664   1.280   4.381
  537SOL    HW1 1931   1.763   1.288   4.395
  537SOL    HW2 1932   1.619   1.364   4.412
  538SOL     OW 1933   1.390   0.575   3.802
  538SOL    HW1 1934   1.336   0.554   3.883
  538SOL    HW2 1935   1.481   0.534   3.811
  539SOL     OW 1936   0.527   0.256   4.052
  539SOL    HW1 1937   0.554   0.197   3.977
  539SOL    HW2 1938   0.527   0.351   4.021
  540SOL     OW 1939   1.754   1.223   5.312
  540SOL    HW1 1940   1.845   1.184   5.299
  540SOL    HW2 1941   1.762   1.319   5.336
  541SOL     OW 1942   1.064   1.347   5.064
  541SOL    HW1 1943   0.984   1.324   5.119
  541SOL    HW2 1944   1.147   1.321   5.113
  542SOL     OW 1945   1.592   1.629   5.349
  542SOL    HW1 1946   1.619   1.663   5.259
  542SOL    HW2 1947   1.671   1.591   5.395
  543SOL     OW 1948   1.111   1.195   4.824
  543SOL    HW1 1949   1.071   1.239   4.905
  543SOL    HW2 1950   1.070   1.232   4.741
  544SOL     OW 1951   1.638   1.099   4.803
  544SOL    HW1 1952   1.643   1.180   4.862
  544SOL    HW2 1953   1.552   1.101   4.752
  545SOL     OW 1954   0.915   0.089   5.126
  545SOL    HW1 1955   0.940   0.069   5.031
  545SOL    HW2 1956   0.987   0.145   5.168
  546SOL     OW 1957   0.980   1.116   5.443
  546SOL    HW1 1958   0.881   1.122   5.453
  546SOL    HW2 1959   1.003   1.036   5.387
  547SOL     OW 1960   0.705   1.050   4.092
  547SOL    HW1 1961   0.691   1.057   4.191
  547SOL    HW2 1962   0.789   0.999   4.074
  548SOL     OW 1963   0.410   0.813   4.975
  548SOL    HW1 1964   0.496   0.825   5.025
  548SOL    HW2 1965   0.368   0.726   5.002
  549SOL     OW 1966   1.274   0.386   4.986
  549SOL    HW1 1967   1.295   0.460   5.050
  549SOL    HW2 1968   1.185   0.403   4.943
  550SOL     OW 1969   0.064   1.564   5.055
  550SOL    HW1 1970   0.018   1.646   5.021
  550SOL    HW2 1971   0.162   1.583   5.064
  551SOL     OW 1972   0.367   1.100   4.225
  551SOL    HW1 1973   0.360   1.183   4.169
  551SOL    HW2 1974   0.371   1.020   4.165
  552SOL     OW 1975   0.566   0.537   4.589
  552SOL    HW1 1976   0.578   0.603   4.515
  552SOL    HW2 1977   0.612   0.571   4.672
  553SOL     OW 1978   1.252   1.348   4.112
  553SOL    HW1 1979   1.302   1.425   4.152
  553SOL    HW2 1980   1.157   1.350   4.144
  554SOL     OW 1981   1.272   1.445   4.866
  554SOL    HW1 1982   1.319   1.458   4.953
  554SOL    HW2 1983   1.206   1.371   4.875
  555SOL     OW 1984   1.582   0.639   4.196
  555SOL    HW1 1985   1.551   0.700   4.269
  555SOL    HW2 1986   1.632   0.691   4.127
  556SOL     OW 1987   0.354   1.510   5.053
  556SOL    HW1 1988   0.333   1.466   4.966
  556SOL    HW2 1989   0.451   1.536   5.056
  557SOL     OW 1990   0.402   0.751   5.322
  557SOL    HW1 1991   0.470   0.806   5.275
  557SOL    HW2 1992   0.442   0.663   5.349
  558SOL     OW 1993   1.587   0.779   5.394
  558SOL    HW1 1994   1.495   0.817   5.389
  558SOL    HW2 1995   1.647   0.826   5.329
  559SOL     OW 1996   1.013   0.105   5.494
  559SOL    HW1 1997   1.019   0.190   5.442
  559SOL    HW2 1998   1.045   0.029   5.437
  560SOL     OW 1999   0.504   0.050   5.464
  560SOL    HW1 2000   0.462  -0.007   5.394
  560SOL    HW2 2001   0.438   0.119   5.496
  561SOL     OW 2002   0.573   0.870   4.753
  561SOL    HW1 2003   0.617   0.959   4.744
  561SOL    HW2 2004   0.510   0.870   4.830
  562SOL     OW 2005   1.360   0.862   4.769
  562SOL    HW1 2006   1.285   0.862   4.703
  562SOL    HW2 2007   1.397   0.770   4.778
  563SOL     OW 2008   1.209   0.525   3.999
  563SOL    HW1 2009   1.222   0.441   4.053
  563SOL    HW2 2010   1.180   0.599   4.059
  564SOL     OW 2011   0.307   0.213   4.955
  564SOL    HW1 2012   0.284   0.250   5.045
  564SOL    HW2 2013   0.277   0.118   4.949
  565SOL     OW 2014   0.037   1.310   5.006
  565SOL    HW1 2015   0.090   1.261   5.074
  565SOL    HW2 2016   0.059   1.408   5.011
  566SOL     OW 2017   0.732   0.634   4.788
  566SOL    HW1 2018   0.791   0.608   4.712
  566SOL    HW2 2019   0.704   0.730   4.777
  567SOL     OW 2020   1.728   0.935   5.578
  567SOL    HW1 2021   1.682   0.928   5.489
  567SOL    HW2 2022   1.666   0.979   5.644
  568SOL     OW 2023   0.307   0.063   4.342
  568SOL    HW1 2024   0.296   0.157   4.375
  568SOL    HW2 2025   0.302   0.000   4.419
  569SOL     OW 2026   1.622   0.367   4.098
  569SOL    HW1 2027   1.624   0.291   4.162
  569SOL    HW2 2028   1.574   0.444   4.138
  570SOL     OW 2029   1.023   0.766   4.690
  570SOL    HW1 2030   1.038   0.787   4.786
  570SOL    HW2 2031   0.993   0.671   4.681
  571SOL     OW 2032   0.980   1.573   5.424
  571SOL    HW1 2033   0.960   1.617   5.336
  571SOL    HW2 2034   1.019   1.482   5.408
  572SOL     OW 2035   1.859   1.518   5.329
  572SOL    HW1 2036   1.873   1.545   5.234
  572SOL    HW2 2037   1.942   1.540   5.382
  573SOL     OW 2038   0.350   0.898   5.528
  573SOL    HW1 2039   0.426   0.942   5.576
  573SOL    HW2 2040   0.385   0.851   5.446
  574SOL     OW 2041   1.540   0.274   3.849
  574SOL    HW1 2042   1.479   0.199   3.872
  574SOL    HW2 2043   1.562   0.326   3.932
  575SOL     OW 2044   1.303   0.838   3.766
  575SOL    HW1 2045   1.337   0.745   3.781
  575SOL    HW2 2046   1.321   0.865   3.671
  576SOL     OW 2047   1.068   1.333   4.573
  576SOL    HW1 2048   1.075   1.249   4.518
  576SOL    HW2 2049   1.130   1.402   4.537
  577SOL     OW 2050   0.319   0.810   4.673
  577SOL    HW1 2051   0.412   0.846   4.678
  577SOL    HW2 2052   0.313   0.725   4.725
  578SOL     OW 2053   0.339   0.509   4.730
  578SOL    HW1 2054   0.287   0.426   4.713
  578SOL    HW2 2055   0.416   0.514   4.666
  579SOL     OW 2056   1.138   0.380   5.402
  579SOL    HW1 2057   1.093   0.443   5.466
  579SOL    HW2 2058   1.231   0.411   5.385
  580SOL     OW 2059   1.160   0.207   5.201
  580SOL    HW1 2060   1.160   0.271   5.278
  580SOL    HW2 2061   1.188   0.255   5.118
  581SOL     OW 2062   0.008   1.326   3.924
  581SOL    HW1 2063  -0.085   1.347   3.893
  581SOL    HW2 2064   0.018   1.227   3.937
  582SOL     OW 2065   0.088   1.801   4.651
  582SOL    HW1 2066   0.046   1.715   4.624
  582SOL    HW2 2067   0.182   1.804   4.617
  583SOL     OW 2068   0.504   1.568   4.634
  583SOL    HW1 2069   0.570   1.642   4.643
  583SOL    HW2 2070   0.548   1.489   4.592
  584SOL     OW 2071   1.002   0.796   4.962
  584SOL    HW1 2072   1.043   0.764   5.048
  584SOL    HW2 2073   0.906   0.769   4.959
  585SOL     OW 2074   0.040   0.544   4.838
  585SOL    HW1 2075   0.125   0.511   4.797
  585SOL    HW2 2076   0.053   0.559   4.936
  586SOL     OW 2077   0.189   0.520   5.446
  586SOL    HW1 2078   0.248   0.480   5.376
  586SOL    HW2 2079   0.131   0.591   5.405
  587SOL     OW 2080   1.369   0.950   5.384
  587SOL    HW1 2081   1.408   1.039   5.404
  587SOL    HW2 2082   1.379   0.930   5.287
  588SOL     OW 2083   0.815   0.572   4.049
  588SOL    HW1 2084   0.822   0.483   4.003
  588SOL    HW2 2085   0.721   0.606   4.041
  589SOL     OW 2086   1.657   0.604   4.930
  589SOL    HW1 2087   1.619   0.535   4.992
  589SOL    HW2 2088   1.739   0.568   4.886
  590SOL     OW 2089   0.252   1.564   5.468
  590SOL    HW1 2090   0.222   1.621   5.544
  590SOL    HW2 2091   0.245   1.467   5.494
  591SOL     OW 2092   0.671   0.464   4.993
  591SOL    HW1 2093   0.637   0.375   4.963
  591SOL    HW2 2094   0.697   0.518   4.913
  592SOL     OW 2095   0.930   1.678   5.189
  592SOL    HW1 2096   0.906   1.660   5.094
  592SOL    HW2 2097   0.960   1.772   5.199
  593SOL     OW 2098   0.473   0.500   3.915
  593SOL    HW1 2099   0.534   0.580   3.919
  593SOL    HW2 2100   0.378   0.531   3.922
  594SOL     OW 2101   0.159   1.137   5.190
  594SOL    HW1 2102   0.181   1.076   5.266
  594SOL    HW2 2103   0.169   1.088   5.104
  595SOL     OW 2104   1.347   1.059   4.958
  595SOL    HW1 2105   1.371   0.996   4.884
  595SOL    HW2 2106   1.257   1.099   4.940
  596SOL     OW 2107   1.302   0.855   4.033
  596SOL    HW1 2108   1.216   0.824   4.075
  596SOL    HW2 2109   1.298   0.841   3.934
  597SOL     OW 2110   1.759   1.747   4.878
  597SOL    HW1 2111   1.820   1.777   4.805
  597SOL    HW2 2112   1.721   1.658   4.856
  598SOL     OW 2113   1.252   1.731   4.852
  598SOL    HW1 2114   1.336   1.736   4.798
  598SOL    HW2 2115   1.229   1.635   4.870
  599SOL     OW 2116   0.083   1.258   4.746
  599SOL    HW1 2117   0.078   1.257   4.846
  599SOL    HW2 2118   0.000   1.217   4.708
  600SOL     OW 2119   0.688   1.662   5.440
  600SOL    HW1 2120   0.632   1.743   5.449
  600SOL    HW2 2121   0.740   1.666   5.354
  601SOL     OW 2122   1.726   0.135   4.247
  601SOL    HW1 2123   1.799   0.118   4.180
  601SOL    HW2 2124   1.695   0.048   4.285
  602SOL     OW 2125   1.388   1.573   4.201
  602SOL    HW1 2126   1.455   1.585   4.127
  602SOL    HW2 2127   1.348   1.662   4.224
  603SOL     OW 2128   0.130   1.794   5.575
  603SOL    HW1 2129   0.089   1.720   5.628
  603SOL    HW2 2130   0.194   1.845   5.633
  604SOL     OW 2131   1.280   0.927   4.396
  604SOL    HW1 2132   1.340   0.846   4.398
  604SOL    HW2 2133   1.320   0.996   4.336
  605SOL     OW 2134   0.830   1.273   5.146
  605SOL    HW1 2135   0.825   1.306   5.241
  605SOL    HW2 2136   0.744   1.292   5.100
  606SOL     OW 2137   0.672   1.616   3.878
  606SOL    HW1 2138   0.681   1.626   3.779
  606SOL    HW2 2139   0.632   1.527   3.899
  607SOL     OW 2140   1.650   1.720   5.118
  607SOL    HW1 2141   1.703   1.730   5.034
  607SOL    HW2 2142   1.623   1.810   5.152
  608SOL     OW 2143   1.841   0.175   4.687
  608SOL    HW1 2144   1.880   0.090   4.651
  608SOL    HW2 2145   1.743   0.177   4.668
  609SOL     OW 2146   0.263   0.326   4.444
  609SOL    HW1 2147   0.184   0.377   4.410
  609SOL    HW2 2148   0.254   0.311   4.542
  610SOL     OW 2149   1.194   1.612   3.755
  610SOL    HW1 2150   1.200   1.519   3.792
  610SOL    HW2 2151   1.135   1.612   3.675
  611SOL     OW 2152   0.822   1.002   5.096
  611SOL    HW1 2153   0.862   1.001   5.004
  611SOL    HW2 2154   0.832   1.094   5.136
  612SOL     OW 2155   0.916   0.910   4.015
  612SOL    HW1 2156   0.979   0.948   3.947
  612SOL    HW2 2157   0.956   0.827   4.054
  613SOL     OW 2158   1.504   1.607   3.768
  613SOL    HW1 2159   1.412   1.644   3.775
  613SOL    HW2 2160   1.542   1.627   3.678
  614SOL     OW 2161   0.372   1.288   5.214
  614SOL    HW1 2162   0.359   1.381   5.180
  614SOL    HW2 2163   0.288   1.236   5.201
  615SOL     OW 2164   1.614   1.292   5.013
  615SOL    HW1 2165   1.674   1.295   5.093
  615SOL    HW2 2166   1.539   1.356   5.026
  616SOL     OW 2167   1.039   1.098   4.420
  616SOL    HW1 2168   0.969   1.051   4.474
  616SOL    HW2 2169   1.098   1.030   4.377
  617SOL     OW 2170   1.014   0.236   4.695
  617SOL    HW1 2171   1.006   0.200   4.602
  617SOL    HW2 2172   1.012   0.160   4.760
  618SOL     OW 2173   0.590   1.487   4.215
  618SOL    HW1 2174   0.632   1.429   4.145
  618SOL    HW2 2175   0.546   1.566   4.171
  619SOL     OW 2176   1.709   0.385   5.105
  619SOL    HW1 2177   1.782   0.454   5.109
  619SOL    HW2 2178   1.737   0.310   5.046
  620SOL     OW 2179   0.255   1.348   4.014
  620SOL    HW1 2180   0.159   1.349   3.987
  620SOL    HW2 2181   0.267   1.401   4.098
  621SOL     OW 2182   0.105   1.013   5.450
  621SOL    HW1 2183   0.028   0.980   5.504
  621SOL    HW2 2184   0.190   0.983   5.492
  622SOL     OW 2185   0.672   0.203   5.213
  622SOL    HW1 2186   0.762   0.187   5.173
  622SOL    HW2 2187   0.680   0.208   5.312
  623SOL     OW 2188   0.075   0.345   3.757
  623SOL    HW1 2189  -0.017   0.317   3.728
  623SOL    HW2 2190   0.106   0.422   3.701
  624SOL     OW 2191   1.440   0.856   5.122
  624SOL    HW1 2192   1.383   0.908   5.059
  624SOL    HW2 2193   1.536   0.868   5.098
  625SOL     OW 2194   0.072   0.166   4.042
  625SOL    HW1 2195   0.055   0.249   3.988
  625SOL    HW2 2196   0.162   0.129   4.020
  626SOL     OW 2197   1.183   1.335   3.843
  626SOL    HW1 2198   1.084   1.324   3.845
  626SOL    HW2 2199   1.217   1.350   3.936
  627SOL     OW 2200   0.613   0.842   5.155
  627SOL    HW1 2201   0.669   0.923   5.138
  627SOL    HW2 2202   0.672   0.762   5.158
  628SOL     OW 2203   1.493   1.767   4.683
  628SOL    HW1 2204   1.526   1.831   4.614
  628SOL    HW2 2205   1.559   1.761   4.758
  629SOL     OW 2206   0.716   0.565   5.432
  629SOL    HW1 2207   0.735   0.630   5.506
  629SOL    HW2 2208   0.776   0.485   5.441
  630SOL     OW 2209   1.450   1.220   5.357
  630SOL    HW1 2210   1.441   1.210   5.456
  630SOL    HW2 2211   1.546   1.213   5.331
  631SOL     OW 2212   0.390   1.741   5.284
  631SOL    HW1 2213   0.299   1.782   5.282
  631SOL    HW2 2214   0.383   1.647   5.316
  632SOL     OW 2215   1.674   0.883   4.978
  632SOL    HW1 2216   1.647   0.794   4.941
  632SOL    HW2 2217   1.675   0.951   4.905
  633SOL     OW 2218   1.225   0.325   4.173
  633SOL    HW1 2219   1.290   0.251   4.162
  633SOL    HW2 2220   1.245   0.375   4.257
  634SOL     OW 2221   0.594   0.745   4.376
  634SOL    HW1 2222   0.644   0.830   4.357
  634SOL    HW2 2223   0.506   0.747   4.328
  635SOL     OW 2224   1.777   0.342   5.366
  635SOL    HW1 2225   1.760   0.373   5.272
  635SOL    HW2 2226   1.693   0.305   5.404
  636SOL     OW 2227   1.730   0.934   5.241
  636SOL    HW1 2228   1.768   1.025   5.256
  636SOL    HW2 2229   1.722   0.917   5.142
  637SOL     OW 2230   0.859   1.374   3.740
  637SOL    HW1 2231   0.813   1.389   3.828
  637SOL    HW2 2232   0.903   1.459   3.710
  638SOL     OW 2233   0.661   1.790   4.677
  638SOL    HW1 2234   0.615   1.878   4.664
  638SOL    HW2 2235   0.760   1.802   4.670
  639SOL     OW 2236   0.859   0.956   4.585
  639SOL    HW1 2237   0.913   0.887   4.633
  639SOL    HW2 2238   0.827   1.025   4.651
  640SOL     OW 2239   1.083   0.984   3.811
  640SOL    HW1 2240   1.060   1.037   3.729
  640SOL    HW2 2241   1.164   0.928   3.792
  641SOL     OW 2242   1.861   1.569   4.575
  641SOL    HW1 2243   1.790   1.557   4.505
  641SOL    HW2 2244   1.862   1.490   4.635
  642SOL     OW 2245   0.221   1.314   5.568
  642SOL    HW1 2246   0.156   1.241   5.547
  642SOL    HW2 2247   0.225   1.328   5.666
  643SOL     OW 2248   0.079   1.240   4.377
  643SOL    HW1 2249   0.078   1.193   4.465
  643SOL    HW2 2250   0.161   1.212   4.326
  644SOL     OW 2251   0.672   1.391   5.348
  644SOL    HW1 2252   0.594   1.341   5.386
  644SOL    HW2 2253   0.669   1.486   5.379
  645SOL     OW 2254   1.824   0.192   4.951
  645SOL    HW1 2255   1.820   0.102   4.995
  645SOL    HW2 2256   1.827   0.181   4.852
  646SOL     OW 2257   0.428   0.424   4.244
  646SOL    HW1 2258   0.458   0.352   4.182
  646SOL    HW2 2259   0.389   0.384   4.327
  647SOL     OW 2260   1.705   1.487   4.828
  647SOL    HW1 2261   1.612   1.462   4.801
  647SOL    HW2 2262   1.731   1.437   4.910
  648SOL     OW 2263   0.317   0.547   5.004
  648SOL    HW1 2264   0.355   0.488   5.076
  648SOL    HW2 2265   0.357   0.521   4.916
  649SOL     OW 2266   0.812   1.586   4.411
  649SOL    HW1 2267   0.844   1.596   4.317
  649SOL    HW2 2268   0.733   1.524   4.413
  650SOL     OW 2269   1.424   0.214   4.836
  650SOL    HW1 2270   1.476   0.149   4.891
  650SOL    HW2 2271   1.375   0.277   4.897
  651SOL     OW 2272   1.001   0.034   4.878
  651SOL    HW1 2273   0.938  -0.038   4.847
  651SOL    HW2 2274   1.094  -0.002   4.878
  652SOL     OW 2275   0.770   1.330   4.025
  652SOL    HW1 2276   0.724   1.243   4.042
  652SOL    HW2 2277   0.861   1.327   4.066
  653SOL     OW 2278   0.618   1.567   5.008
  653SOL    HW1 2279   0.613   1.649   5.065
  653SOL    HW2 2280   0.707   1.564   4.963
  654SOL     OW 2281   1.352   0.052   3.892
  654SOL    HW1 2282   1.387   0.011   3.808
  654SOL    HW2 2283   1.262   0.014   3.912
  655SOL     OW 2284   1.300   0.453   4.415
  655SOL    HW1 2285   1.241   0.533   4.419
  655SOL    HW2 2286   1.315   0.418   4.508
  656SOL     OW 2287   1.593   0.221   4.606
  656SOL    HW1 2288   1.509   0.220   4.660
  656SOL    HW2 2289   1.595   0.304   4.550
  657SOL     OW 2290   0.039   1.077   4.024
  657SOL    HW1 2291   0.138   1.066   4.015
  657SOL    HW2 2292  -0.001   0.991   4.056
  658SOL     OW 2293   0.875   1.646   4.061
  658SOL    HW1 2294   0.798   1.611   4.007
  658SOL    HW2 2295   0.843   1.717   4.123
  659SOL     OW 2296   0.230   2.490   0.113
  659SOL    HW1 2297   0.137   2.488   0.150
  659SOL    HW2 2298   0.231   2.451   0.021
  660SOL     OW 2299   0.225   2.137   0.996
  660SOL    HW1 2300   0.260   2.120   1.088
  660SOL    HW2 2301   0.137   2.092   0.984
  661SOL     OW 2302   0.019   2.230   0.647
  661SOL    HW1 2303  -0.063   2.273   0.686
  661SOL    HW2 2304  -0.009   2.157   0.584
  662SOL     OW 2305   0.569   3.137   1.165
  662SOL    HW1 2306   0.476   3.130   1.128
  662SOL    HW2 2307   0.580   3.226   1.209
  663SOL     OW 2308   1.555   3.373   0.703
  663SOL    HW1 2309   1.498   3.357   0.784
  663SOL    HW2 2310   1.496   3.383   0.623
  664SOL     OW 2311   1.135   2.565   0.717
  664SOL    HW1 2312   1.192   2.643   0.692
  664SOL    HW2 2313   1.075   2.591   0.793
  665SOL     OW 2314   1.755   2.469   0.231
  665SOL    HW1 2315   1.743   2.456   0.132
  665SOL    HW2 2316   1.725   2.388   0.280
  666SOL     OW 2317   0.768   3.006   1.023
  666SOL    HW1 2318   0.690   3.023   1.083
  666SOL    HW2 2319   0.802   3.093   0.987
  667SOL     OW 2320   0.850   2.660   1.823
  667SOL    HW1 2321   0.846   2.736   1.888
  667SOL    HW2 2322   0.872   2.696   1.732
  668SOL     OW 2323   0.685   2.874   0.665
  668SOL    HW1 2324   0.754   2.858   0.735
  668SOL    HW2 2325   0.612   2.931   0.703
  669SOL     OW 2326   0.686   3.023   1.803
  669SOL    HW1 2327   0.746   3.102   1.817
  669SOL    HW2 2328   0.600   3.054   1.762
  670SOL     OW 2329   0.335   3.297   1.061
  670SOL    HW1 2330   0.257   3.266   1.008
  670SOL    HW2 2331   0.393   3.355   1.004
  671SOL     OW 2332   1.460   3.367   1.339
  671SOL    HW1 2333   1.484   3.461   1.365
  671SOL    HW2 2334   1.444   3.313   1.421
  672SOL     OW 2335   0.438   2.254   1.499
  672SOL    HW1 2336   0.520   2.198   1.508
  672SOL    HW2 2337   0.357   2.196   1.503
  673SOL     OW 2338   1.603   2.309   0.737
  673SOL    HW1 2339   1.529   2.355   0.687
  673SOL    HW2 2340   1.654   2.377   0.790
  674SOL     OW 2341   0.231   3.575   0.483
  674SOL    HW1 2342   0.265   3.652   0.537
  674SOL    HW2 2343   0.275   3.575   0.393
  675SOL     OW 2344   1.127   3.203   1.690
  675SOL    HW1 2345   1.174   3.203   1.778
  675SOL    HW2 2346   1.079   3.116   1.679
  676SOL     OW 2347   0.230   3.296   0.538
  676SOL    HW1 2348   0.204   3.392   0.538
  676SOL    HW2 2349   0.159   3.242   0.583
  677SOL     OW 2350   0.240   2.953   0.886
  677SOL    HW1 2351   0.254   2.869   0.938
  677SOL    HW2 2352   0.185   3.017   0.941
  678SOL     OW 2353   0.620   3.648   1.439
  678SOL    HW1 2354   0.528   3.631   1.474
  678SOL    HW2 2355   0.648   3.740   1.465
  679SOL     OW 2356   0.606   2.826   0.123
  679SOL    HW1 2357   0.613   2.910   0.069
  679SOL    HW2 2358   0.652   2.839   0.211
  680SOL     OW 2359   1.594   1.976   1.480
  680SOL    HW1 2360   1.576   2.043   1.408
  680SOL    HW2 2361   1.591   2.022   1.569
  681SOL     OW 2362   0.122   2.505   0.563
  681SOL    HW1 2363   0.077   2.417   0.580
  681SOL    HW2 2364   0.121   2.559   0.647
  682SOL     OW 2365   1.842   3.629   0.359
  682SOL    HW1 2366   1.896   3.600   0.439
  682SOL    HW2 2367   1.872   3.719   0.330
  683SOL     OW 2368   0.027   3.458   0.117
  683SOL    HW1 2369   0.008   3.362   0.138
  683SOL    HW2 2370  -0.006   3.516   0.192
  684SOL     OW 2371   1.689   2.784   0.612
  684SOL    HW1 2372   1.784   2.755   0.620
  684SOL    HW2 2373   1.681   2.849   0.537
  685SOL     OW 2374   1.641   2.970   0.432
  685SOL    HW1 2375   1.727   2.972   0.380
  685SOL    HW2 2376   1.655   3.017   0.520
  686SOL     OW 2377   0.113   2.599   1.597
  686SOL    HW1 2378   0.201   2.586   1.642
  686SOL    HW2 2379   0.100   2.696   1.575
  687SOL     OW 2380   0.613   3.227   0.726
  687SOL    HW1 2381   0.564   3.140   0.735
  687SOL    HW2 2382   0.590   3.270   0.639
  688SOL     OW 2383   1.293   3.090   1.423
  688SOL    HW1 2384   1.330   3.017   1.365
  688SOL    HW2 2385   1.345   3.095   1.508
  689SOL     OW 2386   0.809   1.866   0.502
  689SOL    HW1 2387   0.849   1.957   0.493
  689SOL    HW2 2388   0.709   1.874   0.508
  690SOL     OW 2389   0.197   2.838   1.264
  690SOL    HW1 2390   0.286   2.793   1.250
  690SOL    HW2 2391   0.124   2.773   1.245
  691SOL     OW 2392   1.525   2.861   0.190
  691SOL    HW1 2393   1.462   2.785   0.203
  691SOL    HW2 2394   1.573   2.879   0.276
  692SOL     OW 2395   1.187   3.654   1.616
  692SOL    HW1 2396   1.211   3.714   1.540
  692SOL    HW2 2397   1.194   3.559   1.586
  693SOL     OW 2398   0.317   2.113   1.801
  693SOL    HW1 2399   0.388   2.184   1.807
  693SOL    HW2 2400   0.229   2.152   1.829
  694SOL     OW 2401   1.466   3.279   0.953
  694SOL    HW1 2402   1.407   3.285   1.033
  694SOL    HW2 2403   1.451   3.191   0.907
  695SOL     OW 2404   1.667   3.576   0.572
  695SOL    HW1 2405   1.626   3.553   0.484
  695SOL    HW2 2406   1.649   3.502   0.637
  696SOL     OW 2407   0.598   2.591   0.270
  696SOL    HW1 2408   0.622   2.660   0.202
  696SOL    HW2 2409   0.520   2.624   0.324
  697SOL     OW 2410   1.281   2.207   0.944
  697SOL    HW1 2411   1.195   2.157   0.931
  697SOL    HW2 2412   1.343   2.153   1.000
  698SOL     OW 2413   1.576   3.524   0.307
  698SOL    HW1 2414   1.665   3.570   0.310
  698SOL    HW2 2415   1.555   3.500   0.212
  699SOL     OW 2416   0.807   2.467   1.465
  699SOL    HW1 2417   0.760   2.464   1.554
  699SOL    HW2 2418   0.756   2.412   1.399
  700SOL     OW 2419   1.394   2.331   1.674
  700SOL    HW1 2420   1.374   2.374   1.762
  700SOL    HW2 2421   1.472   2.269   1.683
  701SOL     OW 2422   0.973   2.752   1.572
  701SOL    HW1 2423   1.019   2.668   1.543
  701SOL    HW2 2424   0.917   2.786   1.497
  702SOL     OW 2425   0.991   2.272   1.242
  702SOL    HW1 2426   0.914   2.306   1.296
  702SOL    HW2 2427   0.957   2.221   1.163
  703SOL     OW 2428   1.041   2.563   0.429
  703SOL    HW1 2429   1.067   2.559   0.525
  703SOL    HW2 2430   0.956   2.512   0.415
  704SOL     OW 2431   0.076   2.673   0.789
  704SOL    HW1 2432   0.175   2.661   0.798
  704SOL    HW2 2433   0.052   2.768   0.810
  705SOL     OW 2434   0.130   3.683   1.571
  705SOL    HW1 2435   0.120   3.668   1.670
  705SOL    HW2 2436   0.044   3.719   1.535
  706SOL     OW 2437   0.865   2.210   0.195
  706SOL    HW1 2438   0.924   2.273   0.146
  706SOL    HW2 2439   0.884   2.116   0.166
  707SOL     OW 2440   1.719   2.447   1.831
  707SOL    HW1 2441   1.693   2.536   1.795
  707SOL    HW2 2442   1.717   2.379   1.758
  708SOL     OW 2443   1.362   3.006   0.545
  708SOL    HW1 2444   1.445   2.977   0.497
  708SOL    HW2 2445   1.313   3.073   0.489
  709SOL     OW 2446   0.550   2.058   0.885
  709SOL    HW1 2447   0.545   2.053   0.985
  709SOL    HW2 2448   0.552   2.154   0.856
  710SOL     OW 2449   1.008   3.318   0.477
  710SOL    HW1 2450   0.962   3.390   0.425
  710SOL    HW2 2451   1.004   3.338   0.575
  711SOL     OW 2452   0.351   3.663   0.853
  711SOL    HW1 2453   0.401   3.577   0.859
  711SOL    HW2 2454   0.416   3.740   0.850
  712SOL     OW 2455   1.795   2.928   0.873
  712SOL    HW1 2456   1.733   2.913   0.797
  712SOL    HW2 2457   1.743   2.939   0.958
  713SOL     OW 2458   1.227   3.412   1.506
  713SOL    HW1 2459   1.233   3.335   1.570
  713SOL    HW2 2460   1.175   3.386   1.426
  714SOL     OW 2461   0.321   2.805   0.242
  714SOL    HW1 2462   0.403   2.844   0.200
  714SOL    HW2 2463   0.294   2.723   0.193
  715SOL     OW 2464   1.458   2.597   0.728
  715SOL    HW1 2465   1.453   2.532   0.803
  715SOL    HW2 2466   1.538   2.656   0.741
  716SOL     OW 2467   0.461   3.128   1.727
  716SOL    HW1 2468   0.411   3.129   1.641
  716SOL    HW2 2469   0.398   3.110   1.803
  717SOL     OW 2470   1.111   3.638   0.237
  717SOL    HW1 2471   1.051   3.576   0.287
  717SOL    HW2 2472   1.142   3.594   0.152
  718SOL     OW 2473   0.202   2.147   1.498
  718SOL    HW1 2474   0.122   2.207   1.485
  718SOL    HW2 2475   0.192   2.098   1.584
  719SOL     OW 2476   1.632   3.239   0.081
  719SOL    HW1 2477   1.600   3.333   0.071
  719SOL    HW2 2478   1.556   3.176   0.069
  720SOL     OW 2479   0.464   3.605   0.323
  720SOL    HW1 2480   0.497   3.644   0.409
  720SOL    HW2 2481   0.540   3.598   0.258
  721SOL     OW 2482   1.400   1.969   0.426
  721SOL    HW1 2483   1.376   1.932   0.336
  721SOL    HW2 2484   1.499   1.985   0.430
  722SOL     OW 2485   0.249   3.647   1.241
  722SOL    HW1 2486   0.306   3.582   1.291
  722SOL    HW2 2487   0.233   3.614   1.148
  723SOL     OW 2488   0.940   3.560   0.904
  723SOL    HW1 2489   1.020   3.503   0.925
  723SOL    HW2 2490   0.891   3.520   0.827
  724SOL     OW 2491   0.382   2.562   0.480
  724SOL    HW1 2492   0.427   2.472   0.477
  724SOL    HW2 2493   0.288   2.551   0.513
  725SOL     OW 2494   1.547   2.084   1.729
  725SOL    HW1 2495   1.542   2.121   1.821
  725SOL    HW2 2496   1.475   2.015   1.717
  726SOL     OW 2497   0.614   1.984   0.117
  726SOL    HW1 2498   0.712   1.962   0.124
  726SOL    HW2 2499   0.583   1.967   0.024
  727SOL     OW 2500   0.781   2.126   1.749
  727SOL    HW1 2501   0.848   2.065   1.792
  727SOL    HW2 2502   0.708   2.145   1.814
  728SOL     OW 2503   0.888   3.376   1.195
  728SOL    HW1 2504   0.865   3.351   1.101
  728SOL    HW2 2505   0.949   3.307   1.234
  729SOL     OW 2506   1.351   2.452   1.433
  729SOL    HW1 2507   1.379   2.409   1.518
  729SOL    HW2 2508   1.376   2.548   1.434
  730SOL     OW 2509   0.803   3.264   0.924
  730SOL    HW1 2510   0.893   3.278   0.882
  730SOL    HW2 2511   0.732   3.266   0.853
  731SOL     OW 2512   0.922   2.365   0.899
  731SOL    HW1 2513   0.897   2.356   0.803
  731SOL    HW2 2514   0.970   2.283   0.930
  732SOL     OW 2515   0.539   1.926   0.512
  732SOL    HW1 2516   0.458   1.927   0.570
  732SOL    HW2 2517   0.542   2.009   0.457
  733SOL     OW 2518   1.434   3.050   0.041
  733SOL    HW1 2519   1.466   2.974   0.098
  733SOL    HW2 2520   1.342   3.077   0.071
  734SOL     OW 2521   0.297   1.897   0.171
  734SOL    HW1 2522   0.346   1.981   0.150
  734SOL    HW2 2523   0.359   1.832   0.216
  735SOL     OW 2524   0.935   2.098   0.480
  735SOL    HW1 2525   0.887   2.139   0.402
  735SOL    HW2 2526   1.034   2.096   0.461
  736SOL     OW 2527   1.076   2.545   1.464
  736SOL    HW1 2528   0.996   2.484   1.467
  736SOL    HW2 2529   1.157   2.492   1.440
  737SOL     OW 2530   1.227   3.432   0.793
  737SOL    HW1 2531   1.248   3.506   0.728
  737SOL    HW2 2532   1.295   3.432   0.866
  738SOL     OW 2533   0.459   3.014   0.741
  738SOL    HW1 2534   0.388   2.987   0.806
  738SOL    HW2 2535   0.433   2.986   0.648
  739SOL     OW 2536   1.271   3.659   0.591
  739SOL    HW1 2537   1.315   3.723   0.527
  739SOL    HW2 2538   1.221   3.711   0.661
  740SOL     OW 2539   1.032   2.411   0.016
  740SOL    HW1 2540   0.991   2.493  -0.023
  740SOL    HW2 2541   1.096   2.437   0.089
  741SOL     OW 2542   0.078   2.418   1.386
  741SOL    HW1 2543   0.170   2.417   1.345
  741SOL    HW2 2544   0.072   2.492   1.453
  742SOL     OW 2545   0.561   2.084   1.147
  742SOL    HW1 2546   0.599   2.000   1.184
  742SOL    HW2 2547   0.473   2.103   1.191
  743SOL     OW 2548   0.866   2.316   0.642
  743SOL    HW1 2549   0.834   2.388   0.580
  743SOL    HW2 2550   0.890   2.235   0.589
  744SOL     OW 2551   1.017   1.901   0.753
  744SOL    HW1 2552   0.945   1.906   0.684
  744SOL    HW2 2553   0.993   1.832   0.822
  745SOL     OW 2554   1.429   3.035   0.867
  745SOL    HW1 2555   1.374   2.951   0.860
  745SOL    HW2 2556   1.455   3.064   0.775
  746SOL     OW 2557   1.466   2.452   0.992
  746SOL    HW1 2558   1.436   2.357   0.999
  746SOL    HW2 2559   1.539   2.468   1.058
  747SOL     OW 2560   1.857   2.695   0.377
  747SOL    HW1 2561   1.899   2.631   0.441
  747SOL    HW2 2562   1.819   2.644   0.299
  748SOL     OW 2563   0.488   3.247   0.174
  748SOL    HW1 2564   0.401   3.232   0.221
  748SOL    HW2 2565   0.471   3.273   0.079
  749SOL     OW 2566   1.664   3.142   0.657
  749SOL    HW1 2567   1.763   3.150   0.671
  749SOL    HW2 2568   1.619   3.226   0.688
  750SOL     OW 2569   1.390   2.437   0.078
  750SOL    HW1 2570   1.336   2.416   0.159
  750SOL    HW2 2571   1.481   2.396   0.087
  751SOL     OW 2572   0.527   2.118   0.328
  751SOL    HW1 2573   0.554   2.059   0.253
  751SOL    HW2 2574   0.527   2.213   0.297
  752SOL     OW 2575   1.754   3.085   1.588
  752SOL    HW1 2576   1.845   3.046   1.575
  752SOL    HW2 2577   1.762   3.181   1.612
  753SOL     OW 2578   1.064   3.209   1.340
  753SOL    HW1 2579   0.984   3.186   1.395
  753SOL    HW2 2580   1.147   3.183   1.389
  754SOL     OW 2581   1.592   3.491   1.625
  754SOL    HW1 2582   1.619   3.525   1.535
  754SOL    HW2 2583   1.671   3.453   1.671
  755SOL     OW 2584   1.111   3.057   1.100
  755SOL    HW1 2585   1.071   3.101   1.181
  755SOL    HW2 2586   1.070   3.094   1.017
  756SOL     OW 2587   1.638   2.961   1.079
  756SOL    HW1 2588   1.643   3.042   1.138
  756SOL    HW2 2589   1.552   2.963   1.028
  757SOL     OW 2590   0.915   1.951   1.402
  757SOL    HW1 2591   0.940   1.931   1.307
  757SOL    HW2 2592   0.987   2.007   1.444
  758SOL     OW 2593   0.980   2.978   1.719
  758SOL    HW1 2594   0.881   2.984   1.729
  758SOL    HW2 2595   1.003   2.898   1.663
  759SOL     OW 2596   0.705   2.912   0.368
  759SOL    HW1 2597   0.691   2.919   0.467
  759SOL    HW2 2598   0.789   2.861   0.350
  760SOL     OW 2599   0.410   2.675   1.251
  760SOL    HW1 2600   0.496   2.687   1.301
  760SOL    HW2 2601   0.368   2.588   1.278
  761SOL     OW 2602   1.274   2.248   1.262
  761SOL    HW1 2603   1.295   2.322   1.326
  761SOL    HW2 2604   1.185   2.265   1.219
  762SOL     OW 2605   0.064   3.426   1.331
  762SOL    HW1 2606   0.018   3.508   1.297
  762SOL    HW2 2607   0.162   3.445   1.340
  763SOL     OW 2608   0.367   2.962   0.501
  763SOL    HW1 2609   0.360   3.045   0.445
  763SOL    HW2 2610   0.371   2.882   0.441
  764SOL     OW 2611   0.566   2.399   0.865
  764SOL    HW1 2612   0.578   2.465   0.791
  764SOL    HW2 2613   0.612   2.433   0.948
  765SOL     OW 2614   1.252   3.210   0.388
  765SOL    HW1 2615   1.302   3.287   0.428
  765SOL    HW2 2616   1.157   3.212   0.420
  766SOL     OW 2617   1.272   3.307   1.142
  766SOL    HW1 2618   1.319   3.320   1.229
  766SOL    HW2 2619   1.206   3.233   1.151
  767SOL     OW 2620   1.582   2.501   0.472
  767SOL    HW1 2621   1.551   2.562   0.545
  767SOL    HW2 2622   1.632   2.553   0.403
  768SOL     OW 2623   0.354   3.372   1.329
  768SOL    HW1 2624   0.333   3.328   1.242
  768SOL    HW2 2625   0.451   3.398   1.332
  769SOL     OW 2626   0.402   2.613   1.598
  769SOL    HW1 2627   0.470   2.668   1.551
  769SOL    HW2 2628   0.442   2.525   1.625
  770SOL     OW 2629   1.587   2.641   1.670
  770SOL    HW1 2630   1.495   2.679   1.665
  770SOL    HW2 2631   1.647   2.688   1.605
  771SOL     OW 2632   1.013   1.967   1.770
  771SOL    HW1 2633   1.019   2.052   1.718
  771SOL    HW2 2634   1.045   1.891   1.713
  772SOL     OW 2635   0.504   1.912   1.740
  772SOL    HW1 2636   0.462   1.855   1.670
  772SOL    HW2 2637   0.438   1.981   1.772
  773SOL     OW 2638   0.573   2.732   1.029
  773SOL    HW1 2639   0.617   2.821   1.020
  773SOL    HW2 2640   0.510   2.732   1.106
  774SOL     OW 2641   1.360   2.724   1.045
  774SOL    HW1 2642   1.285   2.724   0.979
  774SOL    HW2 2643   1.397   2.632   1.054
  775SOL     OW 2644   1.209   2.387   0.275
  775SOL    HW1 2645   1.222   2.303   0.329
  775SOL    HW2 2646   1.180   2.461   0.335
  776SOL     OW 2647   0.307   2.075   1.231
  776SOL    HW1 2648   0.284   2.112   1.321
  776SOL    HW2 2649   0.277   1.980   1.225
  777SOL     OW 2650   0.037   3.172   1.282
  777SOL    HW1 2651   0.090   3.123   1.350
  777SOL    HW2 2652   0.059   3.270   1.287
  778SOL     OW 2653   0.732   2.496   1.064
  778SOL    HW1 2654   0.791   2.470   0.988
  778SOL    HW2 2655   0.704   2.592   1.053
  779SOL     OW 2656   1.728   2.797   1.854
  779SOL    HW1 2657   1.682   2.790   1.765
  779SOL    HW2 2658   1.666   2.841   1.920
  780SOL     OW 2659   0.307   1.925   0.618
  780SOL    HW1 2660   0.296   2.019   0.651
  780SOL    HW2 2661   0.302   1.862   0.695
  781SOL     OW 2662   1.622   2.229   0.374
  781SOL    HW1 2663   1.624   2.153   0.438
  781SOL    HW2 2664   1.574   2.306   0.414
  782SOL     OW 2665   1.023   2.628   0.966
  782SOL    HW1 2666   1.038   2.649   1.062
  782SOL    HW2 2667   0.993   2.533   0.957
  783SOL     OW 2668   0.980   3.435   1.700
  783SOL    HW1 2669   0.960   3.479   1.612
  783SOL    HW2 2670   1.019   3.344   1.684
  784SOL     OW 2671   1.859   3.380   1.605
  784SOL    HW1 2672   1.873   3.407   1.510
  784SOL    HW2 2673   1.942   3.402   1.658
  785SOL     OW 2674   0.350   2.760   1.804
  785SOL    HW1 2675   0.426   2.804   1.852
  785SOL    HW2 2676   0.385   2.713   1.722
  786SOL     OW 2677   1.540   2.136   0.125
  786SOL    HW1 2678   1.479   2.061   0.148
  786SOL    HW2 2679   1.562   2.188   0.208
  787SOL     OW 2680   1.303   2.700   0.042
  787SOL    HW1 2681   1.337   2.607   0.057
  787SOL    HW2 2682   1.321   2.727  -0.053
  788SOL     OW 2683   1.068   3.195   0.849
  788SOL    HW1 2684   1.075   3.111   0.794
  788SOL    HW2 2685   1.130   3.264   0.813
  789SOL     OW 2686   0.319   2.672   0.949
  789SOL    HW1 2687   0.412   2.708   0.954
  789SOL    HW2 2688   0.313   2.587   1.001
  790SOL     OW 2689   0.339   2.371   1.006
  790SOL    HW1 2690   0.287   2.288   0.989
  790SOL    HW2 2691   0.416   2.376   0.942
  791SOL     OW 2692   1.138   2.242   1.678
  791SOL    HW1 2693   1.093   2.305   1.742
  791SOL    HW2 2694   1.231   2.273   1.661
  792SOL     OW 2695   1.160   2.069   1.477
  792SOL    HW1 2696   1.160   2.133   1.554
  792SOL    HW2 2697   1.188   2.117   1.394
  793SOL     OW 2698   0.008   3.188   0.200
  793SOL    HW1 2699  -0.085   3.209   0.169
  793SOL    HW2 2700   0.018   3.089   0.213
  794SOL     OW 2701   0.088   3.663   0.927
  794SOL    HW1 2702   0.046   3.577   0.900
  794SOL    HW2 2703   0.182   3.666   0.893
  795SOL     OW 2704   0.504   3.430   0.910
  795SOL    HW1 2705   0.570   3.504   0.919
  795SOL    HW2 2706   0.548   3.351   0.868
  796SOL     OW 2707   1.002   2.658   1.238
  796SOL    HW1 2708   1.043   2.626   1.324
  796SOL    HW2 2709   0.906   2.631   1.235
  797SOL     OW 2710   0.040   2.406   1.114
  797SOL    HW1 2711   0.125   2.373   1.073
  797SOL    HW2 2712   0.053   2.421   1.212
  798SOL     OW 2713   0.189   2.382   1.722
  798SOL    HW1 2714   0.248   2.342   1.652
  798SOL    HW2 2715   0.131   2.453   1.681
  799SOL     OW 2716   1.369   2.812   1.660
  799SOL    HW1 2717   1.408   2.901   1.680
  799SOL    HW2 2718   1.379   2.792   1.563
  800SOL     OW 2719   0.815   2.434   0.325
  800SOL    HW1 2720   0.822   2.345   0.279
  800SOL    HW2 2721   0.721   2.468   0.317
  801SOL     OW 2722   1.657   2.466   1.206
  801SOL    HW1 2723   1.619   2.397   1.268
  801SOL    HW2 2724   1.739   2.430   1.162
  802SOL     OW 2725   0.252   3.426   1.744
  802SOL    HW1 2726   0.222   3.483   1.820
  802SOL    HW2 2727   0.245   3.329   1.770
  803SOL     OW 2728   0.671   2.326   1.269
  803SOL    HW1 2729   0.637   2.237   1.239
  803SOL    HW2 2730   0.697   2.380   1.189
  804SOL     OW 2731   0.930   3.540   1.465
  804SOL    HW1 2732   0.906   3.522   1.370
  804SOL    HW2 2733   0.960   3.634   1.475
  805SOL     OW 2734   0.473   2.362   0.191
  805SOL    HW1 2735   0.534   2.442   0.195
  805SOL    HW2 2736   0.378   2.393   0.198
  806SOL     OW 2737   0.159   2.999   1.466
  806SOL    HW1 2738   0.181   2.938   1.542
  806SOL    HW2 2739   0.169   2.950   1.380
  807SOL     OW 2740   1.347   2.921   1.234
  807SOL    HW1 2741   1.371   2.858   1.160
  807SOL    HW2 2742   1.257   2.961   1.216
  808SOL     OW 2743   1.302   2.717   0.309
  808SOL    HW1 2744   1.216   2.686   0.351
  808SOL    HW2 2745   1.298   2.703   0.210
  809SOL     OW 2746   1.759   3.609   1.154
  809SOL    HW1 2747   1.820   3.639   1.081
  809SOL    HW2 2748   1.721   3.520   1.132
  810SOL     OW 2749   1.252   3.593   1.128
  810SOL    HW1 2750   1.336   3.598   1.074
  810SOL    HW2 2751   1.229   3.497   1.146
  811SOL     OW 2752   0.083   3.120   1.022
  811SOL    HW1 2753   0.078   3.119   1.122
  811SOL    HW2 2754   0.000   3.079   0.984
  812SOL     OW 2755   0.688   3.524   1.716
  812SOL    HW1 2756   0.632   3.605   1.725
  812SOL    HW2 2757   0.740   3.528   1.630
  813SOL     OW 2758   0.903   1.948   0.133
  813SOL    HW1 2759   0.954   1.949   0.047
  813SOL    HW2 2760   0.959   1.906   0.204
  814SOL     OW 2761   1.726   1.997   0.523
  814SOL    HW1 2762   1.799   1.980   0.456
  814SOL    HW2 2763   1.695   1.910   0.561
  815SOL     OW 2764   1.388   3.435   0.477
  815SOL    HW1 2765   1.455   3.447   0.403
  815SOL    HW2 2766   1.348   3.524   0.500
  816SOL     OW 2767   0.130   3.656   1.851
  816SOL    HW1 2768   0.089   3.582   1.904
  816SOL    HW2 2769   0.194   3.707   1.909
  817SOL     OW 2770   1.280   2.789   0.672
  817SOL    HW1 2771   1.340   2.708   0.674
  817SOL    HW2 2772   1.320   2.858   0.612
  818SOL     OW 2773   0.830   3.135   1.422
  818SOL    HW1 2774   0.825   3.168   1.517
  818SOL    HW2 2775   0.744   3.154   1.376
  819SOL     OW 2776   0.672   3.478   0.154
  819SOL    HW1 2777   0.681   3.488   0.055
  819SOL    HW2 2778   0.632   3.389   0.175
  820SOL     OW 2779   1.650   3.582   1.394
  820SOL    HW1 2780   1.703   3.592   1.310
  820SOL    HW2 2781   1.623   3.672   1.428
  821SOL     OW 2782   1.841   2.037   0.963
  821SOL    HW1 2783   1.880   1.952   0.927
  821SOL    HW2 2784   1.743   2.039   0.944
  822SOL     OW 2785   0.263   2.188   0.720
  822SOL    HW1 2786   0.184   2.239   0.686
  822SOL    HW2 2787   0.254   2.173   0.818
  823SOL     OW 2788   1.194   3.474   0.031
  823SOL    HW1 2789   1.200   3.381   0.068
  823SOL    HW2 2790   1.135   3.474  -0.049
  824SOL     OW 2791   0.822   2.864   1.372
  824SOL    HW1 2792   0.862   2.863   1.280
  824SOL    HW2 2793   0.832   2.956   1.412
  825SOL     OW 2794   0.916   2.772   0.291
  825SOL    HW1 2795   0.979   2.810   0.223
  825SOL    HW2 2796   0.956   2.689   0.330
  826SOL     OW 2797   1.504   3.469   0.044
  826SOL    HW1 2798   1.412   3.506   0.051
  826SOL    HW2 2799   1.542   3.489  -0.046
  827SOL     OW 2800   0.372   3.150   1.490
  827SOL    HW1 2801   0.359   3.243   1.456
  827SOL    HW2 2802   0.288   3.098   1.477
  828SOL     OW 2803   1.614   3.154   1.289
  828SOL    HW1 2804   1.674   3.157   1.369
  828SOL    HW2 2805   1.539   3.218   1.302
  829SOL     OW 2806   1.039   2.960   0.696
  829SOL    HW1 2807   0.969   2.913   0.750
  829SOL    HW2 2808   1.098   2.892   0.653
  830SOL     OW 2809   1.014   2.098   0.971
  830SOL    HW1 2810   1.006   2.062   0.878
  830SOL    HW2 2811   1.012   2.022   1.036
  831SOL     OW 2812   0.590   3.349   0.491
  831SOL    HW1 2813   0.632   3.291   0.421
  831SOL    HW2 2814   0.546   3.428   0.447
  832SOL     OW 2815   1.709   2.247   1.381
  832SOL    HW1 2816   1.782   2.316   1.385
  832SOL    HW2 2817   1.737   2.172   1.322
  833SOL     OW 2818   0.255   3.210   0.290
  833SOL    HW1 2819   0.159   3.211   0.263
  833SOL    HW2 2820   0.267   3.263   0.374
  834SOL     OW 2821   0.105   2.875   1.726
  834SOL    HW1 2822   0.028   2.842   1.780
  834SOL    HW2 2823   0.190   2.845   1.768
  835SOL     OW 2824   0.672   2.065   1.489
  835SOL    HW1 2825   0.762   2.049   1.449
  835SOL    HW2 2826   0.680   2.070   1.588
  836SOL     OW 2827   0.075   2.207   0.033
  836SOL    HW1 2828  -0.017   2.179   0.004
  836SOL    HW2 2829   0.106   2.284  -0.023
  837SOL     OW 2830   1.440   2.718   1.398
  837SOL    HW1 2831   1.383   2.770   1.335
  837SOL    HW2 2832   1.536   2.730   1.374
  838SOL     OW 2833   0.072   2.028   0.318
  838SOL    HW1 2834   0.055   2.111   0.264
  838SOL    HW2 2835   0.162   1.991   0.296
  839SOL     OW 2836   1.183   3.197   0.119
  839SOL    HW1 2837   1.084   3.186   0.121
  839SOL    HW2 2838   1.217   3.212   0.212
  840SOL     OW 2839   0.613   2.704   1.431
  840SOL    HW1 2840   0.669   2.785   1.414
  840SOL    HW2 2841   0.672   2.624   1.434
  841SOL     OW 2842   1.493   3.629   0.959
  841SOL    HW1 2843   1.526   3.693   0.890
  841SOL    HW2 2844   1.559   3.623   1.034
  842SOL     OW 2845   0.716   2.427   1.708
  842SOL    HW1 2846   0.735   2.492   1.782
  842SOL    HW2 2847   0.776   2.347   1.717
  843SOL     OW 2848   1.450   3.082   1.633
  843SOL    HW1 2849   1.441   3.072   1.732
  843SOL    HW2 2850   1.546   3.075   1.607
  844SOL     OW 2851   0.390   3.603   1.560
  844SOL    HW1 2852   0.299   3.644   1.558
  844SOL    HW2 2853   0.383   3.509   1.592
  845SOL     OW 2854   1.674   2.745   1.254
  845SOL    HW1 2855   1.647   2.656   1.217
  845SOL    HW2 2856   1.675   2.813   1.181
  846SOL     OW 2857   1.225   2.187   0.449
  846SOL    HW1 2858   1.290   2.113   0.438
  846SOL    HW2 2859   1.245   2.237   0.533
  847SOL     OW 2860   0.594   2.607   0.652
  847SOL    HW1 2861   0.644   2.692   0.633
  847SOL    HW2 2862   0.506   2.609   0.604
  848SOL     OW 2863   1.777   2.204   1.642
  848SOL    HW1 2864   1.760   2.235   1.548
  848SOL    HW2 2865   1.693   2.167   1.680
  849SOL     OW 2866   1.730   2.796   1.517
  849SOL    HW1 2867   1.768   2.887   1.532
  849SOL    HW2 2868   1.722   2.779   1.418
  850SOL     OW 2869   0.859   3.236   0.016
  850SOL    HW1 2870   0.813   3.251   0.104
  850SOL    HW2 2871   0.903   3.321  -0.014
  851SOL     OW 2872   0.661   3.652   0.953
  851SOL    HW1 2873   0.615   3.740   0.940
  851SOL    HW2 2874   0.760   3.664   0.946
  852SOL     OW 2875   0.859   2.818   0.861
  852SOL    HW1 2876   0.913   2.749   0.909
  852SOL    HW2 2877   0.827   2.887   0.927
  853SOL     OW 2878   1.083   2.846   0.087
  853SOL    HW1 2879   1.060   2.899   0.005
  853SOL    HW2 2880   1.164   2.790   0.068
  854SOL     OW 2881   1.861   3.431   0.851
  854SOL    HW1 2882   1.790   3.419   0.781
  854SOL    HW2 2883   1.862   3.352   0.911
  855SOL     OW 2884   0.221   3.176   1.844
  855SOL    HW1 2885   0.156   3.103   1.823
  855SOL    HW2 2886   0.225   3.190   1.942
  856SOL     OW 2887   0.079   3.102   0.653
  856SOL    HW1 2888   0.078   3.055   0.741
  856SOL    HW2 2889   0.161   3.074   0.602
  857SOL     OW 2890   0.672   3.253   1.624
  857SOL    HW1 2891   0.594   3.203   1.662
  857SOL    HW2 2892   0.669   3.348   1.655
  858SOL     OW 2893   1.824   2.054   1.227
  858SOL    HW1 2894   1.820   1.964   1.271
  858SOL    HW2 2895   1.827   2.043   1.128
  859SOL     OW 2896   0.428   2.286   0.520
  859SOL    HW1 2897   0.458   2.214   0.458
  859SOL    HW2 2898   0.389   2.246   0.603
  860SOL     OW 2899   1.705   3.349   1.104
  860SOL    HW1 2900   1.612   3.324   1.077
  860SOL    HW2 2901   1.731   3.299   1.186
  861SOL     OW 2902   0.317   2.409   1.280
  861SOL    HW1 2903   0.355   2.350   1.352
  861SOL    HW2 2904   0.357   2.383   1.192
  862SOL     OW 2905   0.812   3.448   0.687
  862SOL    HW1 2906   0.844   3.458   0.593
  862SOL    HW2 2907   0.733   3.386   0.689
  863SOL     OW 2908   1.424   2.076   1.112
  863SOL    HW1 2909   1.476   2.011   1.167
  863SOL    HW2 2910   1.375   2.139   1.173
  864SOL     OW 2911   1.001   1.896   1.154
  864SOL    HW1 2912   0.938   1.824   1.123
  864SOL    HW2 2913   1.094   1.860   1.154
  865SOL     OW 2914   0.770   3.192   0.301
  865SOL    HW1 2915   0.724   3.105   0.318
  865SOL    HW2 2916   0.861   3.189   0.342
  866SOL     OW 2917   0.618   3.429   1.284
  866SOL    HW1 2918   0.613   3.511   1.341
  866SOL    HW2 2919   0.707   3.426   1.239
  867SOL     OW 2920   1.352   1.914   0.168
  867SOL    HW1 2921   1.387   1.873   0.084
  867SOL    HW2 2922   1.262   1.876   0.188
  868SOL     OW 2923   1.300   2.315   0.691
  868SOL    HW1 2924   1.241   2.395   0.695
  868SOL    HW2 2925   1.315   2.280   0.784
  869SOL     OW 2926   1.593   2.083   0.882
  869SOL    HW1 2927   1.509   2.082   0.936
  869SOL    HW2 2928   1.595   2.166   0.826
  870SOL     OW 2929   0.039   2.939   0.300
  870SOL    HW1 2930   0.138   2.928   0.291
  870SOL    HW2 2931  -0.001   2.853   0.332
  871SOL     OW 2932   0.875   3.508   0.337
  871SOL    HW1 2933   0.798   3.473   0.283
  871SOL    HW2 2934   0.843   3.579   0.399
  872SOL     OW 2935   0.230   2.490   1.975
  872SOL    HW1 2936   0.137   2.488   2.012
  872SOL    HW2 2937   0.231   2.451   1.883
  873SOL     OW 2938   0.225   2.137   2.858
  873SOL    HW1 2939   0.260   2.120   2.950
  873SOL    HW2 2940   0.137   2.092   2.846
  874SOL     OW 2941   0.019   2.230   2.509
  874SOL    HW1 2942  -0.063   2.273   2.548
  874SOL    HW2 2943  -0.009   2.157   2.446
  875SOL     OW 2944   0.569   3.137   3.027
  875SOL    HW1 2945   0.476   3.130   2.990
  875SOL    HW2 2946   0.580   3.226   3.071
  876SOL     OW 2947   1.555   3.373   2.565
  876SOL    HW1 2948   1.498   3.357   2.646
  876SOL    HW2 2949   1.496   3.383   2.485
  877SOL     OW 2950   1.135   2.565   2.579
  877SOL    HW1 2951   1.192   2.643   2.554
  877SOL    HW2 2952   1.075   2.591   2.655
  878SOL     OW 2953   1.755   2.469   2.093
  878SOL    HW1 2954   1.743   2.456   1.994
  878SOL    HW2 2955   1.725   2.388   2.142
  879SOL     OW 2956   0.768   3.006   2.885
  879SOL    HW1 2957   0.690   3.023   2.945
  879SOL    HW2 2958   0.802   3.093   2.849
  880SOL     OW 2959   0.850   2.660   3.685
  880SOL    HW1 2960   0.846   2.736   3.750
  880SOL    HW2 2961   0.872   2.696   3.594
  881SOL     OW 2962   0.685   2.874   2.527
  881SOL    HW1 2963   0.754   2.858   2.597
  881SOL    HW2 2964   0.612   2.931   2.565
  882SOL     OW 2965   0.686   3.023   3.665
  882SOL    HW1 2966   0.746   3.102   3.679
  882SOL    HW2 2967   0.600   3.054   3.624
  883SOL     OW 2968   0.335   3.297   2.923
  883SOL    HW1 2969   0.257   3.266   2.870
  883SOL    HW2 2970   0.393   3.355   2.866
  884SOL     OW 2971   1.460   3.367   3.201
  884SOL    HW1 2972   1.484   3.461   3.227
  884SOL    HW2 2973   1.444   3.313   3.283
  885SOL     OW 2974   0.438   2.254   3.361
  885SOL    HW1 2975   0.520   2.198   3.370
  885SOL    HW2 2976   0.357   2.196   3.365
  886SOL     OW 2977   1.603   2.309   2.599
  886SOL    HW1 2978   1.529   2.355   2.549
  886SOL    HW2 2979   1.654   2.377   2.652
  887SOL     OW 2980   0.231   3.575   2.345
  887SOL    HW1 2981   0.265   3.652   2.399
  887SOL    HW2 2982   0.275   3.575   2.255
  888SOL     OW 2983   1.127   3.203   3.552
  888SOL    HW1 2984   1.174   3.203   3.640
  888SOL    HW2 2985   1.079   3.116   3.541
  889SOL     OW 2986   0.230   3.296   2.400
  889SOL    HW1 2987   0.204   3.392   2.400
  889SOL    HW2 2988   0.159   3.242   2.445
  890SOL     OW 2989   0.240   2.953   2.748
  890SOL    HW1 2990   0.254   2.869   2.800
  890SOL    HW2 2991   0.185   3.017   2.803
  891SOL     OW 2992   0.620   3.648   3.301
  891SOL    HW1 2993   0.528   3.631   3.336
  891SOL    HW2 2994   0.648   3.740   3.327
  892SOL     OW 2995   0.606   2.826   1.985
  892SOL    HW1 2996   0.613   2.910   1.931
  892SOL    HW2 2997   0.652   2.839   2.073
  893SOL     OW 2998   1.594   1.976   3.342
  893SOL    HW1 2999   1.576   2.043   3.270
  893SOL    HW2 3000   1.591   2.022   3.431
  894SOL     OW 3001   0.122   2.505   2.425
  894SOL    HW1 3002   0.077   2.417   2.442
  894SOL    HW2 3003   0.121   2.559   2.509
  895SOL     OW 3004   1.842   3.629   2.221
  895SOL    HW1 3005   1.896   3.600   2.301
  895SOL    HW2 3006   1.872   3.719   2.192
  896SOL     OW 3007   0.027   3.458   1.979
  896SOL    HW1 3008   0.008   3.362   2.000
  896SOL    HW2 3009  -0.006   3.516   2.054
  897SOL     OW 3010   1.689   2.784   2.474
  897SOL    HW1 3011   1.784   2.755   2.482
  897SOL    HW2 3012   1.681   2.849   2.399
  898SOL     OW 3013   1.641   2.970   2.294
  898SOL    HW1 3014   1.727   2.972   2.242
  898SOL    HW2 3015   1.655   3.017   2.382
  899SOL     OW 3016   0.113   2.599   3.459
  899SOL    HW1 3017   0.201   2.586   3.504
  899SOL    HW2 3018   0.100   2.696   3.437
  900SOL     OW 3019   0.613   3.227   2.588
  900SOL    HW1 3020   0.564   3.140   2.597
  900SOL    HW2 3021   0.590   3.270   2.501
  901SOL     OW 3022   1.293   3.090   3.285
  901SOL    HW1 3023   1.330   3.017   3.227
  901SOL    HW2 3024   1.345   3.095   3.370
  902SOL     OW 3025   0.809   1.866   2.364
  902SOL    HW1 3026   0.849   1.957   2.355
  902SOL    HW2 3027   0.709   1.874   2.370
  903SOL     OW 3028   0.197   2.838   3.126
  903SOL    HW1 3029   0.286   2.793   3.112
  903SOL    HW2 3030   0.124   2.773   3.107
  904SOL     OW 3031   1.525   2.861   2.052
  904SOL    HW1 3032   1.462   2.785   2.065
  904SOL    HW2 3033   1.573   2.879   2.138
  905SOL     OW 3034   1.187   3.654   3.478
  905SOL    HW1 3035   1.211   3.714   3.402
  905SOL    HW2 3036   1.194   3.559   3.448
  906SOL     OW 3037   0.317   2.113   3.663
  906SOL    HW1 3038   0.388   2.184   3.669
  906SOL    HW2 3039   0.229   2.152   3.691
  907SOL     OW 3040   1.466   3.279   2.815
  907SOL    HW1 3041   1.407   3.285   2.895
  907SOL    HW2 3042   1.451   3.191   2.769
  908SOL     OW 3043   1.667   3.576   2.434
  908SOL    HW1 3044   1.626   3.553   2.346
  908SOL    HW2 3045   1.649   3.502   2.499
  909SOL     OW 3046   0.598   2.591   2.132
  909SOL    HW1 3047   0.622   2.660   2.064
  909SOL    HW2 3048   0.520   2.624   2.186
  910SOL     OW 3049   1.281   2.207   2.806
  910SOL    HW1 3050   1.195   2.157   2.793
  910SOL    HW2 3051   1.343   2.153   2.862
  911SOL     OW 3052   1.576   3.524   2.169
  911SOL    HW1 3053   1.665   3.570   2.172
  911SOL    HW2 3054   1.555   3.500   2.074
  912SOL     OW 3055   0.807   2.467   3.327
  912SOL    HW1 3056   0.760   2.464   3.416
  912SOL    HW2 3057   0.756   2.412   3.261
  913SOL     OW 3058   1.394   2.331   3.536
  913SOL    HW1 3059   1.374   2.374   3.624
  913SOL    HW2 3060   1.472   2.269   3.545
  914SOL     OW 3061   0.973   2.752   3.434
  914SOL    HW1 3062   1.019   2.668   3.405
  914SOL    HW2 3063   0.917   2.786   3.359
  915SOL     OW 3064   0.991   2.272   3.104
  915SOL    HW1 3065   0.914   2.306   3.158
  915SOL    HW2 3066   0.957   2.221   3.025
  916SOL     OW 3067   1.041   2.563   2.291
  916SOL    HW1 3068   1.067   2.559   2.387
  916SOL    HW2 3069   0.956   2.512   2.277
  917SOL     OW 3070   0.076   2.673   2.651
  917SOL    HW1 3071   0.175   2.661   2.660
  917SOL    HW2 3072   0.052   2.768   2.672
  918SOL     OW 3073   0.130   3.683   3.433
  918SOL    HW1 3074   0.120   3.668   3.532
  918SOL    HW2 3075   0.044   3.719   3.397
  919SOL     OW 3076   0.865   2.210   2.057
  919SOL    HW1 3077   0.924   2.273   2.008
  919SOL    HW2 3078   0.884   2.116   2.028
  920SOL     OW 3079   1.719   2.447   3.693
  920SOL    HW1 3080   1.693   2.536   3.657
  920SOL    HW2 3081   1.717   2.379   3.620
  921SOL     OW 3082   1.362   3.006   2.407
  921SOL    HW1 3083   1.445   2.977   2.359
  921SOL    HW2 3084   1.313   3.073   2.351
  922SOL     OW 3085   0.550   2.058   2.747
  922SOL    HW1 3086   0.545   2.053   2.847
  922SOL    HW2 3087   0.552   2.154   2.718
  923SOL     OW 3088   1.008   3.318   2.339
  923SOL    HW1 3089   0.962   3.390   2.287
  923SOL    HW2 3090   1.004   3.338   2.437
  924SOL     OW 3091   0.351   3.663   2.715
  924SOL    HW1 3092   0.401   3.577   2.721
  924SOL    HW2 3093   0.416   3.740   2.712
  925SOL     OW 3094   1.795   2.928   2.735
  925SOL    HW1 3095   1.733   2.913   2.659
  925SOL    HW2 3096   1.743   2.939   2.820
  926SOL     OW 3097   1.227   3.412   3.368
  926SOL    HW1 3098   1.233   3.335   3.432
  926SOL    HW2 3099   1.175   3.386   3.288
  927SOL     OW 3100   0.321   2.805   2.104
  927SOL    HW1 3101   0.403   2.844   2.062
  927SOL    HW2 3102   0.294   2.723   2.055
  928SOL     OW 3103   1.458   2.597   2.590
  928SOL    HW1 3104   1.453   2.532   2.665
  928SOL    HW2 3105   1.538   2.656   2.603
  929SOL     OW 3106   0.461   3.128   3.589
  929SOL    HW1 3107   0.411   3.129   3.503
  929SOL    HW2 3108   0.398   3.110   3.665
  930SOL     OW 3109   1.111   3.638   2.099
  930SOL    HW1 3110   1.051   3.576   2.149
  930SOL    HW2 3111   1.142   3.594   2.014
  931SOL     OW 3112   0.202   2.147   3.360
  931SOL    HW1 3113   0.122   2.207   3.347
  931SOL    HW2 3114   0.192   2.098   3.446
  932SOL     OW 3115   1.632   3.239   1.943
  932SOL    HW1 3116   1.600   3.333   1.933
  932SOL    HW2 3117   1.556   3.176   1.931
  933SOL     OW 3118   0.464   3.605   2.185
  933SOL    HW1 3119   0.497   3.644   2.271
  933SOL    HW2 3120   0.540   3.598   2.120
  934SOL     OW 3121   1.400   1.969   2.288
  934SOL    HW1 3122   1.376   1.932   2.198
  934SOL    HW2 3123   1.499   1.985   2.292
  935SOL     OW 3124   0.249   3.647   3.103
  935SOL    HW1 3125   0.306   3.582   3.153
  935SOL    HW2 3126   0.233   3.614   3.010
  936SOL     OW 3127   0.940   3.560   2.766
  936SOL    HW1 3128   1.020   3.503   2.787
  936SOL    HW2 3129   0.891   3.520   2.689
  937SOL     OW 3130   0.382   2.562   2.342
  937SOL    HW1 3131   0.427   2.472   2.339
  937SOL    HW2 3132   0.288   2.551   2.375
  938SOL     OW 3133   1.547   2.084   3.591
  938SOL    HW1 3134   1.542   2.121   3.683
  938SOL    HW2 3135   1.475   2.015   3.579
  939SOL     OW 3136   0.614   1.984   1.979
  939SOL    HW1 3137   0.712   1.962   1.986
  939SOL    HW2 3138   0.583   1.967   1.886
  940SOL     OW 3139   0.781   2.126   3.611
  940SOL    HW1 3140   0.848   2.065   3.654
  940SOL    HW2 3141   0.708   2.145   3.676
  941SOL     OW 3142   0.888   3.376   3.057
  941SOL    HW1 3143   0.865   3.351   2.963
  941SOL    HW2 3144   0.949   3.307   3.096
  942SOL     OW 3145   1.351   2.452   3.295
  942SOL    HW1 3146   1.379   2.409   3.380
  942SOL    HW2 3147   1.376   2.548   3.296
  943SOL     OW 3148   0.803   3.264   2.786
  943SOL    HW1 3149   0.893   3.278   2.744
  943SOL    HW2 3150   0.732   3.266   2.715
  944SOL     OW 3151   0.922   2.365   2.761
  944SOL    HW1 3152   0.897   2.356   2.665
  944SOL    HW2 3153   0.970   2.283   2.792
  945SOL     OW 3154   0.539   1.926   2.374
  945SOL    HW1 3155   0.458   1.927   2.432
  945SOL    HW2 3156   0.542   2.009   2.319
  946SOL     OW 3157   1.434   3.050   1.903
  946SOL    HW1 3158   1.466   2.974   1.960
  946SOL    HW2 3159   1.342   3.077   1.933
  947SOL     OW 3160   0.297   1.897   2.033
  947SOL    HW1 3161   0.346   1.981   2.012
  947SOL    HW2 3162   0.359   1.832   2.078
  948SOL     OW 3163   0.935   2.098   2.342
  948SOL    HW1 3164   0.887   2.139   2.264
  948SOL    HW2 3165   1.034   2.096   2.323
  949SOL     OW 3166   1.076   2.545   3.326
  949SOL    HW1 3167   0.996   2.484   3.329
  949SOL    HW2 3168   1.157   2.492   3.302
  950SOL     OW 3169   1.227   3.432   2.655
  950SOL    HW1 3170   1.248   3.506   2.590
  950SOL    HW2 3171   1.295   3.432   2.728
  951SOL     OW 3172   0.459   3.014   2.603
  951SOL    HW1 3173   0.388   2.987   2.668
  951SOL    HW2 3174   0.433   2.986   2.510
  952SOL     OW 3175   1.271   3.659   2.453
  952SOL    HW1 3176   1.315   3.723   2.389
  952SOL    HW2 3177   1.221   3.711   2.523
  953SOL     OW 3178   1.032   2.411   1.878
  953SOL    HW1 3179   0.991   2.493   1.839
  953SOL    HW2 3180   1.096   2.437   1.951
  954SOL     OW 3181   0.078   2.418   3.248
  954SOL    HW1 3182   0.170   2.417   3.207
  954SOL    HW2 3183   0.072   2.492   3.315
  955SOL     OW 3184   0.561   2.084   3.009
  955SOL    HW1 3185   0.599   2.000   3.046
  955SOL    HW2 3186   0.473   2.103   3.053
  956SOL     OW 3187   0.866   2.316   2.504
  956SOL    HW1 3188   0.834   2.388   2.442
  956SOL    HW2 3189   0.890   2.235   2.451
  957SOL     OW 3190   1.017   1.901   2.615
  957SOL    HW1 3191   0.945   1.906   2.546
  957SOL    HW2 3192   0.993   1.832   2.684
  958SOL     OW 3193   1.429   3.035   2.729
  958SOL    HW1 3194   1.374   2.951   2.722
  958SOL    HW2 3195   1.455   3.064   2.637
  959SOL     OW 3196   1.466   2.452   2.854
  959SOL    HW1 3197   1.436   2.357   2.861
  959SOL    HW2 3198   1.539   2.468   2.920
  960SOL     OW 3199   1.857   2.695   2.239
  960SOL    HW1 3200   1.899   2.631   2.303
  960SOL    HW2 3201   1.819   2.644   2.161
  961SOL     OW 3202   0.488   3.247   2.036
  961SOL    HW1 3203   0.401   3.232   2.083
  961SOL    HW2 3204   0.471   3.273   1.941
  962SOL     OW 3205   1.664   3.142   2.519
  962SOL    HW1 3206   1.763   3.150   2.533
  962SOL    HW2 3207   1.619   3.226   2.550
  963SOL     OW 3208   1.390   2.437   1.940
  963SOL    HW1 3209   1.336   2.416   2.021
  963SOL    HW2 3210   1.481   2.396   1.949
  964SOL     OW 3211   0.527   2.118   2.190
  964SOL    HW1 3212   0.554   2.059   2.115
  964SOL    HW2 3213   0.527   2.213   2.159
  965SOL     OW 3214   1.754   3.085   3.450
  965SOL    HW1 3215   1.845   3.046   3.437
  965SOL    HW2 3216   1.762   3.181   3.474
  966SOL     OW 3217   1.064   3.209   3.202
  966SOL    HW1 3218   0.984   3.186   3.257
  966SOL    HW2 3219   1.147   3.183   3.251
  967SOL     OW 3220   1.592   3.491   3.487
  967SOL    HW1 3221   1.619   3.525   3.397
  967SOL    HW2 3222   1.671   3.453   3.533
  968SOL     OW 3223   1.111   3.057   2.962
  968SOL    HW1 3224   1.071   3.101   3.043
  968SOL    HW2 3225   1.070   3.094   2.879
  969SOL     OW 3226   1.638   2.961   2.941
  969SOL    HW1 3227   1.643   3.042   3.000
  969SOL    HW2 3228   1.552   2.963   2.890
  970SOL     OW 3229   0.915   1.951   3.264
  970SOL    HW1 3230   0.940   1.931   3.169
  970SOL    HW2 3231   0.987   2.007   3.306
  971SOL     OW 3232   0.980   2.978   3.581
  971SOL    HW1 3233   0.881   2.984   3.591
  971SOL    HW2 3234   1.003   2.898   3.525
  972SOL     OW 3235   0.705   2.912   2.230
  972SOL    HW1 3236   0.691   2.919   2.329
  972SOL    HW2 3237   0.789   2.861   2.212
  973SOL     OW 3238   0.410   2.675   3.113
  973SOL    HW1 3239   0.496   2.687   3.163
  973SOL    HW2 3240   0.368   2.588   3.140
  974SOL     OW 3241   1.274   2.248   3.124
  974SOL    HW1 3242   1.295   2.322   3.188
  974SOL    HW2 3243   1.185   2.265   3.081
  975SOL     OW 3244   0.064   3.426   3.193
  975SOL    HW1 3245   0.018   3.508   3.159
  975SOL    HW2 3246   0.162   3.445   3.202
  976SOL     OW 3247   0.367   2.962   2.363
  976SOL    HW1 3248   0.360   3.045   2.307
  976SOL    HW2 3249   0.371   2.882   2.303
  977SOL     OW 3250   0.566   2.399   2.727
  977SOL    HW1 3251   0.578   2.465   2.653
  977SOL    HW2 3252   0.612   2.433   2.810
  978SOL     OW 3253   1.252   3.210   2.250
  978SOL    HW1 3254   1.302   3.287   2.290
  978SOL    HW2 3255   1.157   3.212   2.282
  979SOL     OW 3256   1.272   3.307   3.004
  979SOL    HW1 3257   1.319   3.320   3.091
  979SOL    HW2 3258   1.206   3.233   3.013
  980SOL     OW 3259   1.582   2.501   2.334
  980SOL    HW1 3260   1.551   2.562   2.407
  980SOL    HW2 3261   1.632   2.553   2.265
  981SOL     OW 3262   0.354   3.372   3.191
  981SOL    HW1 3263   0.333   3.328   3.104
  981SOL    HW2 3264   0.451   3.398   3.194
  982SOL     OW 3265   0.402   2.613   3.460
  982SOL    HW1 3266   0.470   2.668   3.413
  982SOL    HW2 3267   0.442   2.525   3.487
  983SOL     OW 3268   1.587   2.641   3.532
  983SOL    HW1 3269   1.495   2.679   3.527
  983SOL    HW2 3270   1.647   2.688   3.467
  984SOL     OW 3271   1.013   1.967   3.632
  984SOL    HW1 3272   1.019   2.052   3.580
  984SOL    HW2 3273   1.045   1.891   3.575
  985SOL     OW 3274   0.504   1.912   3.602
  985SOL    HW1 3275   0.462   1.855   3.532
  985SOL    HW2 3276   0.438   1.981   3.634
  986SOL     OW 3277   0.573   2.732   2.891
  986SOL    HW1 3278   0.617   2.821   2.882
  986SOL    HW2 3279   0.510   2.732   2.968
  987SOL     OW 3280   1.360   2.724   2.907
  987SOL    HW1 3281   1.285   2.724   2.841
  987SOL    HW2 3282   1.397   2.632   2.916
  988SOL     OW 3283   1.209   2.387   2.137
  988SOL    HW1 3284   1.222   2.303   2.191
  988SOL    HW2 3285   1.180   2.461   2.197
  989SOL     OW 3286   0.307   2.075   3.093
  989SOL    HW1 3287   0.284   2.112   3.183
  989SOL    HW2 3288   0.277   1.980   3.087
  990SOL     OW 3289   0.037   3.172   3.144
  990SOL    HW1 3290   0.090   3.123   3.212
  990SOL    HW2 3291   0.059   3.270   3.149
  991SOL     OW 3292   0.732   2.496   2.926
  991SOL    HW1 3293   0.791   2.470   2.850
  991SOL    HW2 3294   0.704   2.592   2.915
  992SOL     OW 3295   1.728   2.797   3.716
  992SOL    HW1 3296   1.682   2.790   3.627
  992SOL    HW2 3297   1.666   2.841   3.782
  993SOL     OW 3298   0.307   1.925   2.480
  993SOL    HW1 3299   0.296   2.019   2.513
  993SOL    HW2 3300   0.302   1.862   2.557
  994SOL     OW 3301   1.622   2.229   2.236
  994SOL    HW1 3302   1.624   2.153   2.300
  994SOL    HW2 3303   1.574   2.306   2.276
  995SOL     OW 3304   1.023   2.628   2.828
  995SOL    HW1 3305   1.038   2.649   2.924
  995SOL    HW2 3306   0.993   2.533   2.819
  996SOL     OW 3307   0.980   3.435   3.562
  996SOL    HW1 3308   0.960   3.479   3.474
  996SOL    HW2 3309   1.019   3.344   3.546
  997SOL     OW 3310   1.859   3.380   3.467
  997SOL    HW1 3311   1.873   3.407   3.372
  997SOL    HW2 3312   1.942   3.402   3.520
  998SOL     OW 3313   0.350   2.760   3.666
  998SOL    HW1 3314   0.426   2.804   3.714
  998SOL    HW2 3315   0.385   2.713   3.584
  999SOL     OW 3316   1.540   2.136   1.987
  999SOL    HW1 3317   1.479   2.061   2.010
  999SOL    HW2 3318   1.562   2.188   2.070
 1000SOL     OW 3319   1.303   2.700   1.904
 1000SOL    HW1 3320   1.337   2.607   1.919
 1000SOL    HW2 3321   1.321   2.727   1.809
 1001SOL     OW 3322   1.068   3.195   2.711
 1001SOL    HW1 3323   1.075   3.111   2.656
 1001SOL    HW2 3324   1.130   3.264   2.675
 1002SOL     OW 3325   0.319   2.672   2.811
 1002SOL    HW1 3326   0.412   2.708   2.816
 1002SOL    HW2 3327   0.313   2.587   2.863
 1003SOL     OW 3328   0.339   2.371   2.868
 1003SOL    HW1 3329   0.287   2.288   2.851
 1003SOL    HW2 3330   0.416   2.376   2.804
 1004SOL     OW 3331   1.138   2.242   3.540
 1004SOL    HW1 3332   1.093   2.305   3.604
 1004SOL    HW2 3333   1.231   2.273   3.523
 1005SOL     OW 3334   1.160   2.069   3.339
 1005SOL    HW1 3335   1.160   2.133   3.416
 1005SOL    HW2 3336   1.188   2.117   3.256
 1006SOL     OW 3337   0.008   3.188   2.062
 1006SOL    HW1 3338  -0.085   3.209   2.031
 1006SOL    HW2 3339   0.018   3.089   2.075
 1007SOL     OW 3340   0.088   3.663   2.789
 1007SOL    HW1 3341   0.046   3.577   2.762
 1007SOL    HW2 3342   0.182   3.666   2.755
 1008SOL     OW 3343   0.504   3.430   2.772
 1008SOL    HW1 3344   0.570   3.504   2.781
 1008SOL    HW2 3345   0.548   3.351   2.730
 1009SOL     OW 3346   1.002   2.658   3.100
 1009SOL    HW1 3347   1.043   2.626   3.186
 1009SOL    HW2 3348   0.906   2.631   3.097
 1010SOL     OW 3349   0.040   2.406   2.976
 1010SOL    HW1 3350   0.125   2.373   2.935
 1010SOL    HW2 3351   0.053   2.421   3.074
 1011SOL     OW 3352   0.189   2.382   3.584
 1011SOL    HW1 3353   0.248   2.342   3.514
 1011SOL    HW2 3354   0.131   2.453   3.543
 1012SOL     OW 3355   1.369   2.812   3.522
 1012SOL    HW1 3356   1.408   2.901   3.542
 1012SOL    HW2 3357   1.379   2.792   3.425
 1013SOL     OW 3358   0.815   2.434   2.187
 1013SOL    HW1 3359   0.822   2.345   2.141
 1013SOL    HW2 3360   0.721   2.468   2.179
 1014SOL     OW 3361   1.657   2.466   3.068
 1014SOL    HW1 3362   1.619   2.397   3.130
 1014SOL    HW2 3363   1.739   2.430   3.024
 1015SOL     OW 3364   0.252   3.426   3.606
 1015SOL    HW1 3365   0.222   3.483   3.682
 1015SOL    HW2 3366   0.245   3.329   3.632
 1016SOL     OW 3367   0.671   2.326   3.131
 1016SOL    HW1 3368   0.637   2.237   3.101
 1016SOL    HW2 3369   0.697   2.380   3.051
 1017SOL     OW 3370   0.930   3.540   3.327
 1017SOL    HW1 3371   0.906   3.522   3.232
 1017SOL    HW2 3372   0.960   3.634   3.337
 1018SOL     OW 3373   0.473   2.362   2.053
 1018SOL    HW1 3374   0.534   2.442   2.057
 1018SOL    HW2 3375   0.378   2.393   2.060
 1019SOL     OW 3376   0.159   2.999   3.328
 1019SOL    HW1 3377   0.181   2.938   3.404
 1019SOL    HW2 3378   0.169   2.950   3.242
 1020SOL     OW 3379   1.347   2.921   3.096
 1020SOL    HW1 3380   1.371   2.858   3.022
 1020SOL    HW2 3381   1.257   2.961   3.078
 1021SOL     OW 3382   1.302   2.717   2.171
 1021SOL    HW1 3383   1.216   2.686   2.213
 1021SOL    HW2 3384   1.298   2.703   2.072
 1022SOL     OW 3385   1.759   3.609   3.016
 1022SOL    HW1 3386   1.820   3.639   2.943
 1022SOL    HW2 3387   1.721   3.520   2.994
 1023SOL     OW 3388   1.252   3.593   2.990
 1023SOL    HW1 3389   1.336   3.598   2.936
 1023SOL    HW2 3390   1.229   3.497   3.008
 1024SOL     OW 3391   0.083   3.120   2.884
 1024SOL    HW1 3392   0.078   3.119   2.984
 1024SOL    HW2 3393   0.000   3.079   2.846
 1025SOL     OW 3394   0.688   3.524   3.578
 1025SOL    HW1 3395   0.632   3.605   3.587
 1025SOL    HW2 3396   0.740   3.528   3.492
 1026SOL     OW 3397   1.726   1.997   2.385
 1026SOL    HW1 3398   1.799   1.980   2.318
 1026SOL    HW2 3399   1.695   1.910   2.423
 1027SOL     OW 3400   1.388   3.435   2.339
 1027SOL    HW1 3401   1.455   3.447   2.265
 1027SOL    HW2 3402   1.348   3.524   2.362
 1028SOL     OW 3403   0.130   3.656   3.713
 1028SOL    HW1 3404   0.089   3.582   3.766
 1028SOL    HW2 3405   0.194   3.707   3.771
 1029SOL     OW 3406   1.280   2.789   2.534
 1029SOL    HW1 3407   1.340   2.708   2.536
 1029SOL    HW2 3408   1.320   2.858   2.474
 1030SOL     OW 3409   0.830   3.135   3.284
 1030SOL    HW1 3410   0.825   3.168   3.379
 1030SOL    HW2 3411   0.744   3.154   3.238
 1031SOL     OW 3412   0.672   3.478   2.016
 1031SOL    HW1 3413   0.681   3.488   1.917
 1031SOL    HW2 3414   0.632   3.389   2.037
 1032SOL     OW 3415   1.650   3.582   3.256
 1032SOL    HW1 3416   1.703   3.592   3.172
 1032SOL    HW2 3417   1.623   3.672   3.290
 1033SOL     OW 3418   1.841   2.037   2.825
 1033SOL    HW1 3419   1.880   1.952   2.789
 1033SOL    HW2 3420   1.743   2.039   2.806
 1034SOL     OW 3421   0.263   2.188   2.582
 1034SOL    HW1 3422   0.184   2.239   2.548
 1034SOL    HW2 3423   0.254   2.173   2.680
 1035SOL     OW 3424   1.194   3.474   1.893
 1035SOL    HW1 3425   1.200   3.381   1.930
 1035SOL    HW2 3426   1.135   3.474   1.813
 1036SOL     OW 3427   0.822   2.864   3.234
 1036SOL    HW1 3428   0.862   2.863   3.142
 1036SOL    HW2 3429   0.832   2.956   3.274
 1037SOL     OW 3430   0.916   2.772   2.153
 1037SOL    HW1 3431   0.979   2.810   2.085
 1037SOL    HW2 3432   0.956   2.689   2.192
 1038SOL     OW 3433   1.504   3.469   1.906
 1038SOL    HW1 3434   1.412   3.506   1.913
 1038SOL    HW2 3435   1.542   3.489   1.816
 1039SOL     OW 3436   0.372   3.150   3.352
 1039SOL    HW1 3437   0.359   3.243   3.318
 1039SOL    HW2 3438   0.288   3.098   3.339
 1040SOL     OW 3439   1.614   3.154   3.151
 1040SOL    HW1 3440   1.674   3.157   3.231
 1040SOL    HW2 3441   1.539   3.218   3.164
 1041SOL     OW 3442   1.039   2.960   2.558
 1041SOL    HW1 3443   0.969   2.913   2.612
 1041SOL    HW2 3444   1.098   2.892   2.515
 1042SOL     OW 3445   1.014   2.098   2.833
 1042SOL    HW1 3446   1.006   2.062   2.740
 1042SOL    HW2 3447   1.012   2.022   2.898
 1043SOL     OW 3448   0.590   3.349   2.353
 1043SOL    HW1 3449   0.632   3.291   2.283
 1043SOL    HW2 3450   0.546   3.428   2.309
 1044SOL     OW 3451   1.709   2.247   3.243
 1044SOL    HW1 3452   1.782   2.316   3.247
 1044SOL    HW2 3453   1.737   2.172   3.184
 1045SOL     OW 3454   0.255   3.210   2.152
 1045SOL    HW1 3455   0.159   3.211   2.125
 1045SOL    HW2 3456   0.267   3.263   2.236
 1046SOL     OW 3457   0.105   2.875   3.588
 1046SOL    HW1 3458   0.028   2.842   3.642
 1046SOL    HW2 3459   0.190   2.845   3.630
 1047SOL     OW 3460   0.672   2.065   3.351
 1047SOL    HW1 3461   0.762   2.049   3.311
 1047SOL    HW2 3462   0.680   2.070   3.450
 1048SOL     OW 3463   0.075   2.207   1.895
 1048SOL    HW1 3464  -0.017   2.179   1.866
 1048SOL    HW2 3465   0.106   2.284   1.839
 1049SOL     OW 3466   1.440   2.718   3.260
 1049SOL    HW1 3467   1.383   2.770   3.197
 1049SOL    HW2 3468   1.536   2.730   3.236
 1050SOL     OW 3469   0.072   2.028   2.180
 1050SOL    HW1 3470   0.055   2.111   2.126
 1050SOL    HW2 3471   0.162   1.991   2.158
 1051SOL     OW 3472   1.183   3.197   1.981
 1051SOL    HW1 3473   1.084   3.186   1.983
 1051SOL    HW2 3474   1.217   3.212   2.074
 1052SOL     OW 3475   0.613   2.704   3.293
 1052SOL    HW1 3476   0.669   2.785   3.276
 1052SOL    HW2 3477   0.672   2.624   3.296
 1053SOL     OW 3478   1.493   3.629   2.821
 1053SOL    HW1 3479   1.526   3.693   2.752
 1053SOL    HW2 3480   1.559   3.623   2.896
 1054SOL     OW 3481   0.716   2.427   3.570
 1054SOL    HW1 3482   0.735   2.492   3.644
 1054SOL    HW2 3483   0.776   2.347   3.579
 1055SOL     OW 3484   1.450   3.082   3.495
 1055SOL    HW1 3485   1.441   3.072   3.594
 1055SOL    HW2 3486   1.546   3.075   3.469
 1056SOL     OW 3487   0.390   3.603   3.422
 1056SOL    HW1 3488   0.299   3.644   3.420
 1056SOL    HW2 3489   0.383   3.509   3.454
 1057SOL     OW 3490   1.674   2.745   3.116
 1057SOL    HW1 3491   1.647   2.656   3.079
 1057SOL    HW2 3492   1.675   2.813   3.043
 1058SOL     OW 3493   1.225   2.187   2.311
 1058SOL    HW1 3494   1.290   2.113   2.300
 1058SOL    HW2 3495   1.245   2.237   2.395
 1059SOL     OW 3496   0.594   2.607   2.514
 1059SOL    HW1 3497   0.644   2.692   2.495
 1059SOL    HW2 3498   0.506   2.609   2.466
 1060SOL     OW 3499   1.777   2.204   3.504
 1060SOL    HW1 3500   1.760   2.235   3.410
 1060SOL    HW2 3501   1.693   2.167   3.542
 1061SOL     OW 3502   1.730   2.796   3.379
 1061SOL    HW1 3503   1.768   2.887   3.394
 1061SOL    HW2 3504   1.722   2.779   3.280
 1062SOL     OW 3505   0.859   3.236   1.878
 1062SOL    HW1 3506   0.813   3.251   1.966
 1062SOL    HW2 3507   0.903   3.321   1.848
 1063SOL     OW 3508   0.661   3.652   2.815
 1063SOL    HW1 3509   0.615   3.740   2.802
 1063SOL    HW2 3510   0.760   3.664   2.808
 1064SOL     OW 3511   0.859   2.818   2.723
 1064SOL    HW1 3512   0.913   2.749   2.771
 1064SOL    HW2 3513   0.827   2.887   2.789
 1065SOL     OW 3514   1.083   2.846   1.949
 1065SOL    HW1 3515   1.060   2.899   1.867
 1065SOL    HW2 3516   1.164   2.790   1.930
 1066SOL     OW 3517   1.861   3.431   2.713
 1066SOL    HW1 3518   1.790   3.419   2.643
 1066SOL    HW2 3519   1.862   3.352   2.773
 1067SOL     OW 3520   0.221   3.176   3.706
 1067SOL    HW1 3521   0.156   3.103   3.685
 1067SOL    HW2 3522   0.225   3.190   3.804
 1068SOL     OW 3523   0.079   3.102   2.515
 1068SOL    HW1 3524   0.078   3.055   2.603
 1068SOL    HW2 3525   0.161   3.074   2.464
 1069SOL     OW 3526   0.672   3.253   3.486
 1069SOL    HW1 3527   0.594   3.203   3.524
 1069SOL    HW2 3528   0.669   3.348   3.517
 1070SOL     OW 3529   1.824   2.054   3.089
 1070SOL    HW1 3530   1.820   1.964   3.133
 1070SOL    HW2 3531   1.827   2.043   2.990
 1071SOL     OW 3532   0.428   2.286   2.382
 1071SOL    HW1 3533   0.458   2.214   2.320
 1071SOL    HW2 3534   0.389   2.246   2.465
 1072SOL     OW 3535   1.705   3.349   2.966
 1072SOL    HW1 3536   1.612   3.324   2.939
 1072SOL    HW2 3537   1.731   3.299   3.048
 1073SOL     OW 3538   0.317   2.409   3.142
 1073SOL    HW1 3539   0.355   2.350   3.214
 1073SOL    HW2 3540   0.357   2.383   3.054
 1074SOL     OW 3541   0.812   3.448   2.549
 1074SOL    HW1 3542   0.844   3.458   2.455
 1074SOL    HW2 3543   0.733   3.386   2.551
 1075SOL     OW 3544   1.424   2.076   2.974
 1075SOL    HW1 3545   1.476   2.011   3.029
 1075SOL    HW2 3546   1.375   2.139   3.035
 1076SOL     OW 3547   1.001   1.896   3.016
 1076SOL    HW1 3548   0.938   1.824   2.985
 1076SOL    HW2 3549   1.094   1.860   3.016
 1077SOL     OW 3550   0.770   3.192   2.163
 1077SOL    HW1 3551   0.724   3.105   2.180
 1077SOL    HW2 3552   0.861   3.189   2.204
 1078SOL     OW 3553   0.618   3.429   3.146
 1078SOL    HW1 3554   0.613   3.511   3.203
 1078SOL    HW2 3555   0.707   3.426   3.101
 1079SOL     OW 3556   1.352   1.914   2.030
 1079SOL    HW1 3557   1.387   1.873   1.946
 1079SOL    HW2 3558   1.262   1.876   2.050
 1080SOL     OW 3559   1.300   2.315   2.553
 1080SOL    HW1 3560   1.241   2.395   2.557
 1080SOL    HW2 3561   1.315   2.280   2.646
 1081SOL     OW 3562   1.593   2.083   2.744
 1081SOL    HW1 3563   1.509   2.082   2.798
 1081SOL    HW2 3564   1.595   2.166   2.688
 1082SOL     OW 3565   0.039   2.939   2.162
 1082SOL    HW1 3566   0.138   2.928   2.153
 1082SOL    HW2 3567  -0.001   2.853   2.194
 1083SOL     OW 3568   0.875   3.508   2.199
 1083SOL    HW1 3569   0.798   3.473   2.145
 1083SOL    HW2 3570   0.843   3.579   2.261
 1084SOL     OW 3571   0.230   2.490   3.837
 1084SOL    HW1 3572   0.137   2.488   3.874
 1084SOL    HW2 3573   0.231   2.451   3.745
 1085SOL     OW 3574   0.225   2.137   4.720
 1085SOL    HW1 3575   0.260   2.120   4.812
 1085SOL    HW2 3576   0.137   2.092   4.708
 1086SOL     OW 3577   0.019   2.230   4.371
 1086SOL    HW1 3578  -0.063   2.273   4.410
 1086SOL    HW2 3579  -0.009   2.157   4.308
 1087SOL     OW 3580   0.569   3.137   4.889
 1087SOL    HW1 3581   0.476   3.130   4.852
 1087SOL    HW2 3582   0.580   3.226   4.933
 1088SOL     OW 3583   1.555   3.373   4.427
 1088SOL    HW1 3584   1.498   3.357   4.508
 1088SOL    HW2 3585   1.496   3.383   4.347
 1089SOL     OW 3586   1.135   2.565   4.441
 1089SOL    HW1 3587   1.192   2.643   4.416
 1089SOL    HW2 3588   1.075   2.591   4.517
 1090SOL     OW 3589   1.755   2.469   3.955
 1090SOL    HW1 3590   1.743   2.456   3.856
 1090SOL    HW2 3591   1.725   2.388   4.004
 1091SOL     OW 3592   0.768   3.006   4.747
 1091SOL    HW1 3593   0.690   3.023   4.807
 1091SOL    HW2 3594   0.802   3.093   4.711
 1092SOL     OW 3595   0.850   2.660   5.547
 1092SOL    HW1 3596   0.846   2.736   5.612
 1092SOL    HW2 3597   0.872   2.696   5.456
 1093SOL     OW 3598   0.685   2.874   4.389
 1093SOL    HW1 3599   0.754   2.858   4.459
 1093SOL    HW2 3600   0.612   2.931   4.427
 1094SOL     OW 3601   0.686   3.023   5.527
 1094SOL    HW1 3602   0.746   3.102   5.541
 1094SOL    HW2 3603   0.600   3.054   5.486
 1095SOL     OW 3604   0.335   3.297   4.785
 1095SOL    HW1 3605   0.257   3.266   4.732
 1095SOL    HW2 3606   0.393   3.355   4.728
 1096SOL     OW 3607   1.460   3.367   5.063
 1096SOL    HW1 3608   1.484   3.461   5.089
 1096SOL    HW2 3609   1.444   3.313   5.145
 1097SOL     OW 3610   0.438   2.254   5.223
 1097SOL    HW1 3611   0.520   2.198   5.232
 1097SOL    HW2 3612   0.357   2.196   5.227
 1098SOL     OW 3613   1.603   2.309   4.461
 1098SOL    HW1 3614   1.529   2.355   4.411
 1098SOL    HW2 3615   1.654   2.377   4.514
 1099SOL     OW 3616   0.231   3.575   4.207
 1099SOL    HW1 3617   0.265   3.652   4.261
 1099SOL    HW2 3618   0.275   3.575   4.117
 1100SOL     OW 3619   1.127   3.203   5.414
 1100SOL    HW1 3620   1.174   3.203   5.502
 1100SOL    HW2 3621   1.079   3.116   5.403
 1101SOL     OW 3622   0.230   3.296   4.262
 1101SOL    HW1 3623   0.204   3.392   4.262
 1101SOL    HW2 3624   0.159   3.242   4.307
 1102SOL     OW 3625   0.240   2.953   4.610
 1102SOL    HW1 3626   0.254   2.869   4.662
 1102SOL    HW2 3627   0.185   3.017   4.665
 1103SOL     OW 3628   0.620   3.648   5.163
 1103SOL    HW1 3629   0.528   3.631   5.198
 1103SOL    HW2 3630   0.648   3.740   5.189
 1104SOL     OW 3631   0.606   2.826   3.847
 1104SOL    HW1 3632   0.613   2.910   3.793
 1104SOL    HW2 3633   0.652   2.839   3.935
 1105SOL     OW 3634   1.594   1.976   5.204
 1105SOL    HW1 3635   1.576   2.043   5.132
 1105SOL    HW2 3636   1.591   2.022   5.293
 1106SOL     OW 3637   0.122   2.505   4.287
 1106SOL    HW1 3638   0.077   2.417   4.304
 1106SOL    HW2 3639   0.121   2.559   4.371
 1107SOL     OW 3640   1.842   3.629   4.083
 1107SOL    HW1 3641   1.896   3.600   4.163
 1107SOL    HW2 3642   1.872   3.719   4.054
 1108SOL     OW 3643   0.027   3.458   3.841
 1108SOL    HW1 3644   0.008   3.362   3.862
 1108SOL    HW2 3645  -0.006   3.516   3.916
 1109SOL     OW 3646   1.689   2.784   4.336
 1109SOL    HW1 3647   1.784   2.755   4.344
 1109SOL    HW2 3648   1.681   2.849   4.261
 1110SOL     OW 3649   1.641   2.970   4.156
 1110SOL    HW1 3650   1.727   2.972   4.104
 1110SOL    HW2 3651   1.655   3.017   4.244
 1111SOL     OW 3652   0.113   2.599   5.321
 1111SOL    HW1 3653   0.201   2.586   5.366
 1111SOL    HW2 3654   0.100   2.696   5.299
 1112SOL     OW 3655   0.613   3.227   4.450
 1112SOL    HW1 3656   0.564   3.140   4.459
 1112SOL    HW2 3657   0.590   3.270   4.363
 1113SOL     OW 3658   1.293   3.090   5.147
 1113SOL    HW1 3659   1.330   3.017   5.089
 1113SOL    HW2 3660   1.345   3.095   5.232
 1114SOL     OW 3661   0.809   1.866   4.226
 1114SOL    HW1 3662   0.849   1.957   4.217
 1114SOL    HW2 3663   0.709   1.874   4.232
 1115SOL     OW 3664   0.197   2.838   4.988
 1115SOL    HW1 3665   0.286   2.793   4.974
 1115SOL    HW2 3666   0.124   2.773   4.969
 1116SOL     OW 3667   1.525   2.861   3.914
 1116SOL    HW1 3668   1.462   2.785   3.927
 1116SOL    HW2 3669   1.573   2.879   4.000
 1117SOL     OW 3670   1.187   3.654   5.340
 1117SOL    HW1 3671   1.211   3.714   5.264
 1117SOL    HW2 3672   1.194   3.559   5.310
 1118SOL     OW 3673   0.317   2.113   5.525
 1118SOL    HW1 3674   0.388   2.184   5.531
 1118SOL    HW2 3675   0.229   2.152   5.553
 1119SOL     OW 3676   1.466   3.279   4.677
 1119SOL    HW1 3677   1.407   3.285   4.757
 1119SOL    HW2 3678   1.451   3.191   4.631
 1120SOL     OW 3679   1.667   3.576   4.296
 1120SOL    HW1 3680   1.626   3.553   4.208
 1120SOL    HW2 3681   1.649   3.502   4.361
 1121SOL     OW 3682   0.598   2.591   3.994
 1121SOL    HW1 3683   0.622   2.660   3.926
 1121SOL    HW2 3684   0.520   2.624   4.048
 1122SOL     OW 3685   1.281   2.207   4.668
 1122SOL    HW1 3686   1.195   2.157   4.655
 1122SOL    HW2 3687   1.343   2.153   4.724
 1123SOL     OW 3688   1.576   3.524   4.031
 1123SOL    HW1 3689   1.665   3.570   4.034
 1123SOL    HW2 3690   1.555   3.500   3.936
 1124SOL     OW 3691   0.807   2.467   5.189
 1124SOL    HW1 3692   0.760   2.464   5.278
 1124SOL    HW2 3693   0.756   2.412   5.123
 1125SOL     OW 3694   1.394   2.331   5.398
 1125SOL    HW1 3695   1.374   2.374   5.486
 1125SOL    HW2 3696   1.472   2.269   5.407
 1126SOL     OW 3697   0.973   2.752   5.296
 1126SOL    HW1 3698   1.019   2.668   5.267
 1126SOL    HW2 3699   0.917   2.786   5.221
 1127SOL     OW 3700   0.991   2.272   4.966
 1127SOL    HW1 3701   0.914   2.306   5.020
 1127SOL    HW2 3702   0.957   2.221   4.887
 1128SOL     OW 3703   1.041   2.563   4.153
 1128SOL    HW1 3704   1.067   2.559   4.249
 1128SOL    HW2 3705   0.956   2.512   4.139
 1129SOL     OW 3706   0.076   2.673   4.513
 1129SOL    HW1 3707   0.175   2.661   4.522
 1129SOL    HW2 3708   0.052   2.768   4.534
 1130SOL     OW 3709   0.130   3.683   5.295
 1130SOL    HW1 3710   0.120   3.668   5.394
 1130SOL    HW2 3711   0.044   3.719   5.259
 1131SOL     OW 3712   0.865   2.210   3.919
 1131SOL    HW1 3713   0.924   2.273   3.870
 1131SOL    HW2 3714   0.884   2.116   3.890
 1132SOL     OW 3715   1.719   2.447   5.555
 1132SOL    HW1 3716   1.693   2.536   5.519
 1132SOL    HW2 3717   1.717   2.379   5.482
 1133SOL     OW 3718   1.362   3.006   4.269
 1133SOL    HW1 3719   1.445   2.977   4.221
 1133SOL    HW2 3720   1.313   3.073   4.213
 1134SOL     OW 3721   0.550   2.058   4.609
 1134SOL    HW1 3722   0.545   2.053   4.709
 1134SOL    HW2 3723   0.552   2.154   4.580
 1135SOL     OW 3724   1.008   3.318   4.201
 1135SOL    HW1 3725   0.962   3.390   4.149
 1135SOL    HW2 3726   1.004   3.338   4.299
 1136SOL     OW 3727   0.351   3.663   4.577
 1136SOL    HW1 3728   0.401   3.577   4.583
 1136SOL    HW2 3729   0.416   3.740   4.574
 1137SOL     OW 3730   1.795   2.928   4.597
 1137SOL    HW1 3731   1.733   2.913   4.521
 1137SOL    HW2 3732   1.743   2.939   4.682
 1138SOL     OW 3733   1.227   3.412   5.230
 1138SOL    HW1 3734   1.233   3.335   5.294
 1138SOL    HW2 3735   1.175   3.386   5.150
 1139SOL     OW 3736   0.321   2.805   3.966
 1139SOL    HW1 3737   0.403   2.844   3.924
 1139SOL    HW2 3738   0.294   2.723   3.917
 1140SOL     OW 3739   1.458   2.597   4.452
 1140SOL    HW1 3740   1.453   2.532   4.527
 1140SOL    HW2 3741   1.538   2.656   4.465
 1141SOL     OW 3742   0.461   3.128   5.451
 1141SOL    HW1 3743   0.411   3.129   5.365
 1141SOL    HW2 3744   0.398   3.110   5.527
 1142SOL     OW 3745   1.111   3.638   3.961
 1142SOL    HW1 3746   1.051   3.576   4.011
 1142SOL    HW2 3747   1.142   3.594   3.876
 1143SOL     OW 3748   0.202   2.147   5.222
 1143SOL    HW1 3749   0.122   2.207   5.209
 1143SOL    HW2 3750   0.192   2.098   5.308
 1144SOL     OW 3751   1.632   3.239   3.805
 1144SOL    HW1 3752   1.600   3.333   3.795
 1144SOL    HW2 3753   1.556   3.176   3.793
 1145SOL     OW 3754   0.464   3.605   4.047
 1145SOL    HW1 3755   0.497   3.644   4.133
 1145SOL    HW2 3756   0.540   3.598   3.982
 1146SOL     OW 3757   1.400   1.969   4.150
 1146SOL    HW1 3758   1.376   1.932   4.060
 1146SOL    HW2 3759   1.499   1.985   4.154
 1147SOL     OW 3760   0.249   3.647   4.965
 1147SOL    HW1 3761   0.306   3.582   5.015
 1147SOL    HW2 3762   0.233   3.614   4.872
 1148SOL     OW 3763   0.940   3.560   4.628
 1148SOL    HW1 3764   1.020   3.503   4.649
 1148SOL    HW2 3765   0.891   3.520   4.551
 1149SOL     OW 3766   0.382   2.562   4.204
 1149SOL    HW1 3767   0.427   2.472   4.201
 1149SOL    HW2 3768   0.288   2.551   4.237
 1150SOL     OW 3769   1.547   2.084   5.453
 1150SOL    HW1 3770   1.542   2.121   5.545
 1150SOL    HW2 3771   1.475   2.015   5.441
 1151SOL     OW 3772   0.614   1.984   3.841
 1151SOL    HW1 3773   0.712   1.962   3.848
 1151SOL    HW2 3774   0.583   1.967   3.748
 1152SOL     OW 3775   0.781   2.126   5.473
 1152SOL    HW1 3776   0.848   2.065   5.516
 1152SOL    HW2 3777   0.708   2.145   5.538
 1153SOL     OW 3778   0.888   3.376   4.919
 1153SOL    HW1 3779   0.865   3.351   4.825
 1153SOL    HW2 3780   0.949   3.307   4.958
 1154SOL     OW 3781   1.351   2.452   5.157
 1154SOL    HW1 3782   1.379   2.409   5.242
 1154SOL    HW2 3783   1.376   2.548   5.158
 1155SOL     OW 3784   0.803   3.264   4.648
 1155SOL    HW1 3785   0.893   3.278   4.606
 1155SOL    HW2 3786   0.732   3.266   4.577
 1156SOL     OW 3787   0.922   2.365   4.623
 1156SOL    HW1 3788   0.897   2.356   4.527
 1156SOL    HW2 3789   0.970   2.283   4.654
 1157SOL     OW 3790   0.539   1.926   4.236
 1157SOL    HW1 3791   0.458   1.927   4.294
 1157SOL    HW2 3792   0.542   2.009   4.181
 1158SOL     OW 3793   1.434   3.050   3.765
 1158SOL    HW1 3794   1.466   2.974   3.822
 1158SOL    HW2 3795   1.342   3.077   3.795
 1159SOL     OW 3796   0.297   1.897   3.895
 1159SOL    HW1 3797   0.346   1.981   3.874
 1159SOL    HW2 3798   0.359   1.832   3.940
 1160SOL     OW 3799   0.935   2.098   4.204
 1160SOL    HW1 3800   0.887   2.139   4.126
 1160SOL    HW2 3801   1.034   2.096   4.185
 1161SOL     OW 3802   1.076   2.545   5.188
 1161SOL    HW1 3803   0.996   2.484   5.191
 1161SOL    HW2 3804   1.157   2.492   5.164
 1162SOL     OW 3805   1.227   3.432   4.517
 1162SOL    HW1 3806   1.248   3.506   4.452
 1162SOL    HW2 3807   1.295   3.432   4.590
 1163SOL     OW 3808   0.459   3.014   4.465
 1163SOL    HW1 3809   0.388   2.987   4.530
 1163SOL    HW2 3810   0.433   2.986   4.372
 1164SOL     OW 3811   1.271   3.659   4.315
 1164SOL    HW1 3812   1.315   3.723   4.251
 1164SOL    HW2 3813   1.221   3.711   4.385
 1165SOL     OW 3814   1.032   2.411   3.740
 1165SOL    HW1 3815   0.991   2.493   3.701
 1165SOL    HW2 3816   1.096   2.437   3.813
 1166SOL     OW 3817   0.078   2.418   5.110
 1166SOL    HW1 3818   0.170   2.417   5.069
 1166SOL    HW2 3819   0.072   2.492   5.177
 1167SOL     OW 3820   0.561   2.084   4.871
 1167SOL    HW1 3821   0.599   2.000   4.908
 1167SOL    HW2 3822   0.473   2.103   4.915
 1168SOL     OW 3823   0.866   2.316   4.366
 1168SOL    HW1 3824   0.834   2.388   4.304
 1168SOL    HW2 3825   0.890   2.235   4.313
 1169SOL     OW 3826   1.017   1.901   4.477
 1169SOL    HW1 3827   0.945   1.906   4.408
 1169SOL    HW2 3828   0.993   1.832   4.546
 1170SOL     OW 3829   1.429   3.035   4.591
 1170SOL    HW1 3830   1.374   2.951   4.584
 1170SOL    HW2 3831   1.455   3.064   4.499
 1171SOL     OW 3832   1.466   2.452   4.716
 1171SOL    HW1 3833   1.436   2.357   4.723
 1171SOL    HW2 3834   1.539   2.468   4.782
 1172SOL     OW 3835   1.857   2.695   4.101
 1172SOL    HW1 3836   1.899   2.631   4.165
 1172SOL    HW2 3837   1.819   2.644   4.023
 1173SOL     OW 3838   0.488   3.247   3.898
 1173SOL    HW1 3839   0.401   3.232   3.945
 1173SOL    HW2 3840   0.471   3.273   3.803
 1174SOL     OW 3841   1.664   3.142   4.381
 1174SOL    HW1 3842   1.763   3.150   4.395
 1174SOL    HW2 3843   1.619   3.226   4.412
 1175SOL     OW 3844   1.390   2.437   3.802
 1175SOL    HW1 3845   1.336   2.416   3.883
 1175SOL    HW2 3846   1.481   2.396   3.811
 1176SOL     OW 3847   0.527   2.118   4.052
 1176SOL    HW1 3848   0.554   2.059   3.977
 1176SOL    HW2 3849   0.527   2.213   4.021
 1177SOL     OW 3850   1.754   3.085   5.312
 1177SOL    HW1 3851   1.845   3.046   5.299
 1177SOL    HW2 3852   1.762   3.181   5.336
 1178SOL     OW 3853   1.064   3.209   5.064
 1178SOL    HW1 3854   0.984   3.186   5.119
 1178SOL    HW2 3855   1.147   3.183   5.113
 1179SOL     OW 3856   1.592   3.491   5.349
 1179SOL    HW1 3857   1.619   3.525   5.259
 1179SOL    HW2 3858   1.671   3.453   5.395
 1180SOL     OW 3859   1.111   3.057   4.824
 1180SOL    HW1 3860   1.071   3.101   4.905
 1180SOL    HW2 3861   1.070   3.094   4.741
 1181SOL     OW 3862   1.638   2.961   4.803
 1181SOL    HW1 3863   1.643   3.042   4.862
 1181SOL    HW2 3864   1.552   2.963   4.752
 1182SOL     OW 3865   0.915   1.951   5.126
 1182SOL    HW1 3866   0.940   1.931   5.031
 1182SOL    HW2 3867   0.987   2.007   5.168
 1183SOL     OW 3868   0.980   2.978   5.443
 1183SOL    HW1 3869   0.881   2.984   5.453
 1183SOL    HW2 3870   1.003   2.898   5.387
 1184SOL     OW 3871   0.705   2.912   4.092
 1184SOL    HW1 3872   0.691   2.919   4.191
 1184SOL    HW2 3873   0.789   2.861   4.074
 1185SOL     OW 3874   0.410   2.675   4.975
 1185SOL    HW1 3875   0.496   2.687   5.025
 1185SOL    HW2 3876   0.368   2.588   5.002
 1186SOL     OW 3877   1.274   2.248   4.986
 1186SOL    HW1 3878   1.295   2.322   5.050
 1186SOL    HW2 3879   1.185   2.265   4.943
 1187SOL     OW 3880   0.064   3.426   5.055
 1187SOL    HW1 3881   0.018   3.508   5.021
 1187SOL    HW2 3882   0.162   3.445   5.064
 1188SOL     OW 3883   0.367   2.962   4.225
 1188SOL    HW1 3884   0.360   3.045   4.169
 1188SOL    HW2 3885   0.371   2.882   4.165
 1189SOL     OW 3886   0.566   2.399   4.589
 1189SOL    HW1 3887   0.578   2.465   4.515
 1189SOL    HW2 3888   0.612   2.433   4.672
 1190SOL     OW 3889   1.252   3.210   4.112
 1190SOL    HW1 3890   1.302   3.287   4.152
 1190SOL    HW2 3891   1.157   3.212   4.144
 1191SOL     OW 3892   1.272   3.307   4.866
 1191SOL    HW1 3893   1.319   3.320   4.953
 1191SOL    HW2 3894   1.206   3.233   4.875
 1192SOL     OW 3895   1.582   2.501   4.196
 1192SOL    HW1 3896   1.551   2.562   4.269
 1192SOL    HW2 3897   1.632   2.553   4.127
 1193SOL     OW 3898   0.354   3.372   5.053
 1193SOL    HW1 3899   0.333   3.328   4.966
 1193SOL    HW2 3900   0.451   3.398   5.056
 1194SOL     OW 3901   0.402   2.613   5.322
 1194SOL    HW1 3902   0.470   2.668   5.275
 1194SOL    HW2 3903   0.442   2.525   5.349
 1195SOL     OW 3904   1.587   2.641   5.394
 1195SOL    HW1 3905   1.495   2.679   5.389
 1195SOL    HW2 3906   1.647   2.688   5.329
 1196SOL     OW 3907   1.013   1.967   5.494
 1196SOL    HW1 3908   1.019   2.052   5.442
 1196SOL    HW2 3909   1.045   1.891   5.437
 1197SOL     OW 3910   0.504   1.912   5.464
 1197SOL    HW1 3911   0.462   1.855   5.394
 1197SOL    HW2 3912   0.438   1.981   5.496
 1198SOL     OW 3913   0.573   2.732   4.753
 1198SOL    HW1 3914   0.617   2.821   4.744
 1198SOL    HW2 3915   0.510   2.732   4.830
 1199SOL     OW 3916   1.360   2.724   4.769
 1199SOL    HW1 3917   1.285   2.724   4.703
 1199SOL    HW2 3918   1.397   2.632   4.778
 1200SOL     OW 3919   1.209   2.387   3.999
 1200SOL    HW1 3920   1.222   2.303   4.053
 1200SOL    HW2 3921   1.180   2.461   4.059
 1201SOL     OW 3922   0.307   2.075   4.955
 1201SOL    HW1 3923   0.284   2.112   5.045
 1201SOL    HW2 3924   0.277   1.980   4.949
 1202SOL     OW 3925   0.037   3.172   5.006
 1202SOL    HW1 3926   0.090   3.123   5.074
 1202SOL    HW2 3927   0.059   3.270   5.011
 1203SOL     OW 3928   0.732   2.496   4.788
 1203SOL    HW1 3929   0.791   2.470   4.712
 1203SOL    HW2 3930   0.704   2.592   4.777
 1204SOL     OW 3931   1.728   2.797   5.578
 1204SOL    HW1 3932   1.682   2.790   5.489
 1204SOL    HW2 3933   1.666   2.841   5.644
 1205SOL     OW 3934   0.307   1.925   4.342
 1205SOL    HW1 3935   0.296   2.019   4.375
 1205SOL    HW2 3936   0.302   1.862   4.419
 1206SOL     OW 3937   1.622   2.229   4.098
 1206SOL    HW1 3938   1.624   2.153   4.162
 1206SOL    HW2 3939   1.574   2.306   4.138
 1207SOL     OW 3940   1.023   2.628   4.690
 1207SOL    HW1 3941   1.038   2.649   4.786
 1207SOL    HW2 3942   0.993   2.533   4.681
 1208SOL     OW 3943   0.980   3.435   5.424
 1208SOL    HW1 3944   0.960   3.479   5.336
 1208SOL    HW2 3945   1.019   3.344   5.408
 1209SOL     OW 3946   1.859   3.380   5.329
 1209SOL    HW1 3947   1.873   3.407   5.234
 1209SOL    HW2 3948   1.942   3.402   5.382
 1210SOL     OW 3949   0.350   2.760   5.528
 1210SOL    HW1 3950   0.426   2.804   5.576
 1210SOL    HW2 3951   0.385   2.713   5.446
 1211SOL     OW 3952   1.540   2.136   3.849
 1211SOL    HW1 3953   1.479   2.061   3.872
 1211SOL    HW2 3954   1.562   2.188   3.932
 1212SOL     OW 3955   1.303   2.700   3.766
 1212SOL    HW1 3956   1.337   2.607   3.781
 1212SOL    HW2 3957   1.321   2.727   3.671
 1213SOL     OW 3958   1.068   3.195   4.573
 1213SOL    HW1 3959   1.075   3.111   4.518
 1213SOL    HW2 3960   1.130   3.264   4.537
 1214SOL     OW 3961   0.319   2.672   4.673
 1214SOL    HW1 3962   0.412   2.708   4.678
 1214SOL    HW2 3963   0.313   2.587   4.725
 1215SOL     OW 3964   0.339   2.371   4.730
 1215SOL    HW1 3965   0.287   2.288   4.713
 1215SOL    HW2 3966   0.416   2.376   4.666
 1216SOL     OW 3967   1.138   2.242   5.402
 1216SOL    HW1 3968   1.093   2.305   5.466
 1216SOL    HW2 3969   1.231   2.273   5.385
 1217SOL     OW 3970   1.160   2.069   5.201
 1217SOL    HW1 3971   1.160   2.133   5.278
 1217SOL    HW2 3972   1.188   2.117   5.118
 1218SOL     OW 3973   0.008   3.188   3.924
 1218SOL    HW1 3974  -0.085   3.209   3.893
 1218SOL    HW2 3975   0.018   3.089   3.937
 1219SOL     OW 3976   0.088   3.663   4.651
 1219SOL    HW1 3977   0.046   3.577   4.624
 1219SOL    HW2 3978   0.182   3.666   4.617
 1220SOL     OW 3979   0.504   3.430   4.634
 1220SOL    HW1 3980   0.570   3.504   4.643
 1220SOL    HW2 3981   0.548   3.351   4.592
 1221SOL     OW 3982   1.002   2.658   4.962
 1221SOL    HW1 3983   1.043   2.626   5.048
 1221SOL    HW2 3984   0.906   2.631   4.959
 1222SOL     OW 3985   0.040   2.406   4.838
 1222SOL    HW1 3986   0.125   2.373   4.797
 1222SOL    HW2 3987   0.053   2.421   4.936
 1223SOL     OW 3988   0.189   2.382   5.446
 1223SOL    HW1 3989   0.248   2.342   5.376
 1223SOL    HW2 3990   0.131   2.453   5.405
 1224SOL     OW 3991   1.369   2.812   5.384
 1224SOL    HW1 3992   1.408   2.901   5.404
 1224SOL    HW2 3993   1.379   2.792   5.287
 1225SOL     OW 3994   0.815   2.434   4.049
 1225SOL    HW1 3995   0.822   2.345   4.003
 1225SOL    HW2 3996   0.721   2.468   4.041
 1226SOL     OW 3997   1.657   2.466   4.930
 1226SOL    HW1 3998   1.619   2.397   4.992
 1226SOL    HW2 3999   1.739   2.430   4.886
 1227SOL     OW 4000   0.252   3.426   5.468
 1227SOL    HW1 4001   0.222   3.483   5.544
 1227SOL    HW2 4002   0.245   3.329   5.494
 1228SOL     OW 4003   0.671   2.326   4.993
 1228SOL    HW1 4004   0.637   2.237   4.963
 1228SOL    HW2 4005   0.697   2.380   4.913
 1229SOL     OW 4006   0.930   3.540   5.189
 1229SOL    HW1 4007   0.906   3.522   5.094
 1229SOL    HW2 4008   0.960   3.634   5.199
 1230SOL     OW 4009   0.473   2.362   3.915
 1230SOL    HW1 4010   0.534   2.442   3.919
 1230SOL    HW2 4011   0.378   2.393   3.922
 1231SOL     OW 4012   0.159   2.999   5.190
 1231SOL    HW1 4013   0.181   2.938   5.266
 1231SOL    HW2 4014   0.169   2.950   5.104
 1232SOL     OW 4015   1.347   2.921   4.958
 1232SOL    HW1 4016   1.371   2.858   4.884
 1232SOL    HW2 4017   1.257   2.961   4.940
 1233SOL     OW 4018   1.302   2.717   4.033
 1233SOL    HW1 4019   1.216   2.686   4.075
 1233SOL    HW2 4020   1.298   2.703   3.934
 1234SOL     OW 4021   1.759   3.609   4.878
 1234SOL    HW1 4022   1.820   3.639   4.805
 1234SOL    HW2 4023   1.721   3.520   4.856
 1235SOL     OW 4024   1.252   3.593   4.852
 1235SOL    HW1 4025   1.336   3.598   4.798
 1235SOL    HW2 4026   1.229   3.497   4.870
 1236SOL     OW 4027   0.083   3.120   4.746
 1236SOL    HW1 4028   0.078   3.119   4.846
 1236SOL    HW2 4029   0.000   3.079   4.708
 1237SOL     OW 4030   0.688   3.524   5.440
 1237SOL    HW1 4031   0.632   3.605   5.449
 1237SOL    HW2 4032   0.740   3.528   5.354
 1238SOL     OW 4033   1.726   1.997   4.247
 1238SOL    HW1 4034   1.799   1.980   4.180
 1238SOL    HW2 4035   1.695   1.910   4.285
 1239SOL     OW 4036   1.388   3.435   4.201
 1239SOL    HW1 4037   1.455   3.447   4.127
 1239SOL    HW2 4038   1.348   3.524   4.224
 1240SOL     OW 4039   0.130   3.656   5.575
 1240SOL    HW1 4040   0.089   3.582   5.628
 1240SOL    HW2 4041   0.194   3.707   5.633
 1241SOL     OW 4042   1.280   2.789   4.396
 1241SOL    HW1 4043   1.340   2.708   4.398
 1241SOL    HW2 4044   1.320   2.858   4.336
 1242SOL     OW 4045   0.830   3.135   5.146
 1242SOL    HW1 4046   0.825   3.168   5.241
 1242SOL    HW2 4047   0.744   3.154   5.100
 1243SOL     OW 4048   0.672   3.478   3.878
 1243SOL    HW1 4049   0.681   3.488   3.779
 1243SOL    HW2 4050   0.632   3.389   3.899
 1244SOL     OW 4051   1.650   3.582   5.118
 1244SOL    HW1 4052   1.703   3.592   5.034
 1244SOL    HW2 4053   1.623   3.672   5.152
 1245SOL     OW 4054   1.841   2.037   4.687
 1245SOL    HW1 4055   1.880   1.952   4.651
 1245SOL    HW2 4056   1.743   2.039   4.668
 1246SOL     OW 4057   0.263   2.188   4.444
 1246SOL    HW1 4058   0.184   2.239   4.410
 1246SOL    HW2 4059   0.254   2.173   4.542
 1247SOL     OW 4060   1.194   3.474   3.755
 1247SOL    HW1 4061   1.200   3.381   3.792
 1247SOL    HW2 4062   1.135   3.474   3.675
 1248SOL     OW 4063   0.822   2.864   5.096
 1248SOL    HW1 4064   0.862   2.863   5.004
 1248SOL    HW2 4065   0.832   2.956   5.136
 1249SOL     OW 4066   0.916   2.772   4.015
 1249SOL    HW1 4067   0.979   2.810   3.947
 1249SOL    HW2 4068   0.956   2.689   4.054
 1250SOL     OW 4069   1.504   3.469   3.768
 1250SOL    HW1 4070   1.412   3.506   3.775
 1250SOL    HW2 4071   1.542   3.489   3.678
 1251SOL     OW 4072   0.372   3.150   5.214
 1251SOL    HW1 4073   0.359   3.243   5.180
 1251SOL    HW2 4074   0.288   3.098   5.201
 1252SOL     OW 4075   1.614   3.154   5.013
 1252SOL    HW1 4076   1.674   3.157   5.093
 1252SOL    HW2 4077   1.539   3.218   5.026
 1253SOL     OW 4078   1.039   2.960   4.420
 1253SOL    HW1 4079   0.969   2.913   4.474
 1253SOL    HW2 4080   1.098   2.892   4.377
 1254SOL     OW 4081   1.014   2.098   4.695
 1254SOL    HW1 4082   1.006   2.062   4.602
 1254SOL    HW2 4083   1.012   2.022   4.760
 1255SOL     OW 4084   0.590   3.349   4.215
 1255SOL    HW1 4085   0.632   3.291   4.145
 1255SOL    HW2 4086   0.546   3.428   4.171
 1256SOL     OW 4087   1.709   2.247   5.105
 1256SOL    HW1 4088   1.782   2.316   5.109
 1256SOL    HW2 4089   1.737   2.172   5.046
 1257SOL     OW 4090   0.255   3.210   4.014
 1257SOL    HW1 4091   0.159   3.211   3.987
 1257SOL    HW2 4092   0.267   3.263   4.098
 1258SOL     OW 4093   0.105   2.875   5.450
 1258SOL    HW1 4094   0.028   2.842   5.504
 1258SOL    HW2 4095   0.190   2.845   5.492
 1259SOL     OW 4096   0.672   2.065   5.213
 1259SOL    HW1 4097   0.762   2.049   5.173
 1259SOL    HW2 4098   0.680   2.070   5.312
 1260SOL     OW 4099   0.075   2.207   3.757
 1260SOL    HW1 4100  -0.017   2.179   3.728
 1260SOL    HW2 4101   0.106   2.284   3.701
 1261SOL     OW 4102   1.440   2.718   5.122
 1261SOL    HW1 4103   1.383   2.770   5.059
 1261SOL    HW2 4104   1.536   2.730   5.098
 1262SOL     OW 4105   0.072   2.028   4.042
 1262SOL    HW1 4106   0.055   2.111   3.988
 1262SOL    HW2 4107   0.162   1.991   4.020
 1263SOL     OW 4108   1.183   3.197   3.843
 1263SOL    HW1 4109   1.084   3.186   3.845
 1263SOL    HW2 4110   1.217   3.212   3.936
 1264SOL     OW 4111   0.613   2.704   5.155
 1264SOL    HW1 4112   0.669   2.785   5.138
 1264SOL    HW2 4113   0.672   2.624   5.158
 1265SOL     OW 4114   1.493   3.629   4.683
 1265SOL    HW1 4115   1.526   3.693   4.614
 1265SOL    HW2 4116   1.559   3.623   4.758
 1266SOL     OW 4117   0.716   2.427   5.432
 1266SOL    HW1 4118   0.735   2.492   5.506
 1266SOL    HW2 4119   0.776   2.347   5.441
 1267SOL     OW 4120   1.450   3.082   5.357
 1267SOL    HW1 4121   1.441   3.072   5.456
 1267SOL    HW2 4122   1.546   3.075   5.331
 1268SOL     OW 4123   0.390   3.603   5.284
 1268SOL    HW1 4124   0.299   3.644   5.282
 1268SOL    HW2 4125   0.383   3.509   5.316
 1269SOL     OW 4126   1.674   2.745   4.978
 1269SOL    HW1 4127   1.647   2.656   4.941
 1269SOL    HW2 4128   1.675   2.813   4.905
 1270SOL     OW 4129   1.225   2.187   4.173
 1270SOL    HW1 4130   1.290   2.113   4.162
 1270SOL    HW2 4131   1.245   2.237   4.257
 1271SOL     OW 4132   0.594   2.607   4.376
 1271SOL    HW1 4133   0.644   2.692   4.357
 1271SOL    HW2 4134   0.506   2.609   4.328
 1272SOL     OW 4135   1.777   2.204   5.366
 1272SOL    HW1 4136   1.760   2.235   5.272
 1272SOL    HW2 4137   1.693   2.167   5.404
 1273SOL     OW 4138   1.730   2.796   5.241
 1273SOL    HW1 4139   1.768   2.887   5.256
 1273SOL    HW2 4140   1.722   2.779   5.142
 1274SOL     OW 4141   0.859   3.236   3.740
 1274SOL    HW1 4142   0.813   3.251   3.828
 1274SOL    HW2 4143   0.903   3.321   3.710
 1275SOL     OW 4144   0.661   3.652   4.677
 1275SOL    HW1 4145   0.615   3.740   4.664
 1275SOL    HW2 4146   0.760   3.664   4.670
 1276SOL     OW 4147   0.859   2.818   4.585
 1276SOL    HW1 4148   0.913   2.749   4.633
 1276SOL    HW2 4149   0.827   2.887   4.651
 1277SOL     OW 4150   1.083   2.846   3.811
 1277SOL    HW1 4151   1.060   2.899   3.729
 1277SOL    HW2 4152   1.164   2.790   3.792
 1278SOL     OW 4153   1.861   3.431   4.575
 1278SOL    HW1 4154   1.790   3.419   4.505
 1278SOL    HW2 4155   1.862   3.352   4.635
 1279SOL     OW 4156   0.221   3.176   5.568
 1279SOL    HW1 4157   0.156   3.103   5.547
 1279SOL    HW2 4158   0.225   3.190   5.666
 1280SOL     OW 4159   0.079   3.102   4.377
 1280SOL    HW1 4160   0.078   3.055   4.465
 1280SOL    HW2 4161   0.161   3.074   4.326
 1281SOL     OW 4162   0.672   3.253   5.348
 1281SOL    HW1 4163   0.594   3.203   5.386
 1281SOL    HW2 4164   0.669   3.348   5.379
 1282SOL     OW 4165   1.824   2.054   4.951
 1282SOL    HW1 4166   1.820   1.964   4.995
 1282SOL    HW2 4167   1.827   2.043   4.852
 1283SOL     OW 4168   0.428   2.286   4.244
 1283SOL    HW1 4169   0.458   2.214   4.182
 1283SOL    HW2 4170   0.389   2.246   4.327
 1284SOL     OW 4171   1.705   3.349   4.828
 1284SOL    HW1 4172   1.612   3.324   4.801
 1284SOL    HW2 4173   1.731   3.299   4.910
 1285SOL     OW 4174   0.317   2.409   5.004
 1285SOL    HW1 4175   0.355   2.350   5.076
 1285SOL    HW2 4176   0.357   2.383   4.916
 1286SOL     OW 4177   0.812   3.448   4.411
 1286SOL    HW1 4178   0.844   3.458   4.317
 1286SOL    HW2 4179   0.733   3.386   4.413
 1287SOL     OW 4180   1.424   2.076   4.836
 1287SOL    HW1 4181   1.476   2.011   4.891
 1287SOL    HW2 4182   1.375   2.139   4.897
 1288SOL     OW 4183   1.001   1.896   4.878
 1288SOL    HW1 4184   0.938   1.824   4.847
 1288SOL    HW2 4185   1.094   1.860   4.878
 1289SOL     OW 4186   0.770   3.192   4.025
 1289SOL    HW1 4187   0.724   3.105   4.042
 1289SOL    HW2 4188   0.861   3.189   4.066
 1290SOL     OW 4189   0.618   3.429   5.008
 1290SOL    HW1 4190   0.613   3.511   5.065
 1290SOL    HW2 4191   0.707   3.426   4.963
 1291SOL     OW 4192   1.352   1.914   3.892
 1291SOL    HW1 4193   1.387   1.873   3.808
 1291SOL    HW2 4194   1.262   1.876   3.912
 1292SOL     OW 4195   1.300   2.315   4.415
 1292SOL    HW1 4196   1.241   2.395   4.419
 1292SOL    HW2 4197   1.315   2.280   4.508
 1293SOL     OW 4198   1.593   2.083   4.606
 1293SOL    HW1 4199   1.509   2.082   4.660
 1293SOL    HW2 4200   1.595   2.166   4.550
 1294SOL     OW 4201   0.039   2.939   4.024
 1294SOL    HW1 4202   0.138   2.928   4.015
 1294SOL    HW2 4203  -0.001   2.853   4.056
 1295SOL     OW 4204   0.875   3.508   4.061
 1295SOL    HW1 4205   0.798   3.473   4.007
 1295SOL    HW2 4206   0.843   3.579   4.123
 1296SOL     OW 4207   0.230   4.352   0.113
 1296SOL    HW1 4208   0.137   4.350   0.150
 1296SOL    HW2 4209   0.231   4.313   0.021
 1297SOL     OW 4210   0.225   3.999   0.996
 1297SOL    HW1 4211   0.260   3.982   1.088
 1297SOL    HW2 4212   0.137   3.954   0.984
 1298SOL     OW 4213   0.019   4.092   0.647
 1298SOL    HW1 4214  -0.063   4.135   0.686
 1298SOL    HW2 4215  -0.009   4.019   0.584
 1299SOL     OW 4216   0.569   4.999   1.165
 1299SOL    HW1 4217   0.476   4.992   1.128
 1299SOL    HW2 4218   0.580   5.088   1.209
 1300SOL     OW 4219   1.555   5.235   0.703
 1300SOL    HW1 4220   1.498   5.219   0.784
 1300SOL    HW2 4221   1.496   5.245   0.623
 1301SOL     OW 4222   1.135   4.427   0.717
 1301SOL    HW1 4223   1.192   4.505   0.692
 1301SOL    HW2 4224   1.075   4.453   0.793
 1302SOL     OW 4225   1.755   4.331   0.231
 1302SOL    HW1 4226   1.743   4.318   0.132
 1302SOL    HW2 4227   1.725   4.250   0.280
 1303SOL     OW 4228   0.768   4.868   1.023
 1303SOL    HW1 4229   0.690   4.885   1.083
 1303SOL    HW2 4230   0.802   4.955   0.987
 1304SOL     OW 4231   0.850   4.522   1.823
 1304SOL    HW1 4232   0.846   4.598   1.888
 1304SOL    HW2 4233   0.872   4.558   1.732
 1305SOL     OW 4234   0.685   4.736   0.665
 1305SOL    HW1 4235   0.754   4.720   0.735
 1305SOL    HW2 4236   0.612   4.793   0.703
 1306SOL     OW 4237   0.686   4.885   1.803
 1306SOL    HW1 4238   0.746   4.964   1.817
 1306SOL    HW2 4239   0.600   4.916   1.762
 1307SOL     OW 4240   0.335   5.159   1.061
 1307SOL    HW1 4241   0.257   5.128   1.008
 1307SOL    HW2 4242   0.393   5.217   1.004
 1308SOL     OW 4243   1.460   5.229   1.339
 1308SOL    HW1 4244   1.484   5.323   1.365
 1308SOL    HW2 4245   1.444   5.175   1.421
 1309SOL     OW 4246   0.438   4.116   1.499
 1309SOL    HW1 4247   0.520   4.060   1.508
 1309SOL    HW2 4248   0.357   4.058   1.503
 1310SOL     OW 4249   1.603   4.171   0.737
 1310SOL    HW1 4250   1.529   4.217   0.687
 1310SOL    HW2 4251   1.654   4.239   0.790
 1311SOL     OW 4252   0.231   5.437   0.483
 1311SOL    HW1 4253   0.265   5.514   0.537
 1311SOL    HW2 4254   0.275   5.437   0.393
 1312SOL     OW 4255   1.127   5.065   1.690
 1312SOL    HW1 4256   1.174   5.065   1.778
 1312SOL    HW2 4257   1.079   4.978   1.679
 1313SOL     OW 4258   0.230   5.158   0.538
 1313SOL    HW1 4259   0.204   5.254   0.538
 1313SOL    HW2 4260   0.159   5.104   0.583
 1314SOL     OW 4261   0.240   4.815   0.886
 1314SOL    HW1 4262   0.254   4.731   0.938
 1314SOL    HW2 4263   0.185   4.879   0.941
 1315SOL     OW 4264   0.620   5.510   1.439
 1315SOL    HW1 4265   0.528   5.493   1.474
 1315SOL    HW2 4266   0.648   5.602   1.465
 1316SOL     OW 4267   0.606   4.688   0.123
 1316SOL    HW1 4268   0.613   4.772   0.069
 1316SOL    HW2 4269   0.652   4.701   0.211
 1317SOL     OW 4270   1.594   3.838   1.480
 1317SOL    HW1 4271   1.576   3.905   1.408
 1317SOL    HW2 4272   1.591   3.884   1.569
 1318SOL     OW 4273   0.122   4.367   0.563
 1318SOL    HW1 4274   0.077   4.279   0.580
 1318SOL    HW2 4275   0.121   4.421   0.647
 1319SOL     OW 4276   1.842   5.491   0.359
 1319SOL    HW1 4277   1.896   5.462   0.439
 1319SOL    HW2 4278   1.872   5.581   0.330
 1320SOL     OW 4279   0.027   5.320   0.117
 1320SOL    HW1 4280   0.008   5.224   0.138
 1320SOL    HW2 4281  -0.006   5.378   0.192
 1321SOL     OW 4282   1.689   4.646   0.612
 1321SOL    HW1 4283   1.784   4.617   0.620
 1321SOL    HW2 4284   1.681   4.711   0.537
 1322SOL     OW 4285   1.641   4.832   0.432
 1322SOL    HW1 4286   1.727   4.834   0.380
 1322SOL    HW2 4287   1.655   4.879   0.520
 1323SOL     OW 4288   0.113   4.461   1.597
 1323SOL    HW1 4289   0.201   4.448   1.642
 1323SOL    HW2 4290   0.100   4.558   1.575
 1324SOL     OW 4291   0.613   5.089   0.726
 1324SOL    HW1 4292   0.564   5.002   0.735
 1324SOL    HW2 4293   0.590   5.132   0.639
 1325SOL     OW 4294   1.293   4.952   1.423
 1325SOL    HW1 4295   1.330   4.879   1.365
 1325SOL    HW2 4296   1.345   4.957   1.508
 1326SOL     OW 4297   0.809   3.728   0.502
 1326SOL    HW1 4298   0.849   3.819   0.493
 1326SOL    HW2 4299   0.709   3.736   0.508
 1327SOL     OW 4300   0.197   4.700   1.264
 1327SOL    HW1 4301   0.286   4.655   1.250
 1327SOL    HW2 4302   0.124   4.635   1.245
 1328SOL     OW 4303   1.525   4.723   0.190
 1328SOL    HW1 4304   1.462   4.647   0.203
 1328SOL    HW2 4305   1.573   4.741   0.276
 1329SOL     OW 4306   1.187   5.516   1.616
 1329SOL    HW1 4307   1.211   5.576   1.540
 1329SOL    HW2 4308   1.194   5.421   1.586
 1330SOL     OW 4309   0.317   3.975   1.801
 1330SOL    HW1 4310   0.388   4.046   1.807
 1330SOL    HW2 4311   0.229   4.014   1.829
 1331SOL     OW 4312   1.466   5.141   0.953
 1331SOL    HW1 4313   1.407   5.147   1.033
 1331SOL    HW2 4314   1.451   5.053   0.907
 1332SOL     OW 4315   1.667   5.438   0.572
 1332SOL    HW1 4316   1.626   5.415   0.484
 1332SOL    HW2 4317   1.649   5.364   0.637
 1333SOL     OW 4318   0.598   4.453   0.270
 1333SOL    HW1 4319   0.622   4.522   0.202
 1333SOL    HW2 4320   0.520   4.486   0.324
 1334SOL     OW 4321   1.281   4.069   0.944
 1334SOL    HW1 4322   1.195   4.019   0.931
 1334SOL    HW2 4323   1.343   4.015   1.000
 1335SOL     OW 4324   1.576   5.386   0.307
 1335SOL    HW1 4325   1.665   5.432   0.310
 1335SOL    HW2 4326   1.555   5.362   0.212
 1336SOL     OW 4327   0.807   4.329   1.465
 1336SOL    HW1 4328   0.760   4.326   1.554
 1336SOL    HW2 4329   0.756   4.274   1.399
 1337SOL     OW 4330   1.394   4.193   1.674
 1337SOL    HW1 4331   1.374   4.236   1.762
 1337SOL    HW2 4332   1.472   4.131   1.683
 1338SOL     OW 4333   0.973   4.614   1.572
 1338SOL    HW1 4334   1.019   4.530   1.543
 1338SOL    HW2 4335   0.917   4.648   1.497
 1339SOL     OW 4336   0.991   4.134   1.242
 1339SOL    HW1 4337   0.914   4.168   1.296
 1339SOL    HW2 4338   0.957   4.083   1.163
 1340SOL     OW 4339   1.041   4.425   0.429
 1340SOL    HW1 4340   1.067   4.421   0.525
 1340SOL    HW2 4341   0.956   4.374   0.415
 1341SOL     OW 4342   0.076   4.535   0.789
 1341SOL    HW1 4343   0.175   4.523   0.798
 1341SOL    HW2 4344   0.052   4.630   0.810
 1342SOL     OW 4345   0.130   5.545   1.571
 1342SOL    HW1 4346   0.120   5.530   1.670
 1342SOL    HW2 4347   0.044   5.581   1.535
 1343SOL     OW 4348   0.865   4.072   0.195
 1343SOL    HW1 4349   0.924   4.135   0.146
 1343SOL    HW2 4350   0.884   3.978   0.166
 1344SOL     OW 4351   1.719   4.309   1.831
 1344SOL    HW1 4352   1.693   4.398   1.795
 1344SOL    HW2 4353   1.717   4.241   1.758
 1345SOL     OW 4354   1.362   4.868   0.545
 1345SOL    HW1 4355   1.445   4.839   0.497
 1345SOL    HW2 4356   1.313   4.935   0.489
 1346SOL     OW 4357   0.550   3.920   0.885
 1346SOL    HW1 4358   0.545   3.915   0.985
 1346SOL    HW2 4359   0.552   4.016   0.856
 1347SOL     OW 4360   1.008   5.180   0.477
 1347SOL    HW1 4361   0.962   5.252   0.425
 1347SOL    HW2 4362   1.004   5.200   0.575
 1348SOL     OW 4363   0.351   5.525   0.853
 1348SOL    HW1 4364   0.401   5.439   0.859
 1348SOL    HW2 4365   0.416   5.602   0.850
 1349SOL     OW 4366   1.795   4.790   0.873
 1349SOL    HW1 4367   1.733   4.775   0.797
 1349SOL    HW2 4368   1.743   4.801   0.958
 1350SOL     OW 4369   1.227   5.274   1.506
 1350SOL    HW1 4370   1.233   5.197   1.570
 1350SOL    HW2 4371   1.175   5.248   1.426
 1351SOL     OW 4372   0.321   4.667   0.242
 1351SOL    HW1 4373   0.403   4.706   0.200
 1351SOL    HW2 4374   0.294   4.585   0.193
 1352SOL     OW 4375   1.458   4.459   0.728
 1352SOL    HW1 4376   1.453   4.394   0.803
 1352SOL    HW2 4377   1.538   4.518   0.741
 1353SOL     OW 4378   0.461   4.990   1.727
 1353SOL    HW1 4379   0.411   4.991   1.641
 1353SOL    HW2 4380   0.398   4.972   1.803
 1354SOL     OW 4381   1.111   5.500   0.237
 1354SOL    HW1 4382   1.051   5.438   0.287
 1354SOL    HW2 4383   1.142   5.456   0.152
 1355SOL     OW 4384   0.202   4.009   1.498
 1355SOL    HW1 4385   0.122   4.069   1.485
 1355SOL    HW2 4386   0.192   3.960   1.584
 1356SOL     OW 4387   1.632   5.101   0.081
 1356SOL    HW1 4388   1.600   5.195   0.071
 1356SOL    HW2 4389   1.556   5.038   0.069
 1357SOL     OW 4390   0.464   5.467   0.323
 1357SOL    HW1 4391   0.497   5.506   0.409
 1357SOL    HW2 4392   0.540   5.460   0.258
 1358SOL     OW 4393   1.400   3.831   0.426
 1358SOL    HW1 4394   1.376   3.794   0.336
 1358SOL    HW2 4395   1.499   3.847   0.430
 1359SOL     OW 4396   0.249   5.509   1.241
 1359SOL    HW1 4397   0.306   5.444   1.291
 1359SOL    HW2 4398   0.233   5.476   1.148
 1360SOL     OW 4399   0.940   5.422   0.904
 1360SOL    HW1 4400   1.020   5.365   0.925
 1360SOL    HW2 4401   0.891   5.382   0.827
 1361SOL     OW 4402   0.382   4.424   0.480
 1361SOL    HW1 4403   0.427   4.334   0.477
 1361SOL    HW2 4404   0.288   4.413   0.513
 1362SOL     OW 4405   1.547   3.946   1.729
 1362SOL    HW1 4406   1.542   3.983   1.821
 1362SOL    HW2 4407   1.475   3.877   1.717
 1363SOL     OW 4408   0.614   3.846   0.117
 1363SOL    HW1 4409   0.712   3.824   0.124
 1363SOL    HW2 4410   0.583   3.829   0.024
 1364SOL     OW 4411   0.781   3.988   1.749
 1364SOL    HW1 4412   0.848   3.927   1.792
 1364SOL    HW2 4413   0.708   4.007   1.814
 1365SOL     OW 4414   0.888   5.238   1.195
 1365SOL    HW1 4415   0.865   5.213   1.101
 1365SOL    HW2 4416   0.949   5.169   1.234
 1366SOL     OW 4417   1.351   4.314   1.433
 1366SOL    HW1 4418   1.379   4.271   1.518
 1366SOL    HW2 4419   1.376   4.410   1.434
 1367SOL     OW 4420   0.803   5.126   0.924
 1367SOL    HW1 4421   0.893   5.140   0.882
 1367SOL    HW2 4422   0.732   5.128   0.853
 1368SOL     OW 4423   0.922   4.227   0.899
 1368SOL    HW1 4424   0.897   4.218   0.803
 1368SOL    HW2 4425   0.970   4.145   0.930
 1369SOL     OW 4426   0.539   3.788   0.512
 1369SOL    HW1 4427   0.458   3.789   0.570
 1369SOL    HW2 4428   0.542   3.871   0.457
 1370SOL     OW 4429   1.434   4.912   0.041
 1370SOL    HW1 4430   1.466   4.836   0.098
 1370SOL    HW2 4431   1.342   4.939   0.071
 1371SOL     OW 4432   0.297   3.759   0.171
 1371SOL    HW1 4433   0.346   3.843   0.150
 1371SOL    HW2 4434   0.359   3.694   0.216
 1372SOL     OW 4435   0.935   3.960   0.480
 1372SOL    HW1 4436   0.887   4.001   0.402
 1372SOL    HW2 4437   1.034   3.958   0.461
 1373SOL     OW 4438   1.076   4.407   1.464
 1373SOL    HW1 4439   0.996   4.346   1.467
 1373SOL    HW2 4440   1.157   4.354   1.440
 1374SOL     OW 4441   1.227   5.294   0.793
 1374SOL    HW1 4442   1.248   5.368   0.728
 1374SOL    HW2 4443   1.295   5.294   0.866
 1375SOL     OW 4444   0.459   4.876   0.741
 1375SOL    HW1 4445   0.388   4.849   0.806
 1375SOL    HW2 4446   0.433   4.848   0.648
 1376SOL     OW 4447   1.271   5.521   0.591
 1376SOL    HW1 4448   1.315   5.585   0.527
 1376SOL    HW2 4449   1.221   5.573   0.661
 1377SOL     OW 4450   1.032   4.273   0.016
 1377SOL    HW1 4451   0.991   4.355  -0.023
 1377SOL    HW2 4452   1.096   4.299   0.089
 1378SOL     OW 4453   0.078   4.280   1.386
 1378SOL    HW1 4454   0.170   4.279   1.345
 1378SOL    HW2 4455   0.072   4.354   1.453
 1379SOL     OW 4456   0.561   3.946   1.147
 1379SOL    HW1 4457   0.599   3.862   1.184
 1379SOL    HW2 4458   0.473   3.965   1.191
 1380SOL     OW 4459   0.866   4.178   0.642
 1380SOL    HW1 4460   0.834   4.250   0.580
 1380SOL    HW2 4461   0.890   4.097   0.589
 1381SOL     OW 4462   1.017   3.763   0.753
 1381SOL    HW1 4463   0.945   3.768   0.684
 1381SOL    HW2 4464   0.993   3.694   0.822
 1382SOL     OW 4465   1.429   4.897   0.867
 1382SOL    HW1 4466   1.374   4.813   0.860
 1382SOL    HW2 4467   1.455   4.926   0.775
 1383SOL     OW 4468   1.466   4.314   0.992
 1383SOL    HW1 4469   1.436   4.219   0.999
 1383SOL    HW2 4470   1.539   4.330   1.058
 1384SOL     OW 4471   1.857   4.557   0.377
 1384SOL    HW1 4472   1.899   4.493   0.441
 1384SOL    HW2 4473   1.819   4.506   0.299
 1385SOL     OW 4474   0.488   5.109   0.174
 1385SOL    HW1 4475   0.401   5.094   0.221
 1385SOL    HW2 4476   0.471   5.135   0.079
 1386SOL     OW 4477   1.664   5.004   0.657
 1386SOL    HW1 4478   1.763   5.012   0.671
 1386SOL    HW2 4479   1.619   5.088   0.688
 1387SOL     OW 4480   1.390   4.299   0.078
 1387SOL    HW1 4481   1.336   4.278   0.159
 1387SOL    HW2 4482   1.481   4.258   0.087
 1388SOL     OW 4483   0.527   3.980   0.328
 1388SOL    HW1 4484   0.554   3.921   0.253
 1388SOL    HW2 4485   0.527   4.075   0.297
 1389SOL     OW 4486   1.754   4.947   1.588
 1389SOL    HW1 4487   1.845   4.908   1.575
 1389SOL    HW2 4488   1.762   5.043   1.612
 1390SOL     OW 4489   1.064   5.071   1.340
 1390SOL    HW1 4490   0.984   5.048   1.395
 1390SOL    HW2 4491   1.147   5.045   1.389
 1391SOL     OW 4492   1.592   5.353   1.625
 1391SOL    HW1 4493   1.619   5.387   1.535
 1391SOL    HW2 4494   1.671   5.315   1.671
 1392SOL     OW 4495   1.111   4.919   1.100
 1392SOL    HW1 4496   1.071   4.963   1.181
 1392SOL    HW2 4497   1.070   4.956   1.017
 1393SOL     OW 4498   1.638   4.823   1.079
 1393SOL    HW1 4499   1.643   4.904   1.138
 1393SOL    HW2 4500   1.552   4.825   1.028
 1394SOL     OW 4501   0.915   3.813   1.402
 1394SOL    HW1 4502   0.940   3.793   1.307
 1394SOL    HW2 4503   0.987   3.869   1.444
 1395SOL     OW 4504   0.980   4.840   1.719
 1395SOL    HW1 4505   0.881   4.846   1.729
 1395SOL    HW2 4506   1.003   4.760   1.663
 1396SOL     OW 4507   0.705   4.774   0.368
 1396SOL    HW1 4508   0.691   4.781   0.467
 1396SOL    HW2 4509   0.789   4.723   0.350
 1397SOL     OW 4510   0.410   4.537   1.251
 1397SOL    HW1 4511   0.496   4.549   1.301
 1397SOL    HW2 4512   0.368   4.450   1.278
 1398SOL     OW 4513   1.274   4.110   1.262
 1398SOL    HW1 4514   1.295   4.184   1.326
 1398SOL    HW2 4515   1.185   4.127   1.219
 1399SOL     OW 4516   0.064   5.288   1.331
 1399SOL    HW1 4517   0.018   5.370   1.297
 1399SOL    HW2 4518   0.162   5.307   1.340
 1400SOL     OW 4519   0.367   4.824   0.501
 1400SOL    HW1 4520   0.360   4.907   0.445
 1400SOL    HW2 4521   0.371   4.744   0.441
 1401SOL     OW 4522   0.566   4.261   0.865
 1401SOL    HW1 4523   0.578   4.327   0.791
 1401SOL    HW2 4524   0.612   4.295   0.948
 1402SOL     OW 4525   1.252   5.072   0.388
 1402SOL    HW1 4526   1.302   5.149   0.428
 1402SOL    HW2 4527   1.157   5.074   0.420
 1403SOL     OW 4528   1.272   5.169   1.142
 1403SOL    HW1 4529   1.319   5.182   1.229
 1403SOL    HW2 4530   1.206   5.095   1.151
 1404SOL     OW 4531   1.582   4.363   0.472
 1404SOL    HW1 4532   1.551   4.424   0.545
 1404SOL    HW2 4533   1.632   4.415   0.403
 1405SOL     OW 4534   0.354   5.234   1.329
 1405SOL    HW1 4535   0.333   5.190   1.242
 1405SOL    HW2 4536   0.451   5.260   1.332
 1406SOL     OW 4537   0.402   4.475   1.598
 1406SOL    HW1 4538   0.470   4.530   1.551
 1406SOL    HW2 4539   0.442   4.387   1.625
 1407SOL     OW 4540   1.587   4.503   1.670
 1407SOL    HW1 4541   1.495   4.541   1.665
 1407SOL    HW2 4542   1.647   4.550   1.605
 1408SOL     OW 4543   1.013   3.829   1.770
 1408SOL    HW1 4544   1.019   3.914   1.718
 1408SOL    HW2 4545   1.045   3.753   1.713
 1409SOL     OW 4546   0.504   3.774   1.740
 1409SOL    HW1 4547   0.462   3.717   1.670
 1409SOL    HW2 4548   0.438   3.843   1.772
 1410SOL     OW 4549   0.573   4.594   1.029
 1410SOL    HW1 4550   0.617   4.683   1.020
 1410SOL    HW2 4551   0.510   4.594   1.106
 1411SOL     OW 4552   1.360   4.586   1.045
 1411SOL    HW1 4553   1.285   4.586   0.979
 1411SOL    HW2 4554   1.397   4.494   1.054
 1412SOL     OW 4555   1.209   4.249   0.275
 1412SOL    HW1 4556   1.222   4.165   0.329
 1412SOL    HW2 4557   1.180   4.323   0.335
 1413SOL     OW 4558   0.307   3.937   1.231
 1413SOL    HW1 4559   0.284   3.974   1.321
 1413SOL    HW2 4560   0.277   3.842   1.225
 1414SOL     OW 4561   0.037   5.034   1.282
 1414SOL    HW1 4562   0.090   4.985   1.350
 1414SOL    HW2 4563   0.059   5.132   1.287
 1415SOL     OW 4564   0.732   4.358   1.064
 1415SOL    HW1 4565   0.791   4.332   0.988
 1415SOL    HW2 4566   0.704   4.454   1.053
 1416SOL     OW 4567   1.728   4.659   1.854
 1416SOL    HW1 4568   1.682   4.652   1.765
 1416SOL    HW2 4569   1.666   4.703   1.920
 1417SOL     OW 4570   0.307   3.787   0.618
 1417SOL    HW1 4571   0.296   3.881   0.651
 1417SOL    HW2 4572   0.302   3.724   0.695
 1418SOL     OW 4573   1.622   4.091   0.374
 1418SOL    HW1 4574   1.624   4.015   0.438
 1418SOL    HW2 4575   1.574   4.168   0.414
 1419SOL     OW 4576   1.023   4.490   0.966
 1419SOL    HW1 4577   1.038   4.511   1.062
 1419SOL    HW2 4578   0.993   4.395   0.957
 1420SOL     OW 4579   0.980   5.297   1.700
 1420SOL    HW1 4580   0.960   5.341   1.612
 1420SOL    HW2 4581   1.019   5.206   1.684
 1421SOL     OW 4582   1.859   5.242   1.605
 1421SOL    HW1 4583   1.873   5.269   1.510
 1421SOL    HW2 4584   1.942   5.264   1.658
 1422SOL     OW 4585   0.350   4.622   1.804
 1422SOL    HW1 4586   0.426   4.666   1.852
 1422SOL    HW2 4587   0.385   4.575   1.722
 1423SOL     OW 4588   1.540   3.998   0.125
 1423SOL    HW1 4589   1.479   3.923   0.148
 1423SOL    HW2 4590   1.562   4.050   0.208
 1424SOL     OW 4591   1.303   4.562   0.042
 1424SOL    HW1 4592   1.337   4.469   0.057
 1424SOL    HW2 4593   1.321   4.589  -0.053
 1425SOL     OW 4594   1.068   5.057   0.849
 1425SOL    HW1 4595   1.075   4.973   0.794
 1425SOL    HW2 4596   1.130   5.126   0.813
 1426SOL     OW 4597   0.319   4.534   0.949
 1426SOL    HW1 4598   0.412   4.570   0.954
 1426SOL    HW2 4599   0.313   4.449   1.001
 1427SOL     OW 4600   0.339   4.233   1.006
 1427SOL    HW1 4601   0.287   4.150   0.989
 1427SOL    HW2 4602   0.416   4.238   0.942
 1428SOL     OW 4603   1.138   4.104   1.678
 1428SOL    HW1 4604   1.093   4.167   1.742
 1428SOL    HW2 4605   1.231   4.135   1.661
 1429SOL     OW 4606   1.160   3.931   1.477
 1429SOL    HW1 4607   1.160   3.995   1.554
 1429SOL    HW2 4608   1.188   3.979   1.394
 1430SOL     OW 4609   0.008   5.050   0.200
 1430SOL    HW1 4610  -0.085   5.071   0.169
 1430SOL    HW2 4611   0.018   4.951   0.213
 1431SOL     OW 4612   0.088   5.525   0.927
 1431SOL    HW1 4613   0.046   5.439   0.900
 1431SOL    HW2 4614   0.182   5.528   0.893
 1432SOL     OW 4615   0.504   5.292   0.910
 1432SOL    HW1 4616   0.570   5.366   0.919
 1432SOL    HW2 4617   0.548   5.213   0.868
 1433SOL     OW 4618   1.002   4.520   1.238
 1433SOL    HW1 4619   1.043   4.488   1.324
 1433SOL    HW2 4620   0.906   4.493   1.235
 1434SOL     OW 4621   0.040   4.268   1.114
 1434SOL    HW1 4622   0.125   4.235   1.073
 1434SOL    HW2 4623   0.053   4.283   1.212
 1435SOL     OW 4624   0.189   4.244   1.722
 1435SOL    HW1 4625   0.248   4.204   1.652
 1435SOL    HW2 4626   0.131   4.315   1.681
 1436SOL     OW 4627   1.369   4.674   1.660
 1436SOL    HW1 4628   1.408   4.763   1.680
 1436SOL    HW2 4629   1.379   4.654   1.563
 1437SOL     OW 4630   0.815   4.296   0.325
 1437SOL    HW1 4631   0.822   4.207   0.279
 1437SOL    HW2 4632   0.721   4.330   0.317
 1438SOL     OW 4633   1.657   4.328   1.206
 1438SOL    HW1 4634   1.619   4.259   1.268
 1438SOL    HW2 4635   1.739   4.292   1.162
 1439SOL     OW 4636   0.252   5.288   1.744
 1439SOL    HW1 4637   0.222   5.345   1.820
 1439SOL    HW2 4638   0.245   5.191   1.770
 1440SOL     OW 4639   0.671   4.188   1.269
 1440SOL    HW1 4640   0.637   4.099   1.239
 1440SOL    HW2 4641   0.697   4.242   1.189
 1441SOL     OW 4642   0.930   5.402   1.465
 1441SOL    HW1 4643   0.906   5.384   1.370
 1441SOL    HW2 4644   0.960   5.496   1.475
 1442SOL     OW 4645   0.473   4.224   0.191
 1442SOL    HW1 4646   0.534   4.304   0.195
 1442SOL    HW2 4647   0.378   4.255   0.198
 1443SOL     OW 4648   0.159   4.861   1.466
 1443SOL    HW1 4649   0.181   4.800   1.542
 1443SOL    HW2 4650   0.169   4.812   1.380
 1444SOL     OW 4651   1.347   4.783   1.234
 1444SOL    HW1 4652   1.371   4.720   1.160
 1444SOL    HW2 4653   1.257   4.823   1.216
 1445SOL     OW 4654   1.302   4.579   0.309
 1445SOL    HW1 4655   1.216   4.548   0.351
 1445SOL    HW2 4656   1.298   4.565   0.210
 1446SOL     OW 4657   1.759   5.471   1.154
 1446SOL    HW1 4658   1.820   5.501   1.081
 1446SOL    HW2 4659   1.721   5.382   1.132
 1447SOL     OW 4660   1.252   5.455   1.128
 1447SOL    HW1 4661   1.336   5.460   1.074
 1447SOL    HW2 4662   1.229   5.359   1.146
 1448SOL     OW 4663   0.083   4.982   1.022
 1448SOL    HW1 4664   0.078   4.981   1.122
 1448SOL    HW2 4665   0.000   4.941   0.984
 1449SOL     OW 4666   0.688   5.386   1.716
 1449SOL    HW1 4667   0.632   5.467   1.725
 1449SOL    HW2 4668   0.740   5.390   1.630
 1450SOL     OW 4669   0.903   3.810   0.133
 1450SOL    HW1 4670   0.954   3.811   0.047
 1450SOL    HW2 4671   0.959   3.768   0.204
 1451SOL     OW 4672   1.726   3.859   0.523
 1451SOL    HW1 4673   1.799   3.842   0.456
 1451SOL    HW2 4674   1.695   3.772   0.561
 1452SOL     OW 4675   1.388   5.297   0.477
 1452SOL    HW1 4676   1.455   5.309   0.403
 1452SOL    HW2 4677   1.348   5.386   0.500
 1453SOL     OW 4678   0.130   5.518   1.851
 1453SOL    HW1 4679   0.089   5.444   1.904
 1453SOL    HW2 4680   0.194   5.569   1.909
 1454SOL     OW 4681   1.280   4.651   0.672
 1454SOL    HW1 4682   1.340   4.570   0.674
 1454SOL    HW2 4683   1.320   4.720   0.612
 1455SOL     OW 4684   0.830   4.997   1.422
 1455SOL    HW1 4685   0.825   5.030   1.517
 1455SOL    HW2 4686   0.744   5.016   1.376
 1456SOL     OW 4687   0.672   5.340   0.154
 1456SOL    HW1 4688   0.681   5.350   0.055
 1456SOL    HW2 4689   0.632   5.251   0.175
 1457SOL     OW 4690   1.650   5.444   1.394
 1457SOL    HW1 4691   1.703   5.454   1.310
 1457SOL    HW2 4692   1.623   5.534   1.428
 1458SOL     OW 4693   1.841   3.899   0.963
 1458SOL    HW1 4694   1.880   3.814   0.927
 1458SOL    HW2 4695   1.743   3.901   0.944
 1459SOL     OW 4696   0.263   4.050   0.720
 1459SOL    HW1 4697   0.184   4.101   0.686
 1459SOL    HW2 4698   0.254   4.035   0.818
 1460SOL     OW 4699   1.194   5.336   0.031
 1460SOL    HW1 4700   1.200   5.243   0.068
 1460SOL    HW2 4701   1.135   5.336  -0.049
 1461SOL     OW 4702   0.822   4.726   1.372
 1461SOL    HW1 4703   0.862   4.725   1.280
 1461SOL    HW2 4704   0.832   4.818   1.412
 1462SOL     OW 4705   0.916   4.634   0.291
 1462SOL    HW1 4706   0.979   4.672   0.223
 1462SOL    HW2 4707   0.956   4.551   0.330
 1463SOL     OW 4708   1.504   5.331   0.044
 1463SOL    HW1 4709   1.412   5.368   0.051
 1463SOL    HW2 4710   1.542   5.351  -0.046
 1464SOL     OW 4711   0.372   5.012   1.490
 1464SOL    HW1 4712   0.359   5.105   1.456
 1464SOL    HW2 4713   0.288   4.960   1.477
 1465SOL     OW 4714   1.614   5.016   1.289
 1465SOL    HW1 4715   1.674   5.019   1.369
 1465SOL    HW2 4716   1.539   5.080   1.302
 1466SOL     OW 4717   1.039   4.822   0.696
 1466SOL    HW1 4718   0.969   4.775   0.750
 1466SOL    HW2 4719   1.098   4.754   0.653
 1467SOL     OW 4720   1.014   3.960   0.971
 1467SOL    HW1 4721   1.006   3.924   0.878
 1467SOL    HW2 4722   1.012   3.884   1.036
 1468SOL     OW 4723   0.590   5.211   0.491
 1468SOL    HW1 4724   0.632   5.153   0.421
 1468SOL    HW2 4725   0.546   5.290   0.447
 1469SOL     OW 4726   1.709   4.109   1.381
 1469SOL    HW1 4727   1.782   4.178   1.385
 1469SOL    HW2 4728   1.737   4.034   1.322
 1470SOL     OW 4729   0.255   5.072   0.290
 1470SOL    HW1 4730   0.159   5.073   0.263
 1470SOL    HW2 4731   0.267   5.125   0.374
 1471SOL     OW 4732   0.105   4.737   1.726
 1471SOL    HW1 4733   0.028   4.704   1.780
 1471SOL    HW2 4734   0.190   4.707   1.768
 1472SOL     OW 4735   0.672   3.927   1.489
 1472SOL    HW1 4736   0.762   3.911   1.449
 1472SOL    HW2 4737   0.680   3.932   1.588
 1473SOL     OW 4738   0.075   4.069   0.033
 1473SOL    HW1 4739  -0.017   4.041   0.004
 1473SOL    HW2 4740   0.106   4.146  -0.023
 1474SOL     OW 4741   1.440   4.580   1.398
 1474SOL    HW1 4742   1.383   4.632   1.335
 1474SOL    HW2 4743   1.536   4.592   1.374
 1475SOL     OW 4744   0.072   3.890   0.318
 1475SOL    HW1 4745   0.055   3.973   0.264
 1475SOL    HW2 4746   0.162   3.853   0.296
 1476SOL     OW 4747   1.183   5.059   0.119
 1476SOL    HW1 4748   1.084   5.048   0.121
 1476SOL    HW2 4749   1.217   5.074   0.212
 1477SOL     OW 4750   0.613   4.566   1.431
 1477SOL    HW1 4751   0.669   4.647   1.414
 1477SOL    HW2 4752   0.672   4.486   1.434
 1478SOL     OW 4753   1.493   5.491   0.959
 1478SOL    HW1 4754   1.526   5.555   0.890
 1478SOL    HW2 4755   1.559   5.485   1.034
 1479SOL     OW 4756   0.716   4.289   1.708
 1479SOL    HW1 4757   0.735   4.354   1.782
 1479SOL    HW2 4758   0.776   4.209   1.717
 1480SOL     OW 4759   1.450   4.944   1.633
 1480SOL    HW1 4760   1.441   4.934   1.732
 1480SOL    HW2 4761   1.546   4.937   1.607
 1481SOL     OW 4762   0.390   5.465   1.560
 1481SOL    HW1 4763   0.299   5.506   1.558
 1481SOL    HW2 4764   0.383   5.371   1.592
 1482SOL     OW 4765   1.674   4.607   1.254
 1482SOL    HW1 4766   1.647   4.518   1.217
 1482SOL    HW2 4767   1.675   4.675   1.181
 1483SOL     OW 4768   1.225   4.049   0.449
 1483SOL    HW1 4769   1.290   3.975   0.438
 1483SOL    HW2 4770   1.245   4.099   0.533
 1484SOL     OW 4771   0.594   4.469   0.652
 1484SOL    HW1 4772   0.644   4.554   0.633
 1484SOL    HW2 4773   0.506   4.471   0.604
 1485SOL     OW 4774   1.777   4.066   1.642
 1485SOL    HW1 4775   1.760   4.097   1.548
 1485SOL    HW2 4776   1.693   4.029   1.680
 1486SOL     OW 4777   1.730   4.658   1.517
 1486SOL    HW1 4778   1.768   4.749   1.532
 1486SOL    HW2 4779   1.722   4.641   1.418
 1487SOL     OW 4780   0.859   5.098   0.016
 1487SOL    HW1 4781   0.813   5.113   0.104
 1487SOL    HW2 4782   0.903   5.183  -0.014
 1488SOL     OW 4783   0.661   5.514   0.953
 1488SOL    HW1 4784   0.615   5.602   0.940
 1488SOL    HW2 4785   0.760   5.526   0.946
 1489SOL     OW 4786   0.859   4.680   0.861
 1489SOL    HW1 4787   0.913   4.611   0.909
 1489SOL    HW2 4788   0.827   4.749   0.927
 1490SOL     OW 4789   1.083   4.708   0.087
 1490SOL    HW1 4790   1.060   4.761   0.005
 1490SOL    HW2 4791   1.164   4.652   0.068
 1491SOL     OW 4792   1.861   5.293   0.851
 1491SOL    HW1 4793   1.790   5.281   0.781
 1491SOL    HW2 4794   1.862   5.214   0.911
 1492SOL     OW 4795   0.221   5.038   1.844
 1492SOL    HW1 4796   0.156   4.965   1.823
 1492SOL    HW2 4797   0.225   5.052   1.942
 1493SOL     OW 4798   0.079   4.964   0.653
 1493SOL    HW1 4799   0.078   4.917   0.741
 1493SOL    HW2 4800   0.161   4.936   0.602
 1494SOL     OW 4801   0.672   5.115   1.624
 1494SOL    HW1 4802   0.594   5.065   1.662
 1494SOL    HW2 4803   0.669   5.210   1.655
 1495SOL     OW 4804   1.824   3.916   1.227
 1495SOL    HW1 4805   1.820   3.826   1.271
 1495SOL    HW2 4806   1.827   3.905   1.128
 1496SOL     OW 4807   0.428   4.148   0.520
 1496SOL    HW1 4808   0.458   4.076   0.458
 1496SOL    HW2 4809   0.389   4.108   0.603
 1497SOL     OW 4810   1.705   5.211   1.104
 1497SOL    HW1 4811   1.612   5.186   1.077
 1497SOL    HW2 4812   1.731   5.161   1.186
 1498SOL     OW 4813   0.317   4.271   1.280
 1498SOL    HW1 4814   0.355   4.212   1.352
 1498SOL    HW2 4815   0.357   4.245   1.192
 1499SOL     OW 4816   0.812   5.310   0.687
 1499SOL    HW1 4817   0.844   5.320   0.593
 1499SOL    HW2 4818   0.733   5.248   0.689
 1500SOL     OW 4819   1.424   3.938   1.112
 1500SOL    HW1 4820   1.476   3.873   1.167
 1500SOL    HW2 4821   1.375   4.001   1.173
 1501SOL     OW 4822   1.001   3.758   1.154
 1501SOL    HW1 4823   0.938   3.686   1.123
 1501SOL    HW2 4824   1.094   3.722   1.154
 1502SOL     OW 4825   0.770   5.054   0.301
 1502SOL    HW1 4826   0.724   4.967   0.318
 1502SOL    HW2 4827   0.861   5.051   0.342
 1503SOL     OW 4828   0.618   5.291   1.284
 1503SOL    HW1 4829   0.613   5.373   1.341
 1503SOL    HW2 4830   0.707   5.288   1.239
 1504SOL     OW 4831   1.352   3.776   0.168
 1504SOL    HW1 4832   1.387   3.735   0.084
 1504SOL    HW2 4833   1.262   3.738   0.188
 1505SOL     OW 4834   1.300   4.177   0.691
 1505SOL    HW1 4835   1.241   4.257   0.695
 1505SOL    HW2 4836   1.315   4.142   0.784
 1506SOL     OW 4837   1.593   3.945   0.882
 1506SOL    HW1 4838   1.509   3.944   0.936
 1506SOL    HW2 4839   1.595   4.028   0.826
 1507SOL     OW 4840   0.039   4.801   0.300
 1507SOL    HW1 4841   0.138   4.790   0.291
 1507SOL    HW2 4842  -0.001   4.715   0.332
 1508SOL     OW 4843   0.875   5.370   0.337
 1508SOL    HW1 4844   0.798   5.335   0.283
 1508SOL    HW2 4845   0.843   5.441   0.399
 1509SOL     OW 4846   0.230   4.352   1.975
 1509SOL    HW1 4847   0.137   4.350   2.012
 1509SOL    HW2 4848   0.231   4.313   1.883
 1510SOL     OW 4849   0.225   3.999   2.858
 1510SOL    HW1 4850   0.260   3.982   2.950
 1510SOL    HW2 4851   0.137   3.954   2.846
 1511SOL     OW 4852   0.019   4.092   2.509
 1511SOL    HW1 4853  -0.063   4.135   2.548
 1511SOL    HW2 4854  -0.009   4.019   2.446
 1512SOL     OW 4855   0.569   4.999   3.027
 1512SOL    HW1 4856   0.476   4.992   2.990
 1512SOL    HW2 4857   0.580   5.088   3.071
 1513SOL     OW 4858   1.555   5.235   2.565
 1513SOL    HW1 4859   1.498   5.219   2.646
 1513SOL    HW2 4860   1.496   5.245   2.485
 1514SOL     OW 4861   1.135   4.427   2.579
 1514SOL    HW1 4862   1.192   4.505   2.554
 1514SOL    HW2 4863   1.075   4.453   2.655
 1515SOL     OW 4864   1.755   4.331   2.093
 1515SOL    HW1 4865   1.743   4.318   1.994
 1515SOL    HW2 4866   1.725   4.250   2.142
 1516SOL     OW 4867   0.768   4.868   2.885
 1516SOL    HW1 4868   0.690   4.885   2.945
 1516SOL    HW2 4869   0.802   4.955   2.849
 1517SOL     OW 4870   0.850   4.522   3.685
 1517SOL    HW1 4871   0.846   4.598   3.750
 1517SOL    HW2 4872   0.872   4.558   3.594
 1518SOL     OW 4873   0.685   4.736   2.527
 1518SOL    HW1 4874   0.754   4.720   2.597
 1518SOL    HW2 4875   0.612   4.793   2.565
 1519SOL     OW 4876   0.686   4.885   3.665
 1519SOL    HW1 4877   0.746   4.964   3.679
 1519SOL    HW2 4878   0.600   4.916   3.624
 1520SOL     OW 4879   0.335   5.159   2.923
 1520SOL    HW1 4880   0.257   5.128   2.870
 1520SOL    HW2 4881   0.393   5.217   2.866
 1521SOL     OW 4882   1.460   5.229   3.201
 1521SOL    HW1 4883   1.484   5.323   3.227
 1521SOL    HW2 4884   1.444   5.175   3.283
 1522SOL     OW 4885   0.438   4.116   3.361
 1522SOL    HW1 4886   0.520   4.060   3.370
 1522SOL    HW2 4887   0.357   4.058   3.365
 1523SOL     OW 4888   1.603   4.171   2.599
 1523SOL    HW1 4889   1.529   4.217   2.549
 1523SOL    HW2 4890   1.654   4.239   2.652
 1524SOL     OW 4891   0.231   5.437   2.345
 1524SOL    HW1 4892   0.265   5.514   2.399
 1524SOL    HW2 4893   0.275   5.437   2.255
 1525SOL     OW 4894   1.127   5.065   3.552
 1525SOL    HW1 4895   1.174   5.065   3.640
 1525SOL    HW2 4896   1.079   4.978   3.541
 1526SOL     OW 4897   0.230   5.158   2.400
 1526SOL    HW1 4898   0.204   5.254   2.400
 1526SOL    HW2 4899   0.159   5.104   2.445
 1527SOL     OW 4900   0.240   4.815   2.748
 1527SOL    HW1 4901   0.254   4.731   2.800
 1527SOL    HW2 4902   0.185   4.879   2.803
 1528SOL     OW 4903   0.620   5.510   3.301
 1528SOL    HW1 4904   0.528   5.493   3.336
 1528SOL    HW2 4905   0.648   5.602   3.327
 1529SOL     OW 4906   0.606   4.688   1.985
 1529SOL    HW1 4907   0.613   4.772   1.931
 1529SOL    HW2 4908   0.652   4.701   2.073
 1530SOL     OW 4909   1.594   3.838   3.342
 1530SOL    HW1 4910   1.576   3.905   3.270
 1530SOL    HW2 4911   1.591   3.884   3.431
 1531SOL     OW 4912   0.122   4.367   2.425
 1531SOL    HW1 4913   0.077   4.279   2.442
 1531SOL    HW2 4914   0.121   4.421   2.509
 1532SOL     OW 4915   1.842   5.491   2.221
 1532SOL    HW1 4916   1.896   5.462   2.301
 1532SOL    HW2 4917   1.872   5.581   2.192
 1533SOL     OW 4918   0.027   5.320   1.979
 1533SOL    HW1 4919   0.008   5.224   2.000
 1533SOL    HW2 4920  -0.006   5.378   2.054
 1534SOL     OW 4921   1.689   4.646   2.474
 1534SOL    HW1 4922   1.784   4.617   2.482
 1534SOL    HW2 4923   1.681   4.711   2.399
 1535SOL     OW 4924   1.641   4.832   2.294
 1535SOL    HW1 4925   1.727   4.834   2.242
 1535SOL    HW2 4926   1.655   4.879   2.382
 1536SOL     OW 4927   0.113   4.461   3.459
 1536SOL    HW1 4928   0.201   4.448   3.504
 1536SOL    HW2 4929   0.100   4.558   3.437
 1537SOL     OW 4930   0.613   5.089   2.588
 1537SOL    HW1 4931   0.564   5.002   2.597
 1537SOL    HW2 4932   0.590   5.132   2.501
 1538SOL     OW 4933   1.293   4.952   3.285
 1538SOL    HW1 4934   1.330   4.879   3.227
 1538SOL    HW2 4935   1.345   4.957   3.370
 1539SOL     OW 4936   0.809   3.728   2.364
 1539SOL    HW1 4937   0.849   3.819   2.355
 1539SOL    HW2 4938   0.709   3.736   2.370
 1540SOL     OW 4939   0.197   4.700   3.126
 1540SOL    HW1 4940   0.286   4.655   3.112
 1540SOL    HW2 4941   0.124   4.635   3.107
 1541SOL     OW 4942   1.525   4.723   2.052
 1541SOL    HW1 4943   1.462   4.647   2.065
 1541SOL    HW2 4944   1.573   4.741   2.138
 1542SOL     OW 4945   1.187   5.516   3.478
 1542SOL    HW1 4946   1.211   5.576   3.402
 1542SOL    HW2 4947   1.194   5.421   3.448
 1543SOL     OW 4948   0.317   3.975   3.663
 1543SOL    HW1 4949   0.388   4.046   3.669
 1543SOL    HW2 4950   0.229   4.014   3.691
 1544SOL     OW 4951   1.466   5.141   2.815
 1544SOL    HW1 4952   1.407   5.147   2.895
 1544SOL    HW2 4953   1.451   5.053   2.769
 1545SOL     OW 4954   1.667   5.438   2.434
 1545SOL    HW1 4955   1.626   5.415   2.346
 1545SOL    HW2 4956   1.649   5.364   2.499
 1546SOL     OW 4957   0.598   4.453   2.132
 1546SOL    HW1 4958   0.622   4.522   2.064
 1546SOL    HW2 4959   0.520   4.486   2.186
 1547SOL     OW 4960   1.281   4.069   2.806
 1547SOL    HW1 4961   1.195   4.019   2.793
 1547SOL    HW2 4962   1.343   4.015   2.862
 1548SOL     OW 4963   1.576   5.386   2.169
 1548SOL    HW1 4964   1.665   5.432   2.172
 1548SOL    HW2 4965   1.555   5.362   2.074
 1549SOL     OW 4966   0.807   4.329   3.327
 1549SOL    HW1 4967   0.760   4.326   3.416
 1549SOL    HW2 4968   0.756   4.274   3.261
 1550SOL     OW 4969   1.394   4.193   3.536
 1550SOL    HW1 4970   1.374   4.236   3.624
 1550SOL    HW2 4971   1.472   4.131   3.545
 1551SOL     OW 4972   0.973   4.614   3.434
 1551SOL    HW1 4973   1.019   4.530   3.405
 1551SOL    HW2 4974   0.917   4.648   3.359
 1552SOL     OW 4975   0.991   4.134   3.104
 1552SOL    HW1 4976   0.914   4.168   3.158
 1552SOL    HW2 4977   0.957   4.083   3.025
 1553SOL     OW 4978   1.041   4.425   2.291
 1553SOL    HW1 4979   1.067   4.421   2.387
 1553SOL    HW2 4980   0.956   4.374   2.277
 1554SOL     OW 4981   0.076   4.535   2.651
 1554SOL    HW1 4982   0.175   4.523   2.660
 1554SOL    HW2 4983   0.052   4.630   2.672
 1555SOL     OW 4984   0.130   5.545   3.433
 1555SOL    HW1 4985   0.120   5.530   3.532
 1555SOL    HW2 4986   0.044   5.581   3.397
 1556SOL     OW 4987   0.865   4.072   2.057
 1556SOL    HW1 4988   0.924   4.135   2.008
 1556SOL    HW2 4989   0.884   3.978   2.028
 1557SOL     OW 4990   1.719   4.309   3.693
 1557SOL    HW1 4991   1.693   4.398   3.657
 1557SOL    HW2 4992   1.717   4.241   3.620
 1558SOL     OW 4993   1.362   4.868   2.407
 1558SOL    HW1 4994   1.445   4.839   2.359
 1558SOL    HW2 4995   1.313   4.935   2.351
 1559SOL     OW 4996   0.550   3.920   2.747
 1559SOL    HW1 4997   0.545   3.915   2.847
 1559SOL    HW2 4998   0.552   4.016   2.718
 1560SOL     OW 4999   1.008   5.180   2.339
 1560SOL    HW1 5000   0.962   5.252   2.287
 1560SOL    HW2 5001   1.004   5.200   2.437
 1561SOL     OW 5002   0.351   5.525   2.715
 1561SOL    HW1 5003   0.401   5.439   2.721
 1561SOL    HW2 5004   0.416   5.602   2.712
 1562SOL     OW 5005   1.795   4.790   2.735
 1562SOL    HW1 5006   1.733   4.775   2.659
 1562SOL    HW2 5007   1.743   4.801   2.820
 1563SOL     OW 5008   1.227   5.274   3.368
 1563SOL    HW1 5009   1.233   5.197   3.432
 1563SOL    HW2 5010   1.175   5.248   3.288
 1564SOL     OW 5011   0.321   4.667   2.104
 1564SOL    HW1 5012   0.403   4.706   2.062
 1564SOL    HW2 5013   0.294   4.585   2.055
 1565SOL     OW 5014   1.458   4.459   2.590
 1565SOL    HW1 5015   1.453   4.394   2.665
 1565SOL    HW2 5016   1.538   4.518   2.603
 1566SOL     OW 5017   0.461   4.990   3.589
 1566SOL    HW1 5018   0.411   4.991   3.503
 1566SOL    HW2 5019   0.398   4.972   3.665
 1567SOL     OW 5020   1.111   5.500   2.099
 1567SOL    HW1 5021   1.051   5.438   2.149
 1567SOL    HW2 5022   1.142   5.456   2.014
 1568SOL     OW 5023   0.202   4.009   3.360
 1568SOL    HW1 5024   0.122   4.069   3.347
 1568SOL    HW2 5025   0.192   3.960   3.446
 1569SOL     OW 5026   1.632   5.101   1.943
 1569SOL    HW1 5027   1.600   5.195   1.933
 1569SOL    HW2 5028   1.556   5.038   1.931
 1570SOL     OW 5029   0.464   5.467   2.185
 1570SOL    HW1 5030   0.497   5.506   2.271
 1570SOL    HW2 5031   0.540   5.460   2.120
 1571SOL     OW 5032   1.400   3.831   2.288
 1571SOL    HW1 5033   1.376   3.794   2.198
 1571SOL    HW2 5034   1.499   3.847   2.292
 1572SOL     OW 5035   0.249   5.509   3.103
 1572SOL    HW1 5036   0.306   5.444   3.153
 1572SOL    HW2 5037   0.233   5.476   3.010
 1573SOL     OW 5038   0.940   5.422   2.766
 1573SOL    HW1 5039   1.020   5.365   2.787
 1573SOL    HW2 5040   0.891   5.382   2.689
 1574SOL     OW 5041   0.382   4.424   2.342
 1574SOL    HW1 5042   0.427   4.334   2.339
 1574SOL    HW2 5043   0.288   4.413   2.375
 1575SOL     OW 5044   1.547   3.946   3.591
 1575SOL    HW1 5045   1.542   3.983   3.683
 1575SOL    HW2 5046   1.475   3.877   3.579
 1576SOL     OW 5047   0.614   3.846   1.979
 1576SOL    HW1 5048   0.712   3.824   1.986
 1576SOL    HW2 5049   0.583   3.829   1.886
 1577SOL     OW 5050   0.781   3.988   3.611
 1577SOL    HW1 5051   0.848   3.927   3.654
 1577SOL    HW2 5052   0.708   4.007   3.676
 1578SOL     OW 5053   0.888   5.238   3.057
 1578SOL    HW1 5054   0.865   5.213   2.963
 1578SOL    HW2 5055   0.949   5.169   3.096
 1579SOL     OW 5056   1.351   4.314   3.295
 1579SOL    HW1 5057   1.379   4.271   3.380
 1579SOL    HW2 5058   1.376   4.410   3.296
 1580SOL     OW 5059   0.803   5.126   2.786
 1580SOL    HW1 5060   0.893   5.140   2.744
 1580SOL    HW2 5061   0.732   5.128   2.715
 1581SOL     OW 5062   0.922   4.227   2.761
 1581SOL    HW1 5063   0.897   4.218   2.665
 1581SOL    HW2 5064   0.970   4.145   2.792
 1582SOL     OW 5065   0.539   3.788   2.374
 1582SOL    HW1 5066   0.458   3.789   2.432
 1582SOL    HW2 5067   0.542   3.871   2.319
 1583SOL     OW 5068   1.434   4.912   1.903
 1583SOL    HW1 5069   1.466   4.836   1.960
 1583SOL    HW2 5070   1.342   4.939   1.933
 1584SOL     OW 5071   0.297   3.759   2.033
 1584SOL    HW1 5072   0.346   3.843   2.012
 1584SOL    HW2 5073   0.359   3.694   2.078
 1585SOL     OW 5074   0.935   3.960   2.342
 1585SOL    HW1 5075   0.887   4.001   2.264
 1585SOL    HW2 5076   1.034   3.958   2.323
 1586SOL     OW 5077   1.076   4.407   3.326
 1586SOL    HW1 5078   0.996   4.346   3.329
 1586SOL    HW2 5079   1.157   4.354   3.302
 1587SOL     OW 5080   1.227   5.294   2.655
 1587SOL    HW1 5081   1.248   5.368   2.590
 1587SOL    HW2 5082   1.295   5.294   2.728
 1588SOL     OW 5083   0.459   4.876   2.603
 1588SOL    HW1 5084   0.388   4.849   2.668
 1588SOL    HW2 5085   0.433   4.848   2.510
 1589SOL     OW 5086   1.271   5.521   2.453
 1589SOL    HW1 5087   1.315   5.585   2.389
 1589SOL    HW2 5088   1.221   5.573   2.523
 1590SOL     OW 5089   1.032   4.273   1.878
 1590SOL    HW1 5090   0.991   4.355   1.839
 1590SOL    HW2 5091   1.096   4.299   1.951
 1591SOL     OW 5092   0.078   4.280   3.248
 1591SOL    HW1 5093   0.170   4.279   3.207
 1591SOL    HW2 5094   0.072   4.354   3.315
 1592SOL     OW 5095   0.561   3.946   3.009
 1592SOL    HW1 5096   0.599   3.862   3.046
 1592SOL    HW2 5097   0.473   3.965   3.053
 1593SOL     OW 5098   0.866   4.178   2.504
 1593SOL    HW1 5099   0.834   4.250   2.442
 1593SOL    HW2 5100   0.890   4.097   2.451
 1594SOL     OW 5101   1.017   3.763   2.615
 1594SOL    HW1 5102   0.945   3.768   2.546
 1594SOL    HW2 5103   0.993   3.694   2.684
 1595SOL     OW 5104   1.429   4.897   2.729
 1595SOL    HW1 5105   1.374   4.813   2.722
 1595SOL    HW2 5106   1.455   4.926   2.637
 1596SOL     OW 5107   1.466   4.314   2.854
 1596SOL    HW1 5108   1.436   4.219   2.861
 1596SOL    HW2 5109   1.539   4.330   2.920
 1597SOL     OW 5110   1.857   4.557   2.239
 1597SOL    HW1 5111   1.899   4.493   2.303
 1597SOL    HW2 5112   1.819   4.506   2.161
 1598SOL     OW 5113   0.488   5.109   2.036
 1598SOL    HW1 5114   0.401   5.094   2.083
 1598SOL    HW2 5115   0.471   5.135   1.941
 1599SOL     OW 5116   1.664   5.004   2.519
 1599SOL    HW1 5117   1.763   5.012   2.533
 1599SOL    HW2 5118   1.619   5.088   2.550
 1600SOL     OW 5119   1.390   4.299   1.940
 1600SOL    HW1 5120   1.336   4.278   2.021
 1600SOL    HW2 5121   1.481   4.258   1.949
 1601SOL     OW 5122   0.527   3.980   2.190
 1601SOL    HW1 5123   0.554   3.921   2.115
 1601SOL    HW2 5124   0.527   4.075   2.159
 1602SOL     OW 5125   1.754   4.947   3.450
 1602SOL    HW1 5126   1.845   4.908   3.437
 1602SOL    HW2 5127   1.762   5.043   3.474
 1603SOL     OW 5128   1.064   5.071   3.202
 1603SOL    HW1 5129   0.984   5.048   3.257
 1603SOL    HW2 5130   1.147   5.045   3.251
 1604SOL     OW 5131   1.592   5.353   3.487
 1604SOL    HW1 5132   1.619   5.387   3.397
 1604SOL    HW2 5133   1.671   5.315   3.533
 1605SOL     OW 5134   1.111   4.919   2.962
 1605SOL    HW1 5135   1.071   4.963   3.043
 1605SOL    HW2 5136   1.070   4.956   2.879
 1606SOL     OW 5137   1.638   4.823   2.941
 1606SOL    HW1 5138   1.643   4.904   3.000
 1606SOL    HW2 5139   1.552   4.825   2.890
 1607SOL     OW 5140   0.915   3.813   3.264
 1607SOL    HW1 5141   0.940   3.793   3.169
 1607SOL    HW2 5142   0.987   3.869   3.306
 1608SOL     OW 5143   0.980   4.840   3.581
 1608SOL    HW1 5144   0.881   4.846   3.591
 1608SOL    HW2 5145   1.003   4.760   3.525
 1609SOL     OW 5146   0.705   4.774   2.230
 1609SOL    HW1 5147   0.691   4.781   2.329
 1609SOL    HW2 5148   0.789   4.723   2.212
 1610SOL     OW 5149   0.410   4.537   3.113
 1610SOL    HW1 5150   0.496   4.549   3.163
 1610SOL    HW2 5151   0.368   4.450   3.140
 1611SOL     OW 5152   1.274   4.110   3.124
 1611SOL    HW1 5153   1.295   4.184   3.188
 1611SOL    HW2 5154   1.185   4.127   3.081
 1612SOL     OW 5155   0.064   5.288   3.193
 1612SOL    HW1 5156   0.018   5.370   3.159
 1612SOL    HW2 5157   0.162   5.307   3.202
 1613SOL     OW 5158   0.367   4.824   2.363
 1613SOL    HW1 5159   0.360   4.907   2.307
 1613SOL    HW2 5160   0.371   4.744   2.303
 1614SOL     OW 5161   0.566   4.261   2.727
 1614SOL    HW1 5162   0.578   4.327   2.653
 1614SOL    HW2 5163   0.612   4.295   2.810
 1615SOL     OW 5164   1.252   5.072   2.250
 1615SOL    HW1 5165   1.302   5.149   2.290
 1615SOL    HW2 5166   1.157   5.074   2.282
 1616SOL     OW 5167   1.272   5.169   3.004
 1616SOL    HW1 5168   1.319   5.182   3.091
 1616SOL    HW2 5169   1.206   5.095   3.013
 1617SOL     OW 5170   1.582   4.363   2.334
 1617SOL    HW1 5171   1.551   4.424   2.407
 1617SOL    HW2 5172   1.632   4.415   2.265
 1618SOL     OW 5173   0.354   5.234   3.191
 1618SOL    HW1 5174   0.333   5.190   3.104
 1618SOL    HW2 5175   0.451   5.260   3.194
 1619SOL     OW 5176   0.402   4.475   3.460
 1619SOL    HW1 5177   0.470   4.530   3.413
 1619SOL    HW2 5178   0.442   4.387   3.487
 1620SOL     OW 5179   1.587   4.503   3.532
 1620SOL    HW1 5180   1.495   4.541   3.527
 1620SOL    HW2 5181   1.647   4.550   3.467
 1621SOL     OW 5182   1.013   3.829   3.632
 1621SOL    HW1 5183   1.019   3.914   3.580
 1621SOL    HW2 5184   1.045   3.753   3.575
 1622SOL     OW 5185   0.504   3.774   3.602
 1622SOL    HW1 5186   0.462   3.717   3.532
 1622SOL    HW2 5187   0.438   3.843   3.634
 1623SOL     OW 5188   0.573   4.594   2.891
 1623SOL    HW1 5189   0.617   4.683   2.882
 1623SOL    HW2 5190   0.510   4.594   2.968
 1624SOL     OW 5191   1.360   4.586   2.907
 1624SOL    HW1 5192   1.285   4.586   2.841
 1624SOL    HW2 5193   1.397   4.494   2.916
 1625SOL     OW 5194   1.209   4.249   2.137
 1625SOL    HW1 5195   1.222   4.165   2.191
 1625SOL    HW2 5196   1.180   4.323   2.197
 1626SOL     OW 5197   0.307   3.937   3.093
 1626SOL    HW1 5198   0.284   3.974   3.183
 1626SOL    HW2 5199   0.277   3.842   3.087
 1627SOL     OW 5200   0.037   5.034   3.144
 1627SOL    HW1 5201   0.090   4.985   3.212
 1627SOL    HW2 5202   0.059   5.132   3.149
 1628SOL     OW 5203   0.732   4.358   2.926
 1628SOL    HW1 5204   0.791   4.332   2.850
 1628SOL    HW2 5205   0.704   4.454   2.915
 1629SOL     OW 5206   1.728   4.659   3.716
 1629SOL    HW1 5207   1.682   4.652   3.627
 1629SOL    HW2 5208   1.666   4.703   3.782
 1630SOL     OW 5209   0.307   3.787   2.480
 1630SOL    HW1 5210   0.296   3.881   2.513
 1630SOL    HW2 5211   0.302   3.724   2.557
 1631SOL     OW 5212   1.622   4.091   2.236
 1631SOL    HW1 5213   1.624   4.015   2.300
 1631SOL    HW2 5214   1.574   4.168   2.276
 1632SOL     OW 5215   1.023   4.490   2.828
 1632SOL    HW1 5216   1.038   4.511   2.924
 1632SOL    HW2 5217   0.993   4.395   2.819
 1633SOL     OW 5218   0.980   5.297   3.562
 1633SOL    HW1 5219   0.960   5.341   3.474
 1633SOL    HW2 5220   1.019   5.206   3.546
 1634SOL     OW 5221   1.859   5.242   3.467
 1634SOL    HW1 5222   1.873   5.269   3.372
 1634SOL    HW2 5223   1.942   5.264   3.520
 1635SOL     OW 5224   0.350   4.622   3.666
 1635SOL    HW1 5225   0.426   4.666   3.714
 1635SOL    HW2 5226   0.385   4.575   3.584
 1636SOL     OW 5227   1.540   3.998   1.987
 1636SOL    HW1 5228   1.479   3.923   2.010
 1636SOL    HW2 5229   1.562   4.050   2.070
 1637SOL     OW 5230   1.303   4.562   1.904
 1637SOL    HW1 5231   1.337   4.469   1.919
 1637SOL    HW2 5232   1.321   4.589   1.809
 1638SOL     OW 5233   1.068   5.057   2.711
 1638SOL    HW1 5234   1.075   4.973   2.656
 1638SOL    HW2 5235   1.130   5.126   2.675
 1639SOL     OW 5236   0.319   4.534   2.811
 1639SOL    HW1 5237   0.412   4.570   2.816
 1639SOL    HW2 5238   0.313   4.449   2.863
 1640SOL     OW 5239   0.339   4.233   2.868
 1640SOL    HW1 5240   0.287   4.150   2.851
 1640SOL    HW2 5241   0.416   4.238   2.804
 1641SOL     OW 5242   1.138   4.104   3.540
 1641SOL    HW1 5243   1.093   4.167   3.604
 1641SOL    HW2 5244   1.231   4.135   3.523
 1642SOL     OW 5245   1.160   3.931   3.339
 1642SOL    HW1 5246   1.160   3.995   3.416
 1642SOL    HW2 5247   1.188   3.979   3.256
 1643SOL     OW 5248   0.008   5.050   2.062
 1643SOL    HW1 5249  -0.085   5.071   2.031
 1643SOL    HW2 5250   0.018   4.951   2.075
 1644SOL     OW 5251   0.088   5.525   2.789
 1644SOL    HW1 5252   0.046   5.439   2.762
 1644SOL    HW2 5253   0.182   5.528   2.755
 1645SOL     OW 5254   0.504   5.292   2.772
 1645SOL    HW1 5255   0.570   5.366   2.781
 1645SOL    HW2 5256   0.548   5.213   2.730
 1646SOL     OW 5257   1.002   4.520   3.100
 1646SOL    HW1 5258   1.043   4.488   3.186
 1646SOL    HW2 5259   0.906   4.493   3.097
 1647SOL     OW 5260   0.040   4.268   2.976
 1647SOL    HW1 5261   0.125   4.235   2.935
 1647SOL    HW2 5262   0.053   4.283   3.074
 1648SOL     OW 5263   0.189   4.244   3.584
 1648SOL    HW1 5264   0.248   4.204   3.514
 1648SOL    HW2 5265   0.131   4.315   3.543
 1649SOL     OW 5266   1.369   4.674   3.522
 1649SOL    HW1 5267   1.408   4.763   3.542
 1649SOL    HW2 5268   1.379   4.654   3.425
 1650SOL     OW 5269   0.815   4.296   2.187
 1650SOL    HW1 5270   0.822   4.207   2.141
 1650SOL    HW2 5271   0.721   4.330   2.179
 1651SOL     OW 5272   1.657   4.328   3.068
 1651SOL    HW1 5273   1.619   4.259   3.130
 1651SOL    HW2 5274   1.739   4.292   3.024
 1652SOL     OW 5275   0.252   5.288   3.606
 1652SOL    HW1 5276   0.222   5.345   3.682
 1652SOL    HW2 5277   0.245   5.191   3.632
 1653SOL     OW 5278   0.671   4.188   3.131
 1653SOL    HW1 5279   0.637   4.099   3.101
 1653SOL    HW2 5280   0.697   4.242   3.051
 1654SOL     OW 5281   0.930   5.402   3.327
 1654SOL    HW1 5282   0.906   5.384   3.232
 1654SOL    HW2 5283   0.960   5.496   3.337
 1655SOL     OW 5284   0.473   4.224   2.053
 1655SOL    HW1 5285   0.534   4.304   2.057
 1655SOL    HW2 5286   0.378   4.255   2.060
 1656SOL     OW 5287   0.159   4.861   3.328
 1656SOL    HW1 5288   0.181   4.800   3.404
 1656SOL    HW2 5289   0.169   4.812   3.242
 1657SOL     OW 5290   1.347   4.783   3.096
 1657SOL    HW1 5291   1.371   4.720   3.022
 1657SOL    HW2 5292   1.257   4.823   3.078
 1658SOL     OW 5293   1.302   4.579   2.171
 1658SOL    HW1 5294   1.216   4.548   2.213
 1658SOL    HW2 5295   1.298   4.565   2.072
 1659SOL     OW 5296   1.759   5.471   3.016
 1659SOL    HW1 5297   1.820   5.501   2.943
 1659SOL    HW2 5298   1.721   5.382   2.994
 1660SOL     OW 5299   1.252   5.455   2.990
 1660SOL    HW1 5300   1.336   5.460   2.936
 1660SOL    HW2 5301   1.229   5.359   3.008
 1661SOL     OW 5302   0.083   4.982   2.884
 1661SOL    HW1 5303   0.078   4.981   2.984
 1661SOL    HW2 5304   0.000   4.941   2.846
 1662SOL     OW 5305   0.688   5.386   3.578
 1662SOL    HW1 5306   0.632   5.467   3.587
 1662SOL    HW2 5307   0.740   5.390   3.492
 1663SOL     OW 5308   1.726   3.859   2.385
 1663SOL    HW1 5309   1.799   3.842   2.318
 1663SOL    HW2 5310   1.695   3.772   2.423
 1664SOL     OW 5311   1.388   5.297   2.339
 1664SOL    HW1 5312   1.455   5.309   2.265
 1664SOL    HW2 5313   1.348   5.386   2.362
 1665SOL     OW 5314   0.130   5.518   3.713
 1665SOL    HW1 5315   0.089   5.444   3.766
 1665SOL    HW2 5316   0.194   5.569   3.771
 1666SOL     OW 5317   1.280   4.651   2.534
 1666SOL    HW1 5318   1.340   4.570   2.536
 1666SOL    HW2 5319   1.320   4.720   2.474
 1667SOL     OW 5320   0.830   4.997   3.284
 1667SOL    HW1 5321   0.825   5.030   3.379
 1667SOL    HW2 5322   0.744   5.016   3.238
 1668SOL     OW 5323   0.672   5.340   2.016
 1668SOL    HW1 5324   0.681   5.350   1.917
 1668SOL    HW2 5325   0.632   5.251   2.037
 1669SOL     OW 5326   1.650   5.444   3.256
 1669SOL    HW1 5327   1.703   5.454   3.172
 1669SOL    HW2 5328   1.623   5.534   3.290
 1670SOL     OW 5329   1.841   3.899   2.825
 1670SOL    HW1 5330   1.880   3.814   2.789
 1670SOL    HW2 5331   1.743   3.901   2.806
 1671SOL     OW 5332   0.263   4.050   2.582
 1671SOL    HW1 5333   0.184   4.101   2.548
 1671SOL    HW2 5334   0.254   4.035   2.680
 1672SOL     OW 5335   1.194   5.336   1.893
 1672SOL    HW1 5336   1.200   5.243   1.930
 1672SOL    HW2 5337   1.135   5.336   1.813
 1673SOL     OW 5338   0.822   4.726   3.234
 1673SOL    HW1 5339   0.862   4.725   3.142
 1673SOL    HW2 5340   0.832   4.818   3.274
 1674SOL     OW 5341   0.916   4.634   2.153
 1674SOL    HW1 5342   0.979   4.672   2.085
 1674SOL    HW2 5343   0.956   4.551   2.192
 1675SOL     OW 5344   1.504   5.331   1.906
 1675SOL    HW1 5345   1.412   5.368   1.913
 1675SOL    HW2 5346   1.542   5.351   1.816
 1676SOL     OW 5347   0.372   5.012   3.352
 1676SOL    HW1 5348   0.359   5.105   3.318
 1676SOL    HW2 5349   0.288   4.960   3.339
 1677SOL     OW 5350   1.614   5.016   3.151
 1677SOL    HW1 5351   1.674   5.019   3.231
 1677SOL    HW2 5352   1.539   5.080   3.164
 1678SOL     OW 5353   1.039   4.822   2.558
 1678SOL    HW1 5354   0.969   4.775   2.612
 1678SOL    HW2 5355   1.098   4.754   2.515
 1679SOL     OW 5356   1.014   3.960   2.833
 1679SOL    HW1 5357   1.006   3.924   2.740
 1679SOL    HW2 5358   1.012   3.884   2.898
 1680SOL     OW 5359   0.590   5.211   2.353
 1680SOL    HW1 5360   0.632   5.153   2.283
 1680SOL    HW2 5361   0.546   5.290   2.309
 1681SOL     OW 5362   1.709   4.109   3.243
 1681SOL    HW1 5363   1.782   4.178   3.247
 1681SOL    HW2 5364   1.737   4.034   3.184
 1682SOL     OW 5365   0.255   5.072   2.152
 1682SOL    HW1 5366   0.159   5.073   2.125
 1682SOL    HW2 5367   0.267   5.125   2.236
 1683SOL     OW 5368   0.105   4.737   3.588
 1683SOL    HW1 5369   0.028   4.704   3.642
 1683SOL    HW2 5370   0.190   4.707   3.630
 1684SOL     OW 5371   0.672   3.927   3.351
 1684SOL    HW1 5372   0.762   3.911   3.311
 1684SOL    HW2 5373   0.680   3.932   3.450
 1685SOL     OW 5374   0.075   4.069   1.895
 1685SOL    HW1 5375  -0.017   4.041   1.866
 1685SOL    HW2 5376   0.106   4.146   1.839
 1686SOL     OW 5377   1.440   4.580   3.260
 1686SOL    HW1 5378   1.383   4.632   3.197
 1686SOL    HW2 5379   1.536   4.592   3.236
 1687SOL     OW 5380   0.072   3.890   2.180
 1687SOL    HW1 5381   0.055   3.973   2.126
 1687SOL    HW2 5382   0.162   3.853   2.158
 1688SOL     OW 5383   1.183   5.059   1.981
 1688SOL    HW1 5384   1.084   5.048   1.983
 1688SOL    HW2 5385   1.217   5.074   2.074
 1689SOL     OW 5386   0.613   4.566   3.293
 1689SOL    HW1 5387   0.669   4.647   3.276
 1689SOL    HW2 5388   0.672   4.486   3.296
 1690SOL     OW 5389   1.493   5.491   2.821
 1690SOL    HW1 5390   1.526   5.555   2.752
 1690SOL    HW2 5391   1.559   5.485   2.896
 1691SOL     OW 5392   0.716   4.289   3.570
 1691SOL    HW1 5393   0.735   4.354   3.644
 1691SOL    HW2 5394   0.776   4.209   3.579
 1692SOL     OW 5395   1.450   4.944   3.495
 1692SOL    HW1 5396   1.441   4.934   3.594
 1692SOL    HW2 5397   1.546   4.937   3.469
 1693SOL     OW 5398   0.390   5.465   3.422
 1693SOL    HW1 5399   0.299   5.506   3.420
 1693SOL    HW2 5400   0.383   5.371   3.454
 1694SOL     OW 5401   1.674   4.607   3.116
 1694SOL    HW1 5402   1.647   4.518   3.079
 1694SOL    HW2 5403   1.675   4.675   3.043
 1695SOL     OW 5404   1.225   4.049   2.311
 1695SOL    HW1 5405   1.290   3.975   2.300
 1695SOL    HW2 5406   1.245   4.099   2.395
 1696SOL     OW 5407   0.594   4.469   2.514
 1696SOL    HW1 5408   0.644   4.554   2.495
 1696SOL    HW2 5409   0.506   4.471   2.466
 1697SOL     OW 5410   1.777   4.066   3.504
 1697SOL    HW1 5411   1.760   4.097   3.410
 1697SOL    HW2 5412   1.693   4.029   3.542
 1698SOL     OW 5413   1.730   4.658   3.379
 1698SOL    HW1 5414   1.768   4.749   3.394
 1698SOL    HW2 5415   1.722   4.641   3.280
 1699SOL     OW 5416   0.859   5.098   1.878
 1699SOL    HW1 5417   0.813   5.113   1.966
 1699SOL    HW2 5418   0.903   5.183   1.848
 1700SOL     OW 5419   0.661   5.514   2.815
 1700SOL    HW1 5420   0.615   5.602   2.802
 1700SOL    HW2 5421   0.760   5.526   2.808
 1701SOL     OW 5422   0.859   4.680   2.723
 1701SOL    HW1 5423   0.913   4.611   2.771
 1701SOL    HW2 5424   0.827   4.749   2.789
 1702SOL     OW 5425   1.083   4.708   1.949
 1702SOL    HW1 5426   1.060   4.761   1.867
 1702SOL    HW2 5427   1.164   4.652   1.930
 1703SOL     OW 5428   1.861   5.293   2.713
 1703SOL    HW1 5429   1.790   5.281   2.643
 1703SOL    HW2 5430   1.862   5.214   2.773
 1704SOL     OW 5431   0.221   5.038   3.706
 1704SOL    HW1 5432   0.156   4.965   3.685
 1704SOL    HW2 5433   0.225   5.052   3.804
 1705SOL     OW 5434   0.079   4.964   2.515
 1705SOL    HW1 5435   0.078   4.917   2.603
 1705SOL    HW2 5436   0.161   4.936   2.464
 1706SOL     OW 5437   0.672   5.115   3.486
 1706SOL    HW1 5438   0.594   5.065   3.524
 1706SOL    HW2 5439   0.669   5.210   3.517
 1707SOL     OW 5440   1.824   3.916   3.089
 1707SOL    HW1 5441   1.820   3.826   3.133
 1707SOL    HW2 5442   1.827   3.905   2.990
 1708SOL     OW 5443   0.428   4.148   2.382
 1708SOL    HW1 5444   0.458   4.076   2.320
 1708SOL    HW2 5445   0.389   4.108   2.465
 1709SOL     OW 5446   1.705   5.211   2.966
 1709SOL    HW1 5447   1.612   5.186   2.939
 1709SOL    HW2 5448   1.731   5.161   3.048
 1710SOL     OW 5449   0.317   4.271   3.142
 1710SOL    HW1 5450   0.355   4.212   3.214
 1710SOL    HW2 5451   0.357   4.245   3.054
 1711SOL     OW 5452   0.812   5.310   2.549
 1711SOL    HW1 5453   0.844   5.320   2.455
 1711SOL    HW2 5454   0.733   5.248   2.551
 1712SOL     OW 5455   1.424   3.938   2.974
 1712SOL    HW1 5456   1.476   3.873   3.029
 1712SOL    HW2 5457   1.375   4.001   3.035
 1713SOL     OW 5458   1.001   3.758   3.016
 1713SOL    HW1 5459   0.938   3.686   2.985
 1713SOL    HW2 5460   1.094   3.722   3.016
 1714SOL     OW 5461   0.770   5.054   2.163
 1714SOL    HW1 5462   0.724   4.967   2.180
 1714SOL    HW2 5463   0.861   5.051   2.204
 1715SOL     OW 5464   0.618   5.291   3.146
 1715SOL    HW1 5465   0.613   5.373   3.203
 1715SOL    HW2 5466   0.707   5.288   3.101
 1716SOL     OW 5467   1.352   3.776   2.030
 1716SOL    HW1 5468   1.387   3.735   1.946
 1716SOL    HW2 5469   1.262   3.738   2.050
 1717SOL     OW 5470   1.300   4.177   2.553
 1717SOL    HW1 5471   1.241   4.257   2.557
 1717SOL    HW2 5472   1.315   4.142   2.646
 1718SOL     OW 5473   1.593   3.945   2.744
 1718SOL    HW1 5474   1.509   3.944   2.798
 1718SOL    HW2 5475   1.595   4.028   2.688
 1719SOL     OW 5476   0.039   4.801   2.162
 1719SOL    HW1 5477   0.138   4.790   2.153
 1719SOL    HW2 5478  -0.001   4.715   2.194
 1720SOL     OW 5479   0.875   5.370   2.199
 1720SOL    HW1 5480   0.798   5.335   2.145
 1720SOL    HW2 5481   0.843   5.441   2.261
 1721SOL     OW 5482   0.230   4.352   3.837
 1721SOL    HW1 5483   0.137   4.350   3.874
 1721SOL    HW2 5484   0.231   4.313   3.745
 1722SOL     OW 5485   0.225   3.999   4.720
 1722SOL    HW1 5486   0.260   3.982   4.812
 1722SOL    HW2 5487   0.137   3.954   4.708
 1723SOL     OW 5488   0.019   4.092   4.371
 1723SOL    HW1 5489  -0.063   4.135   4.410
 1723SOL    HW2 5490  -0.009   4.019   4.308
 1724SOL     OW 5491   0.569   4.999   4.889
 1724SOL    HW1 5492   0.476   4.992   4.852
 1724SOL    HW2 5493   0.580   5.088   4.933
 1725SOL     OW 5494   1.555   5.235   4.427
 1725SOL    HW1 5495   1.498   5.219   4.508
 1725SOL    HW2 5496   1.496   5.245   4.347
 1726SOL     OW 5497   1.135   4.427   4.441
 1726SOL    HW1 5498   1.192   4.505   4.416
 1726SOL    HW2 5499   1.075   4.453   4.517
 1727SOL     OW 5500   1.755   4.331   3.955
 1727SOL    HW1 5501   1.743   4.318   3.856
 1727SOL    HW2 5502   1.725   4.250   4.004
 1728SOL     OW 5503   0.768   4.868   4.747
 1728SOL    HW1 5504   0.690   4.885   4.807
 1728SOL    HW2 5505   0.802   4.955   4.711
 1729SOL     OW 5506   0.850   4.522   5.547
 1729SOL    HW1 5507   0.846   4.598   5.612
 1729SOL    HW2 5508   0.872   4.558   5.456
 1730SOL     OW 5509   0.685   4.736   4.389
 1730SOL    HW1 5510   0.754   4.720   4.459
 1730SOL    HW2 5511   0.612   4.793   4.427
 1731SOL     OW 5512   0.686   4.885   5.527
 1731SOL    HW1 5513   0.746   4.964   5.541
 1731SOL    HW2 5514   0.600   4.916   5.486
 1732SOL     OW 5515   0.335   5.159   4.785
 1732SOL    HW1 5516   0.257   5.128   4.732
 1732SOL    HW2 5517   0.393   5.217   4.728
 1733SOL     OW 5518   1.460   5.229   5.063
 1733SOL    HW1 5519   1.484   5.323   5.089
 1733SOL    HW2 5520   1.444   5.175   5.145
 1734SOL     OW 5521   0.438   4.116   5.223
 1734SOL    HW1 5522   0.520   4.060   5.232
 1734SOL    HW2 5523   0.357   4.058   5.227
 1735SOL     OW 5524   1.603   4.171   4.461
 1735SOL    HW1 5525   1.529   4.217   4.411
 1735SOL    HW2 5526   1.654   4.239   4.514
 1736SOL     OW 5527   0.231   5.437   4.207
 1736SOL    HW1 5528   0.265   5.514   4.261
 1736SOL    HW2 5529   0.275   5.437   4.117
 1737SOL     OW 5530   1.127   5.065   5.414
 1737SOL    HW1 5531   1.174   5.065   5.502
 1737SOL    HW2 5532   1.079   4.978   5.403
 1738SOL     OW 5533   0.230   5.158   4.262
 1738SOL    HW1 5534   0.204   5.254   4.262
 1738SOL    HW2 5535   0.159   5.104   4.307
 1739SOL     OW 5536   0.240   4.815   4.610
 1739SOL    HW1 5537   0.254   4.731   4.662
 1739SOL    HW2 5538   0.185   4.879   4.665
 1740SOL     OW 5539   0.620   5.510   5.163
 1740SOL    HW1 5540   0.528   5.493   5.198
 1740SOL    HW2 5541   0.648   5.602   5.189
 1741SOL     OW 5542   0.606   4.688   3.847
 1741SOL    HW1 5543   0.613   4.772   3.793
 1741SOL    HW2 5544   0.652   4.701   3.935
 1742SOL     OW 5545   1.594   3.838   5.204
 1742SOL    HW1 5546   1.576   3.905   5.132
 1742SOL    HW2 5547   1.591   3.884   5.293
 1743SOL     OW 5548   0.122   4.367   4.287
 1743SOL    HW1 5549   0.077   4.279   4.304
 1743SOL    HW2 5550   0.121   4.421   4.371
 1744SOL     OW 5551   1.842   5.491   4.083
 1744SOL    HW1 5552   1.896   5.462   4.163
 1744SOL    HW2 5553   1.872   5.581   4.054
 1745SOL     OW 5554   0.027   5.320   3.841
 1745SOL    HW1 5555   0.008   5.224   3.862
 1745SOL    HW2 5556  -0.006   5.378   3.916
 1746SOL     OW 5557   1.689   4.646   4.336
 1746SOL    HW1 5558   1.784   4.617   4.344
 1746SOL    HW2 5559   1.681   4.711   4.261
 1747SOL     OW 5560   1.641   4.832   4.156
 1747SOL    HW1 5561   1.727   4.834   4.104
 1747SOL    HW2 5562   1.655   4.879   4.244
 1748SOL     OW 5563   0.113   4.461   5.321
 1748SOL    HW1 5564   0.201   4.448   5.366
 1748SOL    HW2 5565   0.100   4.558   5.299
 1749SOL     OW 5566   0.613   5.089   4.450
 1749SOL    HW1 5567   0.564   5.002   4.459
 1749SOL    HW2 5568   0.590   5.132   4.363
 1750SOL     OW 5569   1.293   4.952   5.147
 1750SOL    HW1 5570   1.330   4.879   5.089
 1750SOL    HW2 5571   1.345   4.957   5.232
 1751SOL     OW 5572   0.809   3.728   4.226
 1751SOL    HW1 5573   0.849   3.819   4.217
 1751SOL    HW2 5574   0.709   3.736   4.232
 1752SOL     OW 5575   0.197   4.700   4.988
 1752SOL    HW1 5576   0.286   4.655   4.974
 1752SOL    HW2 5577   0.124   4.635   4.969
 1753SOL     OW 5578   1.525   4.723   3.914
 1753SOL    HW1 5579   1.462   4.647   3.927
 1753SOL    HW2 5580   1.573   4.741   4.000
 1754SOL     OW 5581   1.187   5.516   5.340
 1754SOL    HW1 5582   1.211   5.576   5.264
 1754SOL    HW2 5583   1.194   5.421   5.310
 1755SOL     OW 5584   0.317   3.975   5.525
 1755SOL    HW1 5585   0.388   4.046   5.531
 1755SOL    HW2 5586   0.229   4.014   5.553
 1756SOL     OW 5587   1.466   5.141   4.677
 1756SOL    HW1 5588   1.407   5.147   4.757
 1756SOL    HW2 5589   1.451   5.053   4.631
 1757SOL     OW 5590   1.667   5.438   4.296
 1757SOL    HW1 5591   1.626   5.415   4.208
 1757SOL    HW2 5592   1.649   5.364   4.361
 1758SOL     OW 5593   0.598   4.453   3.994
 1758SOL    HW1 5594   0.622   4.522   3.926
 1758SOL    HW2 5595   0.520   4.486   4.048
 1759SOL     OW 5596   1.281   4.069   4.668
 1759SOL    HW1 5597   1.195   4.019   4.655
 1759SOL    HW2 5598   1.343   4.015   4.724
 1760SOL     OW 5599   1.576   5.386   4.031
 1760SOL    HW1 5600   1.665   5.432   4.034
 1760SOL    HW2 5601   1.555   5.362   3.936
 1761SOL     OW 5602   0.807   4.329   5.189
 1761SOL    HW1 5603   0.760   4.326   5.278
 1761SOL    HW2 5604   0.756   4.274   5.123
 1762SOL     OW 5605   1.394   4.193   5.398
 1762SOL    HW1 5606   1.374   4.236   5.486
 1762SOL    HW2 5607   1.472   4.131   5.407
 1763SOL     OW 5608   0.973   4.614   5.296
 1763SOL    HW1 5609   1.019   4.530   5.267
 1763SOL    HW2 5610   0.917   4.648   5.221
 1764SOL     OW 5611   0.991   4.134   4.966
 1764SOL    HW1 5612   0.914   4.168   5.020
 1764SOL    HW2 5613   0.957   4.083   4.887
 1765SOL     OW 5614   1.041   4.425   4.153
 1765SOL    HW1 5615   1.067   4.421   4.249
 1765SOL    HW2 5616   0.956   4.374   4.139
 1766SOL     OW 5617   0.076   4.535   4.513
 1766SOL    HW1 5618   0.175   4.523   4.522
 1766SOL    HW2 5619   0.052   4.630   4.534
 1767SOL     OW 5620   0.130   5.545   5.295
 1767SOL    HW1 5621   0.120   5.530   5.394
 1767SOL    HW2 5622   0.044   5.581   5.259
 1768SOL     OW 5623   0.865   4.072   3.919
 1768SOL    HW1 5624   0.924   4.135   3.870
 1768SOL    HW2 5625   0.884   3.978   3.890
 1769SOL     OW 5626   1.719   4.309   5.555
 1769SOL    HW1 5627   1.693   4.398   5.519
 1769SOL    HW2 5628   1.717   4.241   5.482
 1770SOL     OW 5629   1.362   4.868   4.269
 1770SOL    HW1 5630   1.445   4.839   4.221
 1770SOL    HW2 5631   1.313   4.935   4.213
 1771SOL     OW 5632   0.550   3.920   4.609
 1771SOL    HW1 5633   0.545   3.915   4.709
 1771SOL    HW2 5634   0.552   4.016   4.580
 1772SOL     OW 5635   1.008   5.180   4.201
 1772SOL    HW1 5636   0.962   5.252   4.149
 1772SOL    HW2 5637   1.004   5.200   4.299
 1773SOL     OW 5638   0.351   5.525   4.577
 1773SOL    HW1 5639   0.401   5.439   4.583
 1773SOL    HW2 5640   0.416   5.602   4.574
 1774SOL     OW 5641   1.795   4.790   4.597
 1774SOL    HW1 5642   1.733   4.775   4.521
 1774SOL    HW2 5643   1.743   4.801   4.682
 1775SOL     OW 5644   1.227   5.274   5.230
 1775SOL    HW1 5645   1.233   5.197   5.294
 1775SOL    HW2 5646   1.175   5.248   5.150
 1776SOL     OW 5647   0.321   4.667   3.966
 1776SOL    HW1 5648   0.403   4.706   3.924
 1776SOL    HW2 5649   0.294   4.585   3.917
 1777SOL     OW 5650   1.458   4.459   4.452
 1777SOL    HW1 5651   1.453   4.394   4.527
 1777SOL    HW2 5652   1.538   4.518   4.465
 1778SOL     OW 5653   0.461   4.990   5.451
 1778SOL    HW1 5654   0.411   4.991   5.365
 1778SOL    HW2 5655   0.398   4.972   5.527
 1779SOL     OW 5656   1.111   5.500   3.961
 1779SOL    HW1 5657   1.051   5.438   4.011
 1779SOL    HW2 5658   1.142   5.456   3.876
 1780SOL     OW 5659   0.202   4.009   5.222
 1780SOL    HW1 5660   0.122   4.069   5.209
 1780SOL    HW2 5661   0.192   3.960   5.308
 1781SOL     OW 5662   1.632   5.101   3.805
 1781SOL    HW1 5663   1.600   5.195   3.795
 1781SOL    HW2 5664   1.556   5.038   3.793
 1782SOL     OW 5665   0.464   5.467   4.047
 1782SOL    HW1 5666   0.497   5.506   4.133
 1782SOL    HW2 5667   0.540   5.460   3.982
 1783SOL     OW 5668   1.400   3.831   4.150
 1783SOL    HW1 5669   1.376   3.794   4.060
 1783SOL    HW2 5670   1.499   3.847   4.154
 1784SOL     OW 5671   0.249   5.509   4.965
 1784SOL    HW1 5672   0.306   5.444   5.015
 1784SOL    HW2 5673   0.233   5.476   4.872
 1785SOL     OW 5674   0.940   5.422   4.628
 1785SOL    HW1 5675   1.020   5.365   4.649
 1785SOL    HW2 5676   0.891   5.382   4.551
 1786SOL     OW 5677   0.382   4.424   4.204
 1786SOL    HW1 5678   0.427   4.334   4.201
 1786SOL    HW2 5679   0.288   4.413   4.237
 1787SOL     OW 5680   1.547   3.946   5.453
 1787SOL    HW1 5681   1.542   3.983   5.545
 1787SOL    HW2 5682   1.475   3.877   5.441
 1788SOL     OW 5683   0.614   3.846   3.841
 1788SOL    HW1 5684   0.712   3.824   3.848
 1788SOL    HW2 5685   0.583   3.829   3.748
 1789SOL     OW 5686   0.781   3.988   5.473
 1789SOL    HW1 5687   0.848   3.927   5.516
 1789SOL    HW2 5688   0.708   4.007   5.538
 1790SOL     OW 5689   0.888   5.238   4.919
 1790SOL    HW1 5690   0.865   5.213   4.825
 1790SOL    HW2 5691   0.949   5.169   4.958
 1791SOL     OW 5692   1.351   4.314   5.157
 1791SOL    HW1 5693   1.379   4.271   5.242
 1791SOL    HW2 5694   1.376   4.410   5.158
 1792SOL     OW 5695   0.803   5.126   4.648
 1792SOL    HW1 5696   0.893   5.140   4.606
 1792SOL    HW2 5697   0.732   5.128   4.577
 1793SOL     OW 5698   0.922   4.227   4.623
 1793SOL    HW1 5699   0.897   4.218   4.527
 1793SOL    HW2 5700   0.970   4.145   4.654
 1794SOL     OW 5701   0.539   3.788   4.236
 1794SOL    HW1 5702   0.458   3.789   4.294
 1794SOL    HW2 5703   0.542   3.871   4.181
 1795SOL     OW 5704   1.434   4.912   3.765
 1795SOL    HW1 5705   1.466   4.836   3.822
 1795SOL    HW2 5706   1.342   4.939   3.795
 1796SOL     OW 5707   0.297   3.759   3.895
 1796SOL    HW1 5708   0.346   3.843   3.874
 1796SOL    HW2 5709   0.359   3.694   3.940
 1797SOL     OW 5710   0.935   3.960   4.204
 1797SOL    HW1 5711   0.887   4.001   4.126
 1797SOL    HW2 5712   1.034   3.958   4.185
 1798SOL     OW 5713   1.076   4.407   5.188
 1798SOL    HW1 5714   0.996   4.346   5.191
 1798SOL    HW2 5715   1.157   4.354   5.164
 1799SOL     OW 5716   1.227   5.294   4.517
 1799SOL    HW1 5717   1.248   5.368   4.452
 1799SOL    HW2 5718   1.295   5.294   4.590
 1800SOL     OW 5719   0.459   4.876   4.465
 1800SOL    HW1 5720   0.388   4.849   4.530
 1800SOL    HW2 5721   0.433   4.848   4.372
 1801SOL     OW 5722   1.271   5.521   4.315
 1801SOL    HW1 5723   1.315   5.585   4.251
 1801SOL    HW2 5724   1.221   5.573   4.385
 1802SOL     OW 5725   1.032   4.273   3.740
 1802SOL    HW1 5726   0.991   4.355   3.701
 1802SOL    HW2 5727   1.096   4.299   3.813
 1803SOL     OW 5728   0.078   4.280   5.110
 1803SOL    HW1 5729   0.170   4.279   5.069
 1803SOL    HW2 5730   0.072   4.354   5.177
 1804SOL     OW 5731   0.561   3.946   4.871
 1804SOL    HW1 5732   0.599   3.862   4.908
 1804SOL    HW2 5733   0.473   3.965   4.915
 1805SOL     OW 5734   0.866   4.178   4.366
 1805SOL    HW1 5735   0.834   4.250   4.304
 1805SOL    HW2 5736   0.890   4.097   4.313
 1806SOL     OW 5737   1.017   3.763   4.477
 1806SOL    HW1 5738   0.945   3.768   4.408
 1806SOL    HW2 5739   0.993   3.694   4.546
 1807SOL     OW 5740   1.429   4.897   4.591
 1807SOL    HW1 5741   1.374   4.813   4.584
 1807SOL    HW2 5742   1.455   4.926   4.499
 1808SOL     OW 5743   1.466   4.314   4.716
 1808SOL    HW1 5744   1.436   4.219   4.723
 1808SOL    HW2 5745   1.539   4.330   4.782
 1809SOL     OW 5746   1.857   4.557   4.101
 1809SOL    HW1 5747   1.899   4.493   4.165
 1809SOL    HW2 5748   1.819   4.506   4.023
 1810SOL     OW 5749   0.488   5.109   3.898
 1810SOL    HW1 5750   0.401   5.094   3.945
 1810SOL    HW2 5751   0.471   5.135   3.803
 1811SOL     OW 5752   1.664   5.004   4.381
 1811SOL    HW1 5753   1.763   5.012   4.395
 1811SOL    HW2 5754   1.619   5.088   4.412
 1812SOL     OW 5755   1.390   4.299   3.802
 1812SOL    HW1 5756   1.336   4.278   3.883
 1812SOL    HW2 5757   1.481   4.258   3.811
 1813SOL     OW 5758   0.527   3.980   4.052
 1813SOL    HW1 5759   0.554   3.921   3.977
 1813SOL    HW2 5760   0.527   4.075   4.021
 1814SOL     OW 5761   1.754   4.947   5.312
 1814SOL    HW1 5762   1.845   4.908   5.299
 1814SOL    HW2 5763   1.762   5.043   5.336
 1815SOL     OW 5764   1.064   5.071   5.064
 1815SOL    HW1 5765   0.984   5.048   5.119
 1815SOL    HW2 5766   1.147   5.045   5.113
 1816SOL     OW 5767   1.592   5.353   5.349
 1816SOL    HW1 5768   1.619   5.387   5.259
 1816SOL    HW2 5769   1.671   5.315   5.395
 1817SOL     OW 5770   1.111   4.919   4.824
 1817SOL    HW1 5771   1.071   4.963   4.905
 1817SOL    HW2 5772   1.070   4.956   4.741
 1818SOL     OW 5773   1.638   4.823   4.803
 1818SOL    HW1 5774   1.643   4.904   4.862
 1818SOL    HW2 5775   1.552   4.825   4.752
 1819SOL     OW 5776   0.915   3.813   5.126
 1819SOL    HW1 5777   0.940   3.793   5.031
 1819SOL    HW2 5778   0.987   3.869   5.168
 1820SOL     OW 5779   0.980   4.840   5.443
 1820SOL    HW1 5780   0.881   4.846   5.453
 1820SOL    HW2 5781   1.003   4.760   5.387
 1821SOL     OW 5782   0.705   4.774   4.092
 1821SOL    HW1 5783   0.691   4.781   4.191
 1821SOL    HW2 5784   0.789   4.723   4.074
 1822SOL     OW 5785   0.410   4.537   4.975
 1822SOL    HW1 5786   0.496   4.549   5.025
 1822SOL    HW2 5787   0.368   4.450   5.002
 1823SOL     OW 5788   1.274   4.110   4.986
 1823SOL    HW1 5789   1.295   4.184   5.050
 1823SOL    HW2 5790   1.185   4.127   4.943
 1824SOL     OW 5791   0.064   5.288   5.055
 1824SOL    HW1 5792   0.018   5.370   5.021
 1824SOL    HW2 5793   0.162   5.307   5.064
 1825SOL     OW 5794   0.367   4.824   4.225
 1825SOL    HW1 5795   0.360   4.907   4.169
 1825SOL    HW2 5796   0.371   4.744   4.165
 1826SOL     OW 5797   0.566   4.261   4.589
 1826SOL    HW1 5798   0.578   4.327   4.515
 1826SOL    HW2 5799   0.612   4.295   4.672
 1827SOL     OW 5800   1.252   5.072   4.112
 1827SOL    HW1 5801   1.302   5.149   4.152
 1827SOL    HW2 5802   1.157   5.074   4.144
 1828SOL     OW 5803   1.272   5.169   4.866
 1828SOL    HW1 5804   1.319   5.182   4.953
 1828SOL    HW2 5805   1.206   5.095   4.875
 1829SOL     OW 5806   1.582   4.363   4.196
 1829SOL    HW1 5807   1.551   4.424   4.269
 1829SOL    HW2 5808   1.632   4.415   4.127
 1830SOL     OW 5809   0.354   5.234   5.053
 1830SOL    HW1 5810   0.333   5.190   4.966
 1830SOL    HW2 5811   0.451   5.260   5.056
 1831SOL     OW 5812   0.402   4.475   5.322
 1831SOL    HW1 5813   0.470   4.530   5.275
 1831SOL    HW2 5814   0.442   4.387   5.349
 1832SOL     OW 5815   1.587   4.503   5.394
 1832SOL    HW1 5816   1.495   4.541   5.389
 1832SOL    HW2 5817   1.647   4.550   5.329
 1833SOL     OW 5818   1.013   3.829   5.494
 1833SOL    HW1 5819   1.019   3.914   5.442
 1833SOL    HW2 5820   1.045   3.753   5.437
 1834SOL     OW 5821   0.504   3.774   5.464
 1834SOL    HW1 5822   0.462   3.717   5.394
 1834SOL    HW2 5823   0.438   3.843   5.496
 1835SOL     OW 5824   0.573   4.594   4.753
 1835SOL    HW1 5825   0.617   4.683   4.744
 1835SOL    HW2 5826   0.510   4.594   4.830
 1836SOL     OW 5827   1.360   4.586   4.769
 1836SOL    HW1 5828   1.285   4.586   4.703
 1836SOL    HW2 5829   1.397   4.494   4.778
 1837SOL     OW 5830   1.209   4.249   3.999
 1837SOL    HW1 5831   1.222   4.165   4.053
 1837SOL    HW2 5832   1.180   4.323   4.059
 1838SOL     OW 5833   0.307   3.937   4.955
 1838SOL    HW1 5834   0.284   3.974   5.045
 1838SOL    HW2 5835   0.277   3.842   4.949
 1839SOL     OW 5836   0.037   5.034   5.006
 1839SOL    HW1 5837   0.090   4.985   5.074
 1839SOL    HW2 5838   0.059   5.132   5.011
 1840SOL     OW 5839   0.732   4.358   4.788
 1840SOL    HW1 5840   0.791   4.332   4.712
 1840SOL    HW2 5841   0.704   4.454   4.777
 1841SOL     OW 5842   1.728   4.659   5.578
 1841SOL    HW1 5843   1.682   4.652   5.489
 1841SOL    HW2 5844   1.666   4.703   5.644
 1842SOL     OW 5845   0.307   3.787   4.342
 1842SOL    HW1 5846   0.296   3.881   4.375
 1842SOL    HW2 5847   0.302   3.724   4.419
 1843SOL     OW 5848   1.622   4.091   4.098
 1843SOL    HW1 5849   1.624   4.015   4.162
 1843SOL    HW2 5850   1.574   4.168   4.138
 1844SOL     OW 5851   1.023   4.490   4.690
 1844SOL    HW1 5852   1.038   4.511   4.786
 1844SOL    HW2 5853   0.993   4.395   4.681
 1845SOL     OW 5854   0.980   5.297   5.424
 1845SOL    HW1 5855   0.960   5.341   5.336
 1845SOL    HW2 5856   1.019   5.206   5.408
 1846SOL     OW 5857   1.859   5.242   5.329
 1846SOL    HW1 5858   1.873   5.269   5.234
 1846SOL    HW2 5859   1.942   5.264   5.382
 1847SOL     OW 5860   0.350   4.622   5.528
 1847SOL    HW1 5861   0.426   4.666   5.576
 1847SOL    HW2 5862   0.385   4.575   5.446
 1848SOL     OW 5863   1.540   3.998   3.849
 1848SOL    HW1 5864   1.479   3.923   3.872
 1848SOL    HW2 5865   1.562   4.050   3.932
 1849SOL     OW 5866   1.303   4.562   3.766
 1849SOL    HW1 5867   1.337   4.469   3.781
 1849SOL    HW2 5868   1.321   4.589   3.671
 1850SOL     OW 5869   1.068   5.057   4.573
 1850SOL    HW1 5870   1.075   4.973   4.518
 1850SOL    HW2 5871   1.130   5.126   4.537
 1851SOL     OW 5872   0.319   4.534   4.673
 1851SOL    HW1 5873   0.412   4.570   4.678
 1851SOL    HW2 5874   0.313   4.449   4.725
 1852SOL     OW 5875   0.339   4.233   4.730
 1852SOL    HW1 5876   0.287   4.150   4.713
 1852SOL    HW2 5877   0.416   4.238   4.666
 1853SOL     OW 5878   1.138   4.104   5.402
 1853SOL    HW1 5879   1.093   4.167   5.466
 1853SOL    HW2 5880   1.231   4.135   5.385
 1854SOL     OW 5881   1.160   3.931   5.201
 1854SOL    HW1 5882   1.160   3.995   5.278
 1854SOL    HW2 5883   1.188   3.979   5.118
 1855SOL     OW 5884   0.008   5.050   3.924
 1855SOL    HW1 5885  -0.085   5.071   3.893
 1855SOL    HW2 5886   0.018   4.951   3.937
 1856SOL     OW 5887   0.088   5.525   4.651
 1856SOL    HW1 5888   0.046   5.439   4.624
 1856SOL    HW2 5889   0.182   5.528   4.617
 1857SOL     OW 5890   0.504   5.292   4.634
 1857SOL    HW1 5891   0.570   5.366   4.643
 1857SOL    HW2 5892   0.548   5.213   4.592
 1858SOL     OW 5893   1.002   4.520   4.962
 1858SOL    HW1 5894   1.043   4.488   5.048
 1858SOL    HW2 5895   0.906   4.493   4.959
 1859SOL     OW 5896   0.040   4.268   4.838
 1859SOL    HW1 5897   0.125   4.235   4.797
 1859SOL    HW2 5898   0.053   4.283   4.936
 1860SOL     OW 5899   0.189   4.244   5.446
 1860SOL    HW1 5900   0.248   4.204   5.376
 1860SOL    HW2 5901   0.131   4.315   5.405
 1861SOL     OW 5902   1.369   4.674   5.384
 1861SOL    HW1 5903   1.408   4.763   5.404
 1861SOL    HW2 5904   1.379   4.654   5.287
 1862SOL     OW 5905   0.815   4.296   4.049
 1862SOL    HW1 5906   0.822   4.207   4.003
 1862SOL    HW2 5907   0.721   4.330   4.041
 1863SOL     OW 5908   1.657   4.328   4.930
 1863SOL    HW1 5909   1.619   4.259   4.992
 1863SOL    HW2 5910   1.739   4.292   4.886
 1864SOL     OW 5911   0.252   5.288   5.468
 1864SOL    HW1 5912   0.222   5.345   5.544
 1864SOL    HW2 5913   0.245   5.191   5.494
 1865SOL     OW 5914   0.671   4.188   4.993
 1865SOL    HW1 5915   0.637   4.099   4.963
 1865SOL    HW2 5916   0.697   4.242   4.913
 1866SOL     OW 5917   0.930   5.402   5.189
 1866SOL    HW1 5918   0.906   5.384   5.094
 1866SOL    HW2 5919   0.960   5.496   5.199
 1867SOL     OW 5920   0.473   4.224   3.915
 1867SOL    HW1 5921   0.534   4.304   3.919
 1867SOL    HW2 5922   0.378   4.255   3.922
 1868SOL     OW 5923   0.159   4.861   5.190
 1868SOL    HW1 5924   0.181   4.800   5.266
 1868SOL    HW2 5925   0.169   4.812   5.104
 1869SOL     OW 5926   1.347   4.783   4.958
 1869SOL    HW1 5927   1.371   4.720   4.884
 1869SOL    HW2 5928   1.257   4.823   4.940
 1870SOL     OW 5929   1.302   4.579   4.033
 1870SOL    HW1 5930   1.216   4.548   4.075
 1870SOL    HW2 5931   1.298   4.565   3.934
 1871SOL     OW 5932   1.759   5.471   4.878
 1871SOL    HW1 5933   1.820   5.501   4.805
 1871SOL    HW2 5934   1.721   5.382   4.856
 1872SOL     OW 5935   1.252   5.455   4.852
 1872SOL    HW1 5936   1.336   5.460   4.798
 1872SOL    HW2 5937   1.229   5.359   4.870
 1873SOL     OW 5938   0.083   4.982   4.746
 1873SOL    HW1 5939   0.078   4.981   4.846
 1873SOL    HW2 5940   0.000   4.941   4.708
 1874SOL     OW 5941   0.688   5.386   5.440
 1874SOL    HW1 5942   0.632   5.467   5.449
 1874SOL    HW2 5943   0.740   5.390   5.354
 1875SOL     OW 5944   1.726   3.859   4.247
 1875SOL    HW1 5945   1.799   3.842   4.180
 1875SOL    HW2 5946   1.695   3.772   4.285
 1876SOL     OW 5947   1.388   5.297   4.201
 1876SOL    HW1 5948   1.455   5.309   4.127
 1876SOL    HW2 5949   1.348   5.386   4.224
 1877SOL     OW 5950   0.130   5.518   5.575
 1877SOL    HW1 5951   0.089   5.444   5.628
 1877SOL    HW2 5952   0.194   5.569   5.633
 1878SOL     OW 5953   1.280   4.651   4.396
 1878SOL    HW1 5954   1.340   4.570   4.398
 1878SOL    HW2 5955   1.320   4.720   4.336
 1879SOL     OW 5956   0.830   4.997   5.146
 1879SOL    HW1 5957   0.825   5.030   5.241
 1879SOL    HW2 5958   0.744   5.016   5.100
 1880SOL     OW 5959   0.672   5.340   3.878
 1880SOL    HW1 5960   0.681   5.350   3.779
 1880SOL    HW2 5961   0.632   5.251   3.899
 1881SOL     OW 5962   1.650   5.444   5.118
 1881SOL    HW1 5963   1.703   5.454   5.034
 1881SOL    HW2 5964   1.623   5.534   5.152
 1882SOL     OW 5965   1.841   3.899   4.687
 1882SOL    HW1 5966   1.880   3.814   4.651
 1882SOL    HW2 5967   1.743   3.901   4.668
 1883SOL     OW 5968   0.263   4.050   4.444
 1883SOL    HW1 5969   0.184   4.101   4.410
 1883SOL    HW2 5970   0.254   4.035   4.542
 1884SOL     OW 5971   1.194   5.336   3.755
 1884SOL    HW1 5972   1.200   5.243   3.792
 1884SOL    HW2 5973   1.135   5.336   3.675
 1885SOL     OW 5974   0.822   4.726   5.096
 1885SOL    HW1 5975   0.862   4.725   5.004
 1885SOL    HW2 5976   0.832   4.818   5.136
 1886SOL     OW 5977   0.916   4.634   4.015
 1886SOL    HW1 5978   0.979   4.672   3.947
 1886SOL    HW2 5979   0.956   4.551   4.054
 1887SOL     OW 5980   1.504   5.331   3.768
 1887SOL    HW1 5981   1.412   5.368   3.775
 1887SOL    HW2 5982   1.542   5.351   3.678
 1888SOL     OW 5983   0.372   5.012   5.214
 1888SOL    HW1 5984   0.359   5.105   5.180
 1888SOL    HW2 5985   0.288   4.960   5.201
 1889SOL     OW 5986   1.614   5.016   5.013
 1889SOL    HW1 5987   1.674   5.019   5.093
 1889SOL    HW2 5988   1.539   5.080   5.026
 1890SOL     OW 5989   1.039   4.822   4.420
 1890SOL    HW1 5990   0.969   4.775   4.474
 1890SOL    HW2 5991   1.098   4.754   4.377
 1891SOL     OW 5992   1.014   3.960   4.695
 1891SOL    HW1 5993   1.006   3.924   4.602
 1891SOL    HW2 5994   1.012   3.884   4.760
 1892SOL     OW 5995   0.590   5.211   4.215
 1892SOL    HW1 5996   0.632   5.153   4.145
 1892SOL    HW2 5997   0.546   5.290   4.171
 1893SOL     OW 5998   1.709   4.109   5.105
 1893SOL    HW1 5999   1.782   4.178   5.109
 1893SOL    HW2 6000   1.737   4.034   5.046
 1894SOL     OW 6001   0.255   5.072   4.014
 1894SOL    HW1 6002   0.159   5.073   3.987
 1894SOL    HW2 6003   0.267   5.125   4.098
 1895SOL     OW 6004   0.105   4.737   5.450
 1895SOL    HW1 6005   0.028   4.704   5.504
 1895SOL    HW2 6006   0.190   4.707   5.492
 1896SOL     OW 6007   0.672   3.927   5.213
 1896SOL    HW1 6008   0.762   3.911   5.173
 1896SOL    HW2 6009   0.680   3.932   5.312
 1897SOL     OW 6010   0.075   4.069   3.757
 1897SOL    HW1 6011  -0.017   4.041   3.728
 1897SOL    HW2 6012   0.106   4.146   3.701
 1898SOL     OW 6013   1.440   4.580   5.122
 1898SOL    HW1 6014   1.383   4.632   5.059
 1898SOL    HW2 6015   1.536   4.592   5.098
 1899SOL     OW 6016   0.072   3.890   4.042
 1899SOL    HW1 6017   0.055   3.973   3.988
 1899SOL    HW2 6018   0.162   3.853   4.020
 1900SOL     OW 6019   1.183   5.059   3.843
 1900SOL    HW1 6020   1.084   5.048   3.845
 1900SOL    HW2 6021   1.217   5.074   3.936
 1901SOL     OW 6022   0.613   4.566   5.155
 1901SOL    HW1 6023   0.669   4.647   5.138
 1901SOL    HW2 6024   0.672   4.486   5.158
 1902SOL     OW 6025   1.493   5.491   4.683
 1902SOL    HW1 6026   1.526   5.555   4.614
 1902SOL    HW2 6027   1.559   5.485   4.758
 1903SOL     OW 6028   0.716   4.289   5.432
 1903SOL    HW1 6029   0.735   4.354   5.506
 1903SOL    HW2 6030   0.776   4.209   5.441
 1904SOL     OW 6031   1.450   4.944   5.357
 1904SOL    HW1 6032   1.441   4.934   5.456
 1904SOL    HW2 6033   1.546   4.937   5.331
 1905SOL     OW 6034   0.390   5.465   5.284
 1905SOL    HW1 6035   0.299   5.506   5.282
 1905SOL    HW2 6036   0.383   5.371   5.316
 1906SOL     OW 6037   1.674   4.607   4.978
 1906SOL    HW1 6038   1.647   4.518   4.941
 1906SOL    HW2 6039   1.675   4.675   4.905
 1907SOL     OW 6040   1.225   4.049   4.173
 1907SOL    HW1 6041   1.290   3.975   4.162
 1907SOL    HW2 6042   1.245   4.099   4.257
 1908SOL     OW 6043   0.594   4.469   4.376
 1908SOL    HW1 6044   0.644   4.554   4.357
 1908SOL    HW2 6045   0.506   4.471   4.328
 1909SOL     OW 6046   1.777   4.066   5.366
 1909SOL    HW1 6047   1.760   4.097   5.272
 1909SOL    HW2 6048   1.693   4.029   5.404
 1910SOL     OW 6049   1.730   4.658   5.241
 1910SOL    HW1 6050   1.768   4.749   5.256
 1910SOL    HW2 6051   1.722   4.641   5.142
 1911SOL     OW 6052   0.859   5.098   3.740
 1911SOL    HW1 6053   0.813   5.113   3.828
 1911SOL    HW2 6054   0.903   5.183   3.710
 1912SOL     OW 6055   0.661   5.514   4.677
 1912SOL    HW1 6056   0.615   5.602   4.664
 1912SOL    HW2 6057   0.760   5.526   4.670
 1913SOL     OW 6058   0.859   4.680   4.585
 1913SOL    HW1 6059   0.913   4.611   4.633
 1913SOL    HW2 6060   0.827   4.749   4.651
 1914SOL     OW 6061   1.083   4.708   3.811
 1914SOL    HW1 6062   1.060   4.761   3.729
 1914SOL    HW2 6063   1.164   4.652   3.792
 1915SOL     OW 6064   1.861   5.293   4.575
 1915SOL    HW1 6065   1.790   5.281   4.505
 1915SOL    HW2 6066   1.862   5.214   4.635
 1916SOL     OW 6067   0.221   5.038   5.568
 1916SOL    HW1 6068   0.156   4.965   5.547
 1916SOL    HW2 6069   0.225   5.052   5.666
 1917SOL     OW 6070   0.079   4.964   4.377
 1917SOL    HW1 6071   0.078   4.917   4.465
 1917SOL    HW2 6072   0.161   4.936   4.326
 1918SOL     OW 6073   0.672   5.115   5.348
 1918SOL    HW1 6074   0.594   5.065   5.386
 1918SOL    HW2 6075   0.669   5.210   5.379
 1919SOL     OW 6076   1.824   3.916   4.951
 1919SOL    HW1 6077   1.820   3.826   4.995
 1919SOL    HW2 6078   1.827   3.905   4.852
 1920SOL     OW 6079   0.428   4.148   4.244
 1920SOL    HW1 6080   0.458   4.076   4.182
 1920SOL    HW2 6081   0.389   4.108   4.327
 1921SOL     OW 6082   1.705   5.211   4.828
 1921SOL    HW1 6083   1.612   5.186   4.801
 1921SOL    HW2 6084   1.731   5.161   4.910
 1922SOL     OW 6085   0.317   4.271   5.004
 1922SOL    HW1 6086   0.355   4.212   5.076
 1922SOL    HW2 6087   0.357   4.245   4.916
 1923SOL     OW 6088   0.812   5.310   4.411
 1923SOL    HW1 6089   0.844   5.320   4.317
 1923SOL    HW2 6090   0.733   5.248   4.413
 1924SOL     OW 6091   1.424   3.938   4.836
 1924SOL    HW1 6092   1.476   3.873   4.891
 1924SOL    HW2 6093   1.375   4.001   4.897
 1925SOL     OW 6094   1.001   3.758   4.878
 1925SOL    HW1 6095   0.938   3.686   4.847
 1925SOL    HW2 6096   1.094   3.722   4.878
 1926SOL     OW 6097   0.770   5.054   4.025
 1926SOL    HW1 6098   0.724   4.967   4.042
 1926SOL    HW2 6099   0.861   5.051   4.066
 1927SOL     OW 6100   0.618   5.291   5.008
 1927SOL    HW1 6101   0.613   5.373   5.065
 1927SOL    HW2 6102   0.707   5.288   4.963
 1928SOL     OW 6103   1.352   3.776   3.892
 1928SOL    HW1 6104   1.387   3.735   3.808
 1928SOL    HW2 6105   1.262   3.738   3.912
 1929SOL     OW 6106   1.300   4.177   4.415
 1929SOL    HW1 6107   1.241   4.257   4.419
 1929SOL    HW2 6108   1.315   4.142   4.508
 1930SOL     OW 6109   1.593   3.945   4.606
 1930SOL    HW1 6110   1.509   3.944   4.660
 1930SOL    HW2 6111   1.595   4.028   4.550
 1931SOL     OW 6112   0.039   4.801   4.024
 1931SOL    HW1 6113   0.138   4.790   4.015
 1931SOL    HW2 6114  -0.001   4.715   4.056
 1932SOL     OW 6115   0.875   5.370   4.061
 1932SOL    HW1 6116   0.798   5.335   4.007
 1932SOL    HW2 6117   0.843   5.441   4.123
 1933SOL     OW 6118   2.092   0.628   0.113
 1933SOL    HW1 6119   1.999   0.626   0.150
 1933SOL    HW2 6120   2.093   0.589   0.021
 1934SOL     OW 6121   2.087   0.275   0.996
 1934SOL    HW1 6122   2.122   0.258   1.088
 1934SOL    HW2 6123   1.999   0.230   0.984
 1935SOL     OW 6124   1.881   0.368   0.647
 1935SOL    HW1 6125   1.799   0.411   0.686
 1935SOL    HW2 6126   1.853   0.295   0.584
 1936SOL     OW 6127   2.431   1.275   1.165
 1936SOL    HW1 6128   2.338   1.268   1.128
 1936SOL    HW2 6129   2.442   1.364   1.209
 1937SOL     OW 6130   3.417   1.511   0.703
 1937SOL    HW1 6131   3.360   1.495   0.784
 1937SOL    HW2 6132   3.358   1.521   0.623
 1938SOL     OW 6133   2.997   0.703   0.717
 1938SOL    HW1 6134   3.054   0.781   0.692
 1938SOL    HW2 6135   2.937   0.729   0.793
 1939SOL     OW 6136   3.617   0.607   0.231
 1939SOL    HW1 6137   3.605   0.594   0.132
 1939SOL    HW2 6138   3.587   0.526   0.280
 1940SOL     OW 6139   2.630   1.144   1.023
 1940SOL    HW1 6140   2.552   1.161   1.083
 1940SOL    HW2 6141   2.664   1.231   0.987
 1941SOL     OW 6142   2.712   0.798   1.823
 1941SOL    HW1 6143   2.708   0.874   1.888
 1941SOL    HW2 6144   2.734   0.834   1.732
 1942SOL     OW 6145   2.547   1.012   0.665
 1942SOL    HW1 6146   2.616   0.996   0.735
 1942SOL    HW2 6147   2.474   1.069   0.703
 1943SOL     OW 6148   2.548   1.161   1.803
 1943SOL    HW1 6149   2.608   1.240   1.817
 1943SOL    HW2 6150   2.462   1.192   1.762
 1944SOL     OW 6151   2.197   1.435   1.061
 1944SOL    HW1 6152   2.119   1.404   1.008
 1944SOL    HW2 6153   2.255   1.493   1.004
 1945SOL     OW 6154   3.322   1.505   1.339
 1945SOL    HW1 6155   3.346   1.599   1.365
 1945SOL    HW2 6156   3.306   1.451   1.421
 1946SOL     OW 6157   2.300   0.392   1.499
 1946SOL    HW1 6158   2.382   0.336   1.508
 1946SOL    HW2 6159   2.219   0.334   1.503
 1947SOL     OW 6160   3.465   0.447   0.737
 1947SOL    HW1 6161   3.391   0.493   0.687
 1947SOL    HW2 6162   3.516   0.515   0.790
 1948SOL     OW 6163   2.093   1.713   0.483
 1948SOL    HW1 6164   2.127   1.790   0.537
 1948SOL    HW2 6165   2.137   1.713   0.393
 1949SOL     OW 6166   2.989   1.341   1.690
 1949SOL    HW1 6167   3.036   1.341   1.778
 1949SOL    HW2 6168   2.941   1.254   1.679
 1950SOL     OW 6169   2.092   1.434   0.538
 1950SOL    HW1 6170   2.066   1.530   0.538
 1950SOL    HW2 6171   2.021   1.380   0.583
 1951SOL     OW 6172   2.102   1.091   0.886
 1951SOL    HW1 6173   2.116   1.007   0.938
 1951SOL    HW2 6174   2.047   1.155   0.941
 1952SOL     OW 6175   2.482   1.786   1.439
 1952SOL    HW1 6176   2.390   1.769   1.474
 1952SOL    HW2 6177   2.510   1.878   1.465
 1953SOL     OW 6178   2.468   0.964   0.123
 1953SOL    HW1 6179   2.475   1.048   0.069
 1953SOL    HW2 6180   2.514   0.977   0.211
 1954SOL     OW 6181   3.456   0.114   1.480
 1954SOL    HW1 6182   3.438   0.181   1.408
 1954SOL    HW2 6183   3.453   0.160   1.569
 1955SOL     OW 6184   1.984   0.643   0.563
 1955SOL    HW1 6185   1.939   0.555   0.580
 1955SOL    HW2 6186   1.983   0.697   0.647
 1956SOL     OW 6187   3.704   1.767   0.359
 1956SOL    HW1 6188   3.758   1.738   0.439
 1956SOL    HW2 6189   3.734   1.857   0.330
 1957SOL     OW 6190   1.889   1.596   0.117
 1957SOL    HW1 6191   1.870   1.500   0.138
 1957SOL    HW2 6192   1.856   1.654   0.192
 1958SOL     OW 6193   3.551   0.922   0.612
 1958SOL    HW1 6194   3.646   0.893   0.620
 1958SOL    HW2 6195   3.543   0.987   0.537
 1959SOL     OW 6196   3.503   1.108   0.432
 1959SOL    HW1 6197   3.589   1.110   0.380
 1959SOL    HW2 6198   3.517   1.155   0.520
 1960SOL     OW 6199   1.975   0.737   1.597
 1960SOL    HW1 6200   2.063   0.724   1.642
 1960SOL    HW2 6201   1.962   0.834   1.575
 1961SOL     OW 6202   2.475   1.365   0.726
 1961SOL    HW1 6203   2.426   1.278   0.735
 1961SOL    HW2 6204   2.452   1.408   0.639
 1962SOL     OW 6205   3.155   1.228   1.423
 1962SOL    HW1 6206   3.192   1.155   1.365
 1962SOL    HW2 6207   3.207   1.233   1.508
 1963SOL     OW 6208   2.671   0.004   0.502
 1963SOL    HW1 6209   2.711   0.095   0.493
 1963SOL    HW2 6210   2.571   0.012   0.508
 1964SOL     OW 6211   2.059   0.976   1.264
 1964SOL    HW1 6212   2.148   0.931   1.250
 1964SOL    HW2 6213   1.986   0.911   1.245
 1965SOL     OW 6214   3.387   0.999   0.190
 1965SOL    HW1 6215   3.324   0.923   0.203
 1965SOL    HW2 6216   3.435   1.017   0.276
 1966SOL     OW 6217   3.049   1.792   1.616
 1966SOL    HW1 6218   3.073   1.852   1.540
 1966SOL    HW2 6219   3.056   1.697   1.586
 1967SOL     OW 6220   2.179   0.251   1.801
 1967SOL    HW1 6221   2.250   0.322   1.807
 1967SOL    HW2 6222   2.091   0.290   1.829
 1968SOL     OW 6223   3.328   1.417   0.953
 1968SOL    HW1 6224   3.269   1.423   1.033
 1968SOL    HW2 6225   3.313   1.329   0.907
 1969SOL     OW 6226   3.529   1.714   0.572
 1969SOL    HW1 6227   3.488   1.691   0.484
 1969SOL    HW2 6228   3.511   1.640   0.637
 1970SOL     OW 6229   2.460   0.729   0.270
 1970SOL    HW1 6230   2.484   0.798   0.202
 1970SOL    HW2 6231   2.382   0.762   0.324
 1971SOL     OW 6232   3.143   0.345   0.944
 1971SOL    HW1 6233   3.057   0.295   0.931
 1971SOL    HW2 6234   3.205   0.291   1.000
 1972SOL     OW 6235   3.438   1.662   0.307
 1972SOL    HW1 6236   3.527   1.708   0.310
 1972SOL    HW2 6237   3.417   1.638   0.212
 1973SOL     OW 6238   2.669   0.605   1.465
 1973SOL    HW1 6239   2.622   0.602   1.554
 1973SOL    HW2 6240   2.618   0.550   1.399
 1974SOL     OW 6241   3.256   0.469   1.674
 1974SOL    HW1 6242   3.236   0.512   1.762
 1974SOL    HW2 6243   3.334   0.407   1.683
 1975SOL     OW 6244   2.835   0.890   1.572
 1975SOL    HW1 6245   2.881   0.806   1.543
 1975SOL    HW2 6246   2.779   0.924   1.497
 1976SOL     OW 6247   2.853   0.410   1.242
 1976SOL    HW1 6248   2.776   0.444   1.296
 1976SOL    HW2 6249   2.819   0.359   1.163
 1977SOL     OW 6250   2.903   0.701   0.429
 1977SOL    HW1 6251   2.929   0.697   0.525
 1977SOL    HW2 6252   2.818   0.650   0.415
 1978SOL     OW 6253   1.938   0.811   0.789
 1978SOL    HW1 6254   2.037   0.799   0.798
 1978SOL    HW2 6255   1.914   0.906   0.810
 1979SOL     OW 6256   1.992   1.821   1.571
 1979SOL    HW1 6257   1.982   1.806   1.670
 1979SOL    HW2 6258   1.906   1.857   1.535
 1980SOL     OW 6259   2.727   0.348   0.195
 1980SOL    HW1 6260   2.786   0.411   0.146
 1980SOL    HW2 6261   2.746   0.254   0.166
 1981SOL     OW 6262   3.581   0.585   1.831
 1981SOL    HW1 6263   3.555   0.674   1.795
 1981SOL    HW2 6264   3.579   0.517   1.758
 1982SOL     OW 6265   3.224   1.144   0.545
 1982SOL    HW1 6266   3.307   1.115   0.497
 1982SOL    HW2 6267   3.175   1.211   0.489
 1983SOL     OW 6268   2.412   0.196   0.885
 1983SOL    HW1 6269   2.407   0.191   0.985
 1983SOL    HW2 6270   2.414   0.292   0.856
 1984SOL     OW 6271   2.870   1.456   0.477
 1984SOL    HW1 6272   2.824   1.528   0.425
 1984SOL    HW2 6273   2.866   1.476   0.575
 1985SOL     OW 6274   2.213   1.801   0.853
 1985SOL    HW1 6275   2.263   1.715   0.859
 1985SOL    HW2 6276   2.278   1.878   0.850
 1986SOL     OW 6277   3.657   1.066   0.873
 1986SOL    HW1 6278   3.595   1.051   0.797
 1986SOL    HW2 6279   3.605   1.077   0.958
 1987SOL     OW 6280   3.089   1.550   1.506
 1987SOL    HW1 6281   3.095   1.473   1.570
 1987SOL    HW2 6282   3.037   1.524   1.426
 1988SOL     OW 6283   2.183   0.943   0.242
 1988SOL    HW1 6284   2.265   0.982   0.200
 1988SOL    HW2 6285   2.156   0.861   0.193
 1989SOL     OW 6286   3.320   0.735   0.728
 1989SOL    HW1 6287   3.315   0.670   0.803
 1989SOL    HW2 6288   3.400   0.794   0.741
 1990SOL     OW 6289   2.323   1.266   1.727
 1990SOL    HW1 6290   2.273   1.267   1.641
 1990SOL    HW2 6291   2.260   1.248   1.803
 1991SOL     OW 6292   2.973   1.776   0.237
 1991SOL    HW1 6293   2.913   1.714   0.287
 1991SOL    HW2 6294   3.004   1.732   0.152
 1992SOL     OW 6295   2.064   0.285   1.498
 1992SOL    HW1 6296   1.984   0.345   1.485
 1992SOL    HW2 6297   2.054   0.236   1.584
 1993SOL     OW 6298   3.494   1.377   0.081
 1993SOL    HW1 6299   3.462   1.471   0.071
 1993SOL    HW2 6300   3.418   1.314   0.069
 1994SOL     OW 6301   2.326   1.743   0.323
 1994SOL    HW1 6302   2.359   1.782   0.409
 1994SOL    HW2 6303   2.402   1.736   0.258
 1995SOL     OW 6304   3.262   0.107   0.426
 1995SOL    HW1 6305   3.238   0.070   0.336
 1995SOL    HW2 6306   3.361   0.123   0.430
 1996SOL     OW 6307   2.111   1.785   1.241
 1996SOL    HW1 6308   2.168   1.720   1.291
 1996SOL    HW2 6309   2.095   1.752   1.148
 1997SOL     OW 6310   2.802   1.698   0.904
 1997SOL    HW1 6311   2.882   1.641   0.925
 1997SOL    HW2 6312   2.753   1.658   0.827
 1998SOL     OW 6313   2.244   0.700   0.480
 1998SOL    HW1 6314   2.289   0.610   0.477
 1998SOL    HW2 6315   2.150   0.689   0.513
 1999SOL     OW 6316   3.409   0.222   1.729
 1999SOL    HW1 6317   3.404   0.259   1.821
 1999SOL    HW2 6318   3.337   0.153   1.717
 2000SOL     OW 6319   2.476   0.122   0.117
 2000SOL    HW1 6320   2.574   0.100   0.124
 2000SOL    HW2 6321   2.445   0.105   0.024
 2001SOL     OW 6322   2.643   0.264   1.749
 2001SOL    HW1 6323   2.710   0.203   1.792
 2001SOL    HW2 6324   2.570   0.283   1.814
 2002SOL     OW 6325   2.750   1.514   1.195
 2002SOL    HW1 6326   2.727   1.489   1.101
 2002SOL    HW2 6327   2.811   1.445   1.234
 2003SOL     OW 6328   3.213   0.590   1.433
 2003SOL    HW1 6329   3.241   0.547   1.518
 2003SOL    HW2 6330   3.238   0.686   1.434
 2004SOL     OW 6331   2.665   1.402   0.924
 2004SOL    HW1 6332   2.755   1.416   0.882
 2004SOL    HW2 6333   2.594   1.404   0.853
 2005SOL     OW 6334   2.784   0.503   0.899
 2005SOL    HW1 6335   2.759   0.494   0.803
 2005SOL    HW2 6336   2.832   0.421   0.930
 2006SOL     OW 6337   2.401   0.064   0.512
 2006SOL    HW1 6338   2.320   0.065   0.570
 2006SOL    HW2 6339   2.404   0.147   0.457
 2007SOL     OW 6340   3.296   1.188   0.041
 2007SOL    HW1 6341   3.328   1.112   0.098
 2007SOL    HW2 6342   3.204   1.215   0.071
 2008SOL     OW 6343   2.159   0.035   0.171
 2008SOL    HW1 6344   2.208   0.119   0.150
 2008SOL    HW2 6345   2.221  -0.030   0.216
 2009SOL     OW 6346   2.797   0.236   0.480
 2009SOL    HW1 6347   2.749   0.277   0.402
 2009SOL    HW2 6348   2.896   0.234   0.461
 2010SOL     OW 6349   2.938   0.683   1.464
 2010SOL    HW1 6350   2.858   0.622   1.467
 2010SOL    HW2 6351   3.019   0.630   1.440
 2011SOL     OW 6352   3.089   1.570   0.793
 2011SOL    HW1 6353   3.110   1.644   0.728
 2011SOL    HW2 6354   3.157   1.570   0.866
 2012SOL     OW 6355   2.321   1.152   0.741
 2012SOL    HW1 6356   2.250   1.125   0.806
 2012SOL    HW2 6357   2.295   1.124   0.648
 2013SOL     OW 6358   3.133   1.797   0.591
 2013SOL    HW1 6359   3.177   1.861   0.527
 2013SOL    HW2 6360   3.083   1.849   0.661
 2014SOL     OW 6361   2.894   0.549   0.016
 2014SOL    HW1 6362   2.853   0.631  -0.023
 2014SOL    HW2 6363   2.958   0.575   0.089
 2015SOL     OW 6364   1.940   0.556   1.386
 2015SOL    HW1 6365   2.032   0.555   1.345
 2015SOL    HW2 6366   1.934   0.630   1.453
 2016SOL     OW 6367   2.423   0.222   1.147
 2016SOL    HW1 6368   2.461   0.138   1.184
 2016SOL    HW2 6369   2.335   0.241   1.191
 2017SOL     OW 6370   2.728   0.454   0.642
 2017SOL    HW1 6371   2.696   0.526   0.580
 2017SOL    HW2 6372   2.752   0.373   0.589
 2018SOL     OW 6373   2.879   0.039   0.753
 2018SOL    HW1 6374   2.807   0.044   0.684
 2018SOL    HW2 6375   2.855  -0.030   0.822
 2019SOL     OW 6376   3.291   1.173   0.867
 2019SOL    HW1 6377   3.236   1.089   0.860
 2019SOL    HW2 6378   3.317   1.202   0.775
 2020SOL     OW 6379   3.328   0.590   0.992
 2020SOL    HW1 6380   3.298   0.495   0.999
 2020SOL    HW2 6381   3.401   0.606   1.058
 2021SOL     OW 6382   3.719   0.833   0.377
 2021SOL    HW1 6383   3.761   0.769   0.441
 2021SOL    HW2 6384   3.681   0.782   0.299
 2022SOL     OW 6385   2.350   1.385   0.174
 2022SOL    HW1 6386   2.263   1.370   0.221
 2022SOL    HW2 6387   2.333   1.411   0.079
 2023SOL     OW 6388   3.526   1.280   0.657
 2023SOL    HW1 6389   3.625   1.288   0.671
 2023SOL    HW2 6390   3.481   1.364   0.688
 2024SOL     OW 6391   3.252   0.575   0.078
 2024SOL    HW1 6392   3.198   0.554   0.159
 2024SOL    HW2 6393   3.343   0.534   0.087
 2025SOL     OW 6394   2.389   0.256   0.328
 2025SOL    HW1 6395   2.416   0.197   0.253
 2025SOL    HW2 6396   2.389   0.351   0.297
 2026SOL     OW 6397   3.616   1.223   1.588
 2026SOL    HW1 6398   3.707   1.184   1.575
 2026SOL    HW2 6399   3.624   1.319   1.612
 2027SOL     OW 6400   2.926   1.347   1.340
 2027SOL    HW1 6401   2.846   1.324   1.395
 2027SOL    HW2 6402   3.009   1.321   1.389
 2028SOL     OW 6403   3.454   1.629   1.625
 2028SOL    HW1 6404   3.481   1.663   1.535
 2028SOL    HW2 6405   3.533   1.591   1.671
 2029SOL     OW 6406   2.973   1.195   1.100
 2029SOL    HW1 6407   2.933   1.239   1.181
 2029SOL    HW2 6408   2.932   1.232   1.017
 2030SOL     OW 6409   3.500   1.099   1.079
 2030SOL    HW1 6410   3.505   1.180   1.138
 2030SOL    HW2 6411   3.414   1.101   1.028
 2031SOL     OW 6412   2.777   0.089   1.402
 2031SOL    HW1 6413   2.802   0.069   1.307
 2031SOL    HW2 6414   2.849   0.145   1.444
 2032SOL     OW 6415   2.842   1.116   1.719
 2032SOL    HW1 6416   2.743   1.122   1.729
 2032SOL    HW2 6417   2.865   1.036   1.663
 2033SOL     OW 6418   2.567   1.050   0.368
 2033SOL    HW1 6419   2.553   1.057   0.467
 2033SOL    HW2 6420   2.651   0.999   0.350
 2034SOL     OW 6421   2.272   0.813   1.251
 2034SOL    HW1 6422   2.358   0.825   1.301
 2034SOL    HW2 6423   2.230   0.726   1.278
 2035SOL     OW 6424   3.136   0.386   1.262
 2035SOL    HW1 6425   3.157   0.460   1.326
 2035SOL    HW2 6426   3.047   0.403   1.219
 2036SOL     OW 6427   1.926   1.564   1.331
 2036SOL    HW1 6428   1.880   1.646   1.297
 2036SOL    HW2 6429   2.024   1.583   1.340
 2037SOL     OW 6430   2.229   1.100   0.501
 2037SOL    HW1 6431   2.222   1.183   0.445
 2037SOL    HW2 6432   2.233   1.020   0.441
 2038SOL     OW 6433   2.428   0.537   0.865
 2038SOL    HW1 6434   2.440   0.603   0.791
 2038SOL    HW2 6435   2.474   0.571   0.948
 2039SOL     OW 6436   3.114   1.348   0.388
 2039SOL    HW1 6437   3.164   1.425   0.428
 2039SOL    HW2 6438   3.019   1.350   0.420
 2040SOL     OW 6439   3.134   1.445   1.142
 2040SOL    HW1 6440   3.181   1.458   1.229
 2040SOL    HW2 6441   3.068   1.371   1.151
 2041SOL     OW 6442   3.444   0.639   0.472
 2041SOL    HW1 6443   3.413   0.700   0.545
 2041SOL    HW2 6444   3.494   0.691   0.403
 2042SOL     OW 6445   2.216   1.510   1.329
 2042SOL    HW1 6446   2.195   1.466   1.242
 2042SOL    HW2 6447   2.313   1.536   1.332
 2043SOL     OW 6448   2.264   0.751   1.598
 2043SOL    HW1 6449   2.332   0.806   1.551
 2043SOL    HW2 6450   2.304   0.663   1.625
 2044SOL     OW 6451   3.449   0.779   1.670
 2044SOL    HW1 6452   3.357   0.817   1.665
 2044SOL    HW2 6453   3.509   0.826   1.605
 2045SOL     OW 6454   2.875   0.105   1.770
 2045SOL    HW1 6455   2.881   0.190   1.718
 2045SOL    HW2 6456   2.907   0.029   1.713
 2046SOL     OW 6457   2.366   0.050   1.740
 2046SOL    HW1 6458   2.324  -0.007   1.670
 2046SOL    HW2 6459   2.300   0.119   1.772
 2047SOL     OW 6460   2.435   0.870   1.029
 2047SOL    HW1 6461   2.479   0.959   1.020
 2047SOL    HW2 6462   2.372   0.870   1.106
 2048SOL     OW 6463   3.222   0.862   1.045
 2048SOL    HW1 6464   3.147   0.862   0.979
 2048SOL    HW2 6465   3.259   0.770   1.054
 2049SOL     OW 6466   3.071   0.525   0.275
 2049SOL    HW1 6467   3.084   0.441   0.329
 2049SOL    HW2 6468   3.042   0.599   0.335
 2050SOL     OW 6469   2.169   0.213   1.231
 2050SOL    HW1 6470   2.146   0.250   1.321
 2050SOL    HW2 6471   2.139   0.118   1.225
 2051SOL     OW 6472   1.899   1.310   1.282
 2051SOL    HW1 6473   1.952   1.261   1.350
 2051SOL    HW2 6474   1.921   1.408   1.287
 2052SOL     OW 6475   2.594   0.634   1.064
 2052SOL    HW1 6476   2.653   0.608   0.988
 2052SOL    HW2 6477   2.566   0.730   1.053
 2053SOL     OW 6478   3.590   0.935   1.854
 2053SOL    HW1 6479   3.544   0.928   1.765
 2053SOL    HW2 6480   3.528   0.979   1.920
 2054SOL     OW 6481   2.169   0.063   0.618
 2054SOL    HW1 6482   2.158   0.157   0.651
 2054SOL    HW2 6483   2.164   0.000   0.695
 2055SOL     OW 6484   3.484   0.367   0.374
 2055SOL    HW1 6485   3.486   0.291   0.438
 2055SOL    HW2 6486   3.436   0.444   0.414
 2056SOL     OW 6487   2.885   0.766   0.966
 2056SOL    HW1 6488   2.900   0.787   1.062
 2056SOL    HW2 6489   2.855   0.671   0.957
 2057SOL     OW 6490   2.842   1.573   1.700
 2057SOL    HW1 6491   2.822   1.617   1.612
 2057SOL    HW2 6492   2.881   1.482   1.684
 2058SOL     OW 6493   3.721   1.518   1.605
 2058SOL    HW1 6494   3.735   1.545   1.510
 2058SOL    HW2 6495   3.804   1.540   1.658
 2059SOL     OW 6496   2.212   0.898   1.804
 2059SOL    HW1 6497   2.288   0.942   1.852
 2059SOL    HW2 6498   2.247   0.851   1.722
 2060SOL     OW 6499   3.402   0.274   0.125
 2060SOL    HW1 6500   3.341   0.199   0.148
 2060SOL    HW2 6501   3.424   0.326   0.208
 2061SOL     OW 6502   3.165   0.838   0.042
 2061SOL    HW1 6503   3.199   0.745   0.057
 2061SOL    HW2 6504   3.183   0.865  -0.053
 2062SOL     OW 6505   2.930   1.333   0.849
 2062SOL    HW1 6506   2.937   1.249   0.794
 2062SOL    HW2 6507   2.992   1.402   0.813
 2063SOL     OW 6508   2.181   0.810   0.949
 2063SOL    HW1 6509   2.274   0.846   0.954
 2063SOL    HW2 6510   2.175   0.725   1.001
 2064SOL     OW 6511   2.201   0.509   1.006
 2064SOL    HW1 6512   2.149   0.426   0.989
 2064SOL    HW2 6513   2.278   0.514   0.942
 2065SOL     OW 6514   3.000   0.380   1.678
 2065SOL    HW1 6515   2.955   0.443   1.742
 2065SOL    HW2 6516   3.093   0.411   1.661
 2066SOL     OW 6517   3.022   0.207   1.477
 2066SOL    HW1 6518   3.022   0.271   1.554
 2066SOL    HW2 6519   3.050   0.255   1.394
 2067SOL     OW 6520   1.870   1.326   0.200
 2067SOL    HW1 6521   1.777   1.347   0.169
 2067SOL    HW2 6522   1.880   1.227   0.213
 2068SOL     OW 6523   1.950   1.801   0.927
 2068SOL    HW1 6524   1.908   1.715   0.900
 2068SOL    HW2 6525   2.044   1.804   0.893
 2069SOL     OW 6526   2.366   1.568   0.910
 2069SOL    HW1 6527   2.432   1.642   0.919
 2069SOL    HW2 6528   2.410   1.489   0.868
 2070SOL     OW 6529   2.864   0.796   1.238
 2070SOL    HW1 6530   2.905   0.764   1.324
 2070SOL    HW2 6531   2.768   0.769   1.235
 2071SOL     OW 6532   1.902   0.544   1.114
 2071SOL    HW1 6533   1.987   0.511   1.073
 2071SOL    HW2 6534   1.915   0.559   1.212
 2072SOL     OW 6535   2.051   0.520   1.722
 2072SOL    HW1 6536   2.110   0.480   1.652
 2072SOL    HW2 6537   1.993   0.591   1.681
 2073SOL     OW 6538   3.231   0.950   1.660
 2073SOL    HW1 6539   3.270   1.039   1.680
 2073SOL    HW2 6540   3.241   0.930   1.563
 2074SOL     OW 6541   2.677   0.572   0.325
 2074SOL    HW1 6542   2.684   0.483   0.279
 2074SOL    HW2 6543   2.583   0.606   0.317
 2075SOL     OW 6544   3.519   0.604   1.206
 2075SOL    HW1 6545   3.481   0.535   1.268
 2075SOL    HW2 6546   3.601   0.568   1.162
 2076SOL     OW 6547   2.114   1.564   1.744
 2076SOL    HW1 6548   2.084   1.621   1.820
 2076SOL    HW2 6549   2.107   1.467   1.770
 2077SOL     OW 6550   2.533   0.464   1.269
 2077SOL    HW1 6551   2.499   0.375   1.239
 2077SOL    HW2 6552   2.559   0.518   1.189
 2078SOL     OW 6553   2.792   1.678   1.465
 2078SOL    HW1 6554   2.768   1.660   1.370
 2078SOL    HW2 6555   2.822   1.772   1.475
 2079SOL     OW 6556   2.335   0.500   0.191
 2079SOL    HW1 6557   2.396   0.580   0.195
 2079SOL    HW2 6558   2.240   0.531   0.198
 2080SOL     OW 6559   2.021   1.137   1.466
 2080SOL    HW1 6560   2.043   1.076   1.542
 2080SOL    HW2 6561   2.031   1.088   1.380
 2081SOL     OW 6562   3.209   1.059   1.234
 2081SOL    HW1 6563   3.233   0.996   1.160
 2081SOL    HW2 6564   3.119   1.099   1.216
 2082SOL     OW 6565   3.164   0.855   0.309
 2082SOL    HW1 6566   3.078   0.824   0.351
 2082SOL    HW2 6567   3.160   0.841   0.210
 2083SOL     OW 6568   3.621   1.747   1.154
 2083SOL    HW1 6569   3.682   1.777   1.081
 2083SOL    HW2 6570   3.583   1.658   1.132
 2084SOL     OW 6571   3.114   1.731   1.128
 2084SOL    HW1 6572   3.198   1.736   1.074
 2084SOL    HW2 6573   3.091   1.635   1.146
 2085SOL     OW 6574   1.945   1.258   1.022
 2085SOL    HW1 6575   1.940   1.257   1.122
 2085SOL    HW2 6576   1.862   1.217   0.984
 2086SOL     OW 6577   2.550   1.662   1.716
 2086SOL    HW1 6578   2.494   1.743   1.725
 2086SOL    HW2 6579   2.602   1.666   1.630
 2087SOL     OW 6580   2.765   0.086   0.133
 2087SOL    HW1 6581   2.816   0.087   0.047
 2087SOL    HW2 6582   2.821   0.044   0.204
 2088SOL     OW 6583   3.588   0.135   0.523
 2088SOL    HW1 6584   3.661   0.118   0.456
 2088SOL    HW2 6585   3.557   0.048   0.561
 2089SOL     OW 6586   3.250   1.573   0.477
 2089SOL    HW1 6587   3.317   1.585   0.403
 2089SOL    HW2 6588   3.210   1.662   0.500
 2090SOL     OW 6589   1.992   1.794   1.851
 2090SOL    HW1 6590   1.951   1.720   1.904
 2090SOL    HW2 6591   2.056   1.845   1.909
 2091SOL     OW 6592   3.142   0.927   0.672
 2091SOL    HW1 6593   3.202   0.846   0.674
 2091SOL    HW2 6594   3.182   0.996   0.612
 2092SOL     OW 6595   2.692   1.273   1.422
 2092SOL    HW1 6596   2.687   1.306   1.517
 2092SOL    HW2 6597   2.606   1.292   1.376
 2093SOL     OW 6598   2.534   1.616   0.154
 2093SOL    HW1 6599   2.543   1.626   0.055
 2093SOL    HW2 6600   2.494   1.527   0.175
 2094SOL     OW 6601   3.512   1.720   1.394
 2094SOL    HW1 6602   3.565   1.730   1.310
 2094SOL    HW2 6603   3.485   1.810   1.428
 2095SOL     OW 6604   3.703   0.175   0.963
 2095SOL    HW1 6605   3.742   0.090   0.927
 2095SOL    HW2 6606   3.605   0.177   0.944
 2096SOL     OW 6607   2.125   0.326   0.720
 2096SOL    HW1 6608   2.046   0.377   0.686
 2096SOL    HW2 6609   2.116   0.311   0.818
 2097SOL     OW 6610   3.056   1.612   0.031
 2097SOL    HW1 6611   3.062   1.519   0.068
 2097SOL    HW2 6612   2.997   1.612  -0.049
 2098SOL     OW 6613   2.684   1.002   1.372
 2098SOL    HW1 6614   2.724   1.001   1.280
 2098SOL    HW2 6615   2.694   1.094   1.412
 2099SOL     OW 6616   2.778   0.910   0.291
 2099SOL    HW1 6617   2.841   0.948   0.223
 2099SOL    HW2 6618   2.818   0.827   0.330
 2100SOL     OW 6619   3.366   1.607   0.044
 2100SOL    HW1 6620   3.274   1.644   0.051
 2100SOL    HW2 6621   3.404   1.627  -0.046
 2101SOL     OW 6622   2.234   1.288   1.490
 2101SOL    HW1 6623   2.221   1.381   1.456
 2101SOL    HW2 6624   2.150   1.236   1.477
 2102SOL     OW 6625   3.476   1.292   1.289
 2102SOL    HW1 6626   3.536   1.295   1.369
 2102SOL    HW2 6627   3.401   1.356   1.302
 2103SOL     OW 6628   2.901   1.098   0.696
 2103SOL    HW1 6629   2.831   1.051   0.750
 2103SOL    HW2 6630   2.960   1.030   0.653
 2104SOL     OW 6631   2.876   0.236   0.971
 2104SOL    HW1 6632   2.868   0.200   0.878
 2104SOL    HW2 6633   2.874   0.160   1.036
 2105SOL     OW 6634   2.452   1.487   0.491
 2105SOL    HW1 6635   2.494   1.429   0.421
 2105SOL    HW2 6636   2.408   1.566   0.447
 2106SOL     OW 6637   3.571   0.385   1.381
 2106SOL    HW1 6638   3.644   0.454   1.385
 2106SOL    HW2 6639   3.599   0.310   1.322
 2107SOL     OW 6640   2.117   1.348   0.290
 2107SOL    HW1 6641   2.021   1.349   0.263
 2107SOL    HW2 6642   2.129   1.401   0.374
 2108SOL     OW 6643   1.967   1.013   1.726
 2108SOL    HW1 6644   1.890   0.980   1.780
 2108SOL    HW2 6645   2.052   0.983   1.768
 2109SOL     OW 6646   2.534   0.203   1.489
 2109SOL    HW1 6647   2.624   0.187   1.449
 2109SOL    HW2 6648   2.542   0.208   1.588
 2110SOL     OW 6649   1.937   0.345   0.033
 2110SOL    HW1 6650   1.845   0.317   0.004
 2110SOL    HW2 6651   1.968   0.422  -0.023
 2111SOL     OW 6652   3.302   0.856   1.398
 2111SOL    HW1 6653   3.245   0.908   1.335
 2111SOL    HW2 6654   3.398   0.868   1.374
 2112SOL     OW 6655   1.934   0.166   0.318
 2112SOL    HW1 6656   1.917   0.249   0.264
 2112SOL    HW2 6657   2.024   0.129   0.296
 2113SOL     OW 6658   3.045   1.335   0.119
 2113SOL    HW1 6659   2.946   1.324   0.121
 2113SOL    HW2 6660   3.079   1.350   0.212
 2114SOL     OW 6661   2.475   0.842   1.431
 2114SOL    HW1 6662   2.531   0.923   1.414
 2114SOL    HW2 6663   2.534   0.762   1.434
 2115SOL     OW 6664   3.355   1.767   0.959
 2115SOL    HW1 6665   3.388   1.831   0.890
 2115SOL    HW2 6666   3.421   1.761   1.034
 2116SOL     OW 6667   2.578   0.565   1.708
 2116SOL    HW1 6668   2.597   0.630   1.782
 2116SOL    HW2 6669   2.638   0.485   1.717
 2117SOL     OW 6670   3.312   1.220   1.633
 2117SOL    HW1 6671   3.303   1.210   1.732
 2117SOL    HW2 6672   3.408   1.213   1.607
 2118SOL     OW 6673   2.252   1.741   1.560
 2118SOL    HW1 6674   2.161   1.782   1.558
 2118SOL    HW2 6675   2.245   1.647   1.592
 2119SOL     OW 6676   3.536   0.883   1.254
 2119SOL    HW1 6677   3.509   0.794   1.217
 2119SOL    HW2 6678   3.537   0.951   1.181
 2120SOL     OW 6679   3.087   0.325   0.449
 2120SOL    HW1 6680   3.152   0.251   0.438
 2120SOL    HW2 6681   3.107   0.375   0.533
 2121SOL     OW 6682   2.456   0.745   0.652
 2121SOL    HW1 6683   2.506   0.830   0.633
 2121SOL    HW2 6684   2.368   0.747   0.604
 2122SOL     OW 6685   3.639   0.342   1.642
 2122SOL    HW1 6686   3.622   0.373   1.548
 2122SOL    HW2 6687   3.555   0.305   1.680
 2123SOL     OW 6688   3.592   0.934   1.517
 2123SOL    HW1 6689   3.630   1.025   1.532
 2123SOL    HW2 6690   3.584   0.917   1.418
 2124SOL     OW 6691   2.721   1.374   0.016
 2124SOL    HW1 6692   2.675   1.389   0.104
 2124SOL    HW2 6693   2.765   1.459  -0.014
 2125SOL     OW 6694   2.523   1.790   0.953
 2125SOL    HW1 6695   2.477   1.878   0.940
 2125SOL    HW2 6696   2.622   1.802   0.946
 2126SOL     OW 6697   2.721   0.956   0.861
 2126SOL    HW1 6698   2.775   0.887   0.909
 2126SOL    HW2 6699   2.689   1.025   0.927
 2127SOL     OW 6700   2.945   0.984   0.087
 2127SOL    HW1 6701   2.922   1.037   0.005
 2127SOL    HW2 6702   3.026   0.928   0.068
 2128SOL     OW 6703   3.723   1.569   0.851
 2128SOL    HW1 6704   3.652   1.557   0.781
 2128SOL    HW2 6705   3.724   1.490   0.911
 2129SOL     OW 6706   2.083   1.314   1.844
 2129SOL    HW1 6707   2.018   1.241   1.823
 2129SOL    HW2 6708   2.087   1.328   1.942
 2130SOL     OW 6709   1.941   1.240   0.653
 2130SOL    HW1 6710   1.940   1.193   0.741
 2130SOL    HW2 6711   2.023   1.212   0.602
 2131SOL     OW 6712   2.534   1.391   1.624
 2131SOL    HW1 6713   2.456   1.341   1.662
 2131SOL    HW2 6714   2.531   1.486   1.655
 2132SOL     OW 6715   3.686   0.192   1.227
 2132SOL    HW1 6716   3.682   0.102   1.271
 2132SOL    HW2 6717   3.689   0.181   1.128
 2133SOL     OW 6718   2.290   0.424   0.520
 2133SOL    HW1 6719   2.320   0.352   0.458
 2133SOL    HW2 6720   2.251   0.384   0.603
 2134SOL     OW 6721   3.567   1.487   1.104
 2134SOL    HW1 6722   3.474   1.462   1.077
 2134SOL    HW2 6723   3.593   1.437   1.186
 2135SOL     OW 6724   2.179   0.547   1.280
 2135SOL    HW1 6725   2.217   0.488   1.352
 2135SOL    HW2 6726   2.219   0.521   1.192
 2136SOL     OW 6727   2.674   1.586   0.687
 2136SOL    HW1 6728   2.706   1.596   0.593
 2136SOL    HW2 6729   2.595   1.524   0.689
 2137SOL     OW 6730   3.286   0.214   1.112
 2137SOL    HW1 6731   3.338   0.149   1.167
 2137SOL    HW2 6732   3.237   0.277   1.173
 2138SOL     OW 6733   2.863   0.034   1.154
 2138SOL    HW1 6734   2.800  -0.038   1.123
 2138SOL    HW2 6735   2.956  -0.002   1.154
 2139SOL     OW 6736   2.632   1.330   0.301
 2139SOL    HW1 6737   2.586   1.243   0.318
 2139SOL    HW2 6738   2.723   1.327   0.342
 2140SOL     OW 6739   2.480   1.567   1.284
 2140SOL    HW1 6740   2.475   1.649   1.341
 2140SOL    HW2 6741   2.569   1.564   1.239
 2141SOL     OW 6742   3.214   0.052   0.168
 2141SOL    HW1 6743   3.249   0.011   0.084
 2141SOL    HW2 6744   3.124   0.014   0.188
 2142SOL     OW 6745   3.162   0.453   0.691
 2142SOL    HW1 6746   3.103   0.533   0.695
 2142SOL    HW2 6747   3.177   0.418   0.784
 2143SOL     OW 6748   3.455   0.221   0.882
 2143SOL    HW1 6749   3.371   0.220   0.936
 2143SOL    HW2 6750   3.457   0.304   0.826
 2144SOL     OW 6751   1.901   1.077   0.300
 2144SOL    HW1 6752   2.000   1.066   0.291
 2144SOL    HW2 6753   1.861   0.991   0.332
 2145SOL     OW 6754   2.737   1.646   0.337
 2145SOL    HW1 6755   2.660   1.611   0.283
 2145SOL    HW2 6756   2.705   1.717   0.399
 2146SOL     OW 6757   2.092   0.628   1.975
 2146SOL    HW1 6758   1.999   0.626   2.012
 2146SOL    HW2 6759   2.093   0.589   1.883
 2147SOL     OW 6760   2.087   0.275   2.858
 2147SOL    HW1 6761   2.122   0.258   2.950
 2147SOL    HW2 6762   1.999   0.230   2.846
 2148SOL     OW 6763   1.881   0.368   2.509
 2148SOL    HW1 6764   1.799   0.411   2.548
 2148SOL    HW2 6765   1.853   0.295   2.446
 2149SOL     OW 6766   2.431   1.275   3.027
 2149SOL    HW1 6767   2.338   1.268   2.990
 2149SOL    HW2 6768   2.442   1.364   3.071
 2150SOL     OW 6769   3.417   1.511   2.565
 2150SOL    HW1 6770   3.360   1.495   2.646
 2150SOL    HW2 6771   3.358   1.521   2.485
 2151SOL     OW 6772   2.997   0.703   2.579
 2151SOL    HW1 6773   3.054   0.781   2.554
 2151SOL    HW2 6774   2.937   0.729   2.655
 2152SOL     OW 6775   3.617   0.607   2.093
 2152SOL    HW1 6776   3.605   0.594   1.994
 2152SOL    HW2 6777   3.587   0.526   2.142
 2153SOL     OW 6778   2.630   1.144   2.885
 2153SOL    HW1 6779   2.552   1.161   2.945
 2153SOL    HW2 6780   2.664   1.231   2.849
 2154SOL     OW 6781   2.712   0.798   3.685
 2154SOL    HW1 6782   2.708   0.874   3.750
 2154SOL    HW2 6783   2.734   0.834   3.594
 2155SOL     OW 6784   2.547   1.012   2.527
 2155SOL    HW1 6785   2.616   0.996   2.597
 2155SOL    HW2 6786   2.474   1.069   2.565
 2156SOL     OW 6787   2.548   1.161   3.665
 2156SOL    HW1 6788   2.608   1.240   3.679
 2156SOL    HW2 6789   2.462   1.192   3.624
 2157SOL     OW 6790   2.197   1.435   2.923
 2157SOL    HW1 6791   2.119   1.404   2.870
 2157SOL    HW2 6792   2.255   1.493   2.866
 2158SOL     OW 6793   3.322   1.505   3.201
 2158SOL    HW1 6794   3.346   1.599   3.227
 2158SOL    HW2 6795   3.306   1.451   3.283
 2159SOL     OW 6796   2.300   0.392   3.361
 2159SOL    HW1 6797   2.382   0.336   3.370
 2159SOL    HW2 6798   2.219   0.334   3.365
 2160SOL     OW 6799   3.465   0.447   2.599
 2160SOL    HW1 6800   3.391   0.493   2.549
 2160SOL    HW2 6801   3.516   0.515   2.652
 2161SOL     OW 6802   2.093   1.713   2.345
 2161SOL    HW1 6803   2.127   1.790   2.399
 2161SOL    HW2 6804   2.137   1.713   2.255
 2162SOL     OW 6805   2.989   1.341   3.552
 2162SOL    HW1 6806   3.036   1.341   3.640
 2162SOL    HW2 6807   2.941   1.254   3.541
 2163SOL     OW 6808   2.092   1.434   2.400
 2163SOL    HW1 6809   2.066   1.530   2.400
 2163SOL    HW2 6810   2.021   1.380   2.445
 2164SOL     OW 6811   2.102   1.091   2.748
 2164SOL    HW1 6812   2.116   1.007   2.800
 2164SOL    HW2 6813   2.047   1.155   2.803
 2165SOL     OW 6814   2.468   0.964   1.985
 2165SOL    HW1 6815   2.475   1.048   1.931
 2165SOL    HW2 6816   2.514   0.977   2.073
 2166SOL     OW 6817   3.456   0.114   3.342
 2166SOL    HW1 6818   3.438   0.181   3.270
 2166SOL    HW2 6819   3.453   0.160   3.431
 2167SOL     OW 6820   1.984   0.643   2.425
 2167SOL    HW1 6821   1.939   0.555   2.442
 2167SOL    HW2 6822   1.983   0.697   2.509
 2168SOL     OW 6823   3.704   1.767   2.221
 2168SOL    HW1 6824   3.758   1.738   2.301
 2168SOL    HW2 6825   3.734   1.857   2.192
 2169SOL     OW 6826   1.889   1.596   1.979
 2169SOL    HW1 6827   1.870   1.500   2.000
 2169SOL    HW2 6828   1.856   1.654   2.054
 2170SOL     OW 6829   3.551   0.922   2.474
 2170SOL    HW1 6830   3.646   0.893   2.482
 2170SOL    HW2 6831   3.543   0.987   2.399
 2171SOL     OW 6832   3.503   1.108   2.294
 2171SOL    HW1 6833   3.589   1.110   2.242
 2171SOL    HW2 6834   3.517   1.155   2.382
 2172SOL     OW 6835   1.975   0.737   3.459
 2172SOL    HW1 6836   2.063   0.724   3.504
 2172SOL    HW2 6837   1.962   0.834   3.437
 2173SOL     OW 6838   2.475   1.365   2.588
 2173SOL    HW1 6839   2.426   1.278   2.597
 2173SOL    HW2 6840   2.452   1.408   2.501
 2174SOL     OW 6841   3.155   1.228   3.285
 2174SOL    HW1 6842   3.192   1.155   3.227
 2174SOL    HW2 6843   3.207   1.233   3.370
 2175SOL     OW 6844   2.671   0.004   2.364
 2175SOL    HW1 6845   2.711   0.095   2.355
 2175SOL    HW2 6846   2.571   0.012   2.370
 2176SOL     OW 6847   2.059   0.976   3.126
 2176SOL    HW1 6848   2.148   0.931   3.112
 2176SOL    HW2 6849   1.986   0.911   3.107
 2177SOL     OW 6850   3.387   0.999   2.052
 2177SOL    HW1 6851   3.324   0.923   2.065
 2177SOL    HW2 6852   3.435   1.017   2.138
 2178SOL     OW 6853   3.049   1.792   3.478
 2178SOL    HW1 6854   3.073   1.852   3.402
 2178SOL    HW2 6855   3.056   1.697   3.448
 2179SOL     OW 6856   2.179   0.251   3.663
 2179SOL    HW1 6857   2.250   0.322   3.669
 2179SOL    HW2 6858   2.091   0.290   3.691
 2180SOL     OW 6859   3.328   1.417   2.815
 2180SOL    HW1 6860   3.269   1.423   2.895
 2180SOL    HW2 6861   3.313   1.329   2.769
 2181SOL     OW 6862   3.529   1.714   2.434
 2181SOL    HW1 6863   3.488   1.691   2.346
 2181SOL    HW2 6864   3.511   1.640   2.499
 2182SOL     OW 6865   2.460   0.729   2.132
 2182SOL    HW1 6866   2.484   0.798   2.064
 2182SOL    HW2 6867   2.382   0.762   2.186
 2183SOL     OW 6868   3.143   0.345   2.806
 2183SOL    HW1 6869   3.057   0.295   2.793
 2183SOL    HW2 6870   3.205   0.291   2.862
 2184SOL     OW 6871   3.438   1.662   2.169
 2184SOL    HW1 6872   3.527   1.708   2.172
 2184SOL    HW2 6873   3.417   1.638   2.074
 2185SOL     OW 6874   2.669   0.605   3.327
 2185SOL    HW1 6875   2.622   0.602   3.416
 2185SOL    HW2 6876   2.618   0.550   3.261
 2186SOL     OW 6877   3.256   0.469   3.536
 2186SOL    HW1 6878   3.236   0.512   3.624
 2186SOL    HW2 6879   3.334   0.407   3.545
 2187SOL     OW 6880   2.835   0.890   3.434
 2187SOL    HW1 6881   2.881   0.806   3.405
 2187SOL    HW2 6882   2.779   0.924   3.359
 2188SOL     OW 6883   2.853   0.410   3.104
 2188SOL    HW1 6884   2.776   0.444   3.158
 2188SOL    HW2 6885   2.819   0.359   3.025
 2189SOL     OW 6886   2.903   0.701   2.291
 2189SOL    HW1 6887   2.929   0.697   2.387
 2189SOL    HW2 6888   2.818   0.650   2.277
 2190SOL     OW 6889   1.938   0.811   2.651
 2190SOL    HW1 6890   2.037   0.799   2.660
 2190SOL    HW2 6891   1.914   0.906   2.672
 2191SOL     OW 6892   1.992   1.821   3.433
 2191SOL    HW1 6893   1.982   1.806   3.532
 2191SOL    HW2 6894   1.906   1.857   3.397
 2192SOL     OW 6895   2.727   0.348   2.057
 2192SOL    HW1 6896   2.786   0.411   2.008
 2192SOL    HW2 6897   2.746   0.254   2.028
 2193SOL     OW 6898   3.581   0.585   3.693
 2193SOL    HW1 6899   3.555   0.674   3.657
 2193SOL    HW2 6900   3.579   0.517   3.620
 2194SOL     OW 6901   3.224   1.144   2.407
 2194SOL    HW1 6902   3.307   1.115   2.359
 2194SOL    HW2 6903   3.175   1.211   2.351
 2195SOL     OW 6904   2.412   0.196   2.747
 2195SOL    HW1 6905   2.407   0.191   2.847
 2195SOL    HW2 6906   2.414   0.292   2.718
 2196SOL     OW 6907   2.870   1.456   2.339
 2196SOL    HW1 6908   2.824   1.528   2.287
 2196SOL    HW2 6909   2.866   1.476   2.437
 2197SOL     OW 6910   2.213   1.801   2.715
 2197SOL    HW1 6911   2.263   1.715   2.721
 2197SOL    HW2 6912   2.278   1.878   2.712
 2198SOL     OW 6913   3.657   1.066   2.735
 2198SOL    HW1 6914   3.595   1.051   2.659
 2198SOL    HW2 6915   3.605   1.077   2.820
 2199SOL     OW 6916   3.089   1.550   3.368
 2199SOL    HW1 6917   3.095   1.473   3.432
 2199SOL    HW2 6918   3.037   1.524   3.288
 2200SOL     OW 6919   2.183   0.943   2.104
 2200SOL    HW1 6920   2.265   0.982   2.062
 2200SOL    HW2 6921   2.156   0.861   2.055
 2201SOL     OW 6922   3.320   0.735   2.590
 2201SOL    HW1 6923   3.315   0.670   2.665
 2201SOL    HW2 6924   3.400   0.794   2.603
 2202SOL     OW 6925   2.323   1.266   3.589
 2202SOL    HW1 6926   2.273   1.267   3.503
 2202SOL    HW2 6927   2.260   1.248   3.665
 2203SOL     OW 6928   2.973   1.776   2.099
 2203SOL    HW1 6929   2.913   1.714   2.149
 2203SOL    HW2 6930   3.004   1.732   2.014
 2204SOL     OW 6931   2.064   0.285   3.360
 2204SOL    HW1 6932   1.984   0.345   3.347
 2204SOL    HW2 6933   2.054   0.236   3.446
 2205SOL     OW 6934   3.494   1.377   1.943
 2205SOL    HW1 6935   3.462   1.471   1.933
 2205SOL    HW2 6936   3.418   1.314   1.931
 2206SOL     OW 6937   2.326   1.743   2.185
 2206SOL    HW1 6938   2.359   1.782   2.271
 2206SOL    HW2 6939   2.402   1.736   2.120
 2207SOL     OW 6940   3.262   0.107   2.288
 2207SOL    HW1 6941   3.238   0.070   2.198
 2207SOL    HW2 6942   3.361   0.123   2.292
 2208SOL     OW 6943   2.111   1.785   3.103
 2208SOL    HW1 6944   2.168   1.720   3.153
 2208SOL    HW2 6945   2.095   1.752   3.010
 2209SOL     OW 6946   2.802   1.698   2.766
 2209SOL    HW1 6947   2.882   1.641   2.787
 2209SOL    HW2 6948   2.753   1.658   2.689
 2210SOL     OW 6949   2.244   0.700   2.342
 2210SOL    HW1 6950   2.289   0.610   2.339
 2210SOL    HW2 6951   2.150   0.689   2.375
 2211SOL     OW 6952   3.409   0.222   3.591
 2211SOL    HW1 6953   3.404   0.259   3.683
 2211SOL    HW2 6954   3.337   0.153   3.579
 2212SOL     OW 6955   2.476   0.122   1.979
 2212SOL    HW1 6956   2.574   0.100   1.986
 2212SOL    HW2 6957   2.445   0.105   1.886
 2213SOL     OW 6958   2.643   0.264   3.611
 2213SOL    HW1 6959   2.710   0.203   3.654
 2213SOL    HW2 6960   2.570   0.283   3.676
 2214SOL     OW 6961   2.750   1.514   3.057
 2214SOL    HW1 6962   2.727   1.489   2.963
 2214SOL    HW2 6963   2.811   1.445   3.096
 2215SOL     OW 6964   3.213   0.590   3.295
 2215SOL    HW1 6965   3.241   0.547   3.380
 2215SOL    HW2 6966   3.238   0.686   3.296
 2216SOL     OW 6967   2.665   1.402   2.786
 2216SOL    HW1 6968   2.755   1.416   2.744
 2216SOL    HW2 6969   2.594   1.404   2.715
 2217SOL     OW 6970   2.784   0.503   2.761
 2217SOL    HW1 6971   2.759   0.494   2.665
 2217SOL    HW2 6972   2.832   0.421   2.792
 2218SOL     OW 6973   2.401   0.064   2.374
 2218SOL    HW1 6974   2.320   0.065   2.432
 2218SOL    HW2 6975   2.404   0.147   2.319
 2219SOL     OW 6976   3.296   1.188   1.903
 2219SOL    HW1 6977   3.328   1.112   1.960
 2219SOL    HW2 6978   3.204   1.215   1.933
 2220SOL     OW 6979   2.159   0.035   2.033
 2220SOL    HW1 6980   2.208   0.119   2.012
 2220SOL    HW2 6981   2.221  -0.030   2.078
 2221SOL     OW 6982   2.797   0.236   2.342
 2221SOL    HW1 6983   2.749   0.277   2.264
 2221SOL    HW2 6984   2.896   0.234   2.323
 2222SOL     OW 6985   2.938   0.683   3.326
 2222SOL    HW1 6986   2.858   0.622   3.329
 2222SOL    HW2 6987   3.019   0.630   3.302
 2223SOL     OW 6988   3.089   1.570   2.655
 2223SOL    HW1 6989   3.110   1.644   2.590
 2223SOL    HW2 6990   3.157   1.570   2.728
 2224SOL     OW 6991   2.321   1.152   2.603
 2224SOL    HW1 6992   2.250   1.125   2.668
 2224SOL    HW2 6993   2.295   1.124   2.510
 2225SOL     OW 6994   3.133   1.797   2.453
 2225SOL    HW1 6995   3.177   1.861   2.389
 2225SOL    HW2 6996   3.083   1.849   2.523
 2226SOL     OW 6997   2.894   0.549   1.878
 2226SOL    HW1 6998   2.853   0.631   1.839
 2226SOL    HW2 6999   2.958   0.575   1.951
 2227SOL     OW 7000   1.940   0.556   3.248
 2227SOL    HW1 7001   2.032   0.555   3.207
 2227SOL    HW2 7002   1.934   0.630   3.315
 2228SOL     OW 7003   2.423   0.222   3.009
 2228SOL    HW1 7004   2.461   0.138   3.046
 2228SOL    HW2 7005   2.335   0.241   3.053
 2229SOL     OW 7006   2.728   0.454   2.504
 2229SOL    HW1 7007   2.696   0.526   2.442
 2229SOL    HW2 7008   2.752   0.373   2.451
 2230SOL     OW 7009   2.879   0.039   2.615
 2230SOL    HW1 7010   2.807   0.044   2.546
 2230SOL    HW2 7011   2.855  -0.030   2.684
 2231SOL     OW 7012   3.291   1.173   2.729
 2231SOL    HW1 7013   3.236   1.089   2.722
 2231SOL    HW2 7014   3.317   1.202   2.637
 2232SOL     OW 7015   3.328   0.590   2.854
 2232SOL    HW1 7016   3.298   0.495   2.861
 2232SOL    HW2 7017   3.401   0.606   2.920
 2233SOL     OW 7018   3.719   0.833   2.239
 2233SOL    HW1 7019   3.761   0.769   2.303
 2233SOL    HW2 7020   3.681   0.782   2.161
 2234SOL     OW 7021   2.350   1.385   2.036
 2234SOL    HW1 7022   2.263   1.370   2.083
 2234SOL    HW2 7023   2.333   1.411   1.941
 2235SOL     OW 7024   3.526   1.280   2.519
 2235SOL    HW1 7025   3.625   1.288   2.533
 2235SOL    HW2 7026   3.481   1.364   2.550
 2236SOL     OW 7027   3.252   0.575   1.940
 2236SOL    HW1 7028   3.198   0.554   2.021
 2236SOL    HW2 7029   3.343   0.534   1.949
 2237SOL     OW 7030   2.389   0.256   2.190
 2237SOL    HW1 7031   2.416   0.197   2.115
 2237SOL    HW2 7032   2.389   0.351   2.159
 2238SOL     OW 7033   3.616   1.223   3.450
 2238SOL    HW1 7034   3.707   1.184   3.437
 2238SOL    HW2 7035   3.624   1.319   3.474
 2239SOL     OW 7036   2.926   1.347   3.202
 2239SOL    HW1 7037   2.846   1.324   3.257
 2239SOL    HW2 7038   3.009   1.321   3.251
 2240SOL     OW 7039   3.454   1.629   3.487
 2240SOL    HW1 7040   3.481   1.663   3.397
 2240SOL    HW2 7041   3.533   1.591   3.533
 2241SOL     OW 7042   2.973   1.195   2.962
 2241SOL    HW1 7043   2.933   1.239   3.043
 2241SOL    HW2 7044   2.932   1.232   2.879
 2242SOL     OW 7045   3.500   1.099   2.941
 2242SOL    HW1 7046   3.505   1.180   3.000
 2242SOL    HW2 7047   3.414   1.101   2.890
 2243SOL     OW 7048   2.777   0.089   3.264
 2243SOL    HW1 7049   2.802   0.069   3.169
 2243SOL    HW2 7050   2.849   0.145   3.306
 2244SOL     OW 7051   2.842   1.116   3.581
 2244SOL    HW1 7052   2.743   1.122   3.591
 2244SOL    HW2 7053   2.865   1.036   3.525
 2245SOL     OW 7054   2.567   1.050   2.230
 2245SOL    HW1 7055   2.553   1.057   2.329
 2245SOL    HW2 7056   2.651   0.999   2.212
 2246SOL     OW 7057   2.272   0.813   3.113
 2246SOL    HW1 7058   2.358   0.825   3.163
 2246SOL    HW2 7059   2.230   0.726   3.140
 2247SOL     OW 7060   3.136   0.386   3.124
 2247SOL    HW1 7061   3.157   0.460   3.188
 2247SOL    HW2 7062   3.047   0.403   3.081
 2248SOL     OW 7063   1.926   1.564   3.193
 2248SOL    HW1 7064   1.880   1.646   3.159
 2248SOL    HW2 7065   2.024   1.583   3.202
 2249SOL     OW 7066   2.229   1.100   2.363
 2249SOL    HW1 7067   2.222   1.183   2.307
 2249SOL    HW2 7068   2.233   1.020   2.303
 2250SOL     OW 7069   2.428   0.537   2.727
 2250SOL    HW1 7070   2.440   0.603   2.653
 2250SOL    HW2 7071   2.474   0.571   2.810
 2251SOL     OW 7072   3.114   1.348   2.250
 2251SOL    HW1 7073   3.164   1.425   2.290
 2251SOL    HW2 7074   3.019   1.350   2.282
 2252SOL     OW 7075   3.134   1.445   3.004
 2252SOL    HW1 7076   3.181   1.458   3.091
 2252SOL    HW2 7077   3.068   1.371   3.013
 2253SOL     OW 7078   3.444   0.639   2.334
 2253SOL    HW1 7079   3.413   0.700   2.407
 2253SOL    HW2 7080   3.494   0.691   2.265
 2254SOL     OW 7081   2.216   1.510   3.191
 2254SOL    HW1 7082   2.195   1.466   3.104
 2254SOL    HW2 7083   2.313   1.536   3.194
 2255SOL     OW 7084   2.264   0.751   3.460
 2255SOL    HW1 7085   2.332   0.806   3.413
 2255SOL    HW2 7086   2.304   0.663   3.487
 2256SOL     OW 7087   3.449   0.779   3.532
 2256SOL    HW1 7088   3.357   0.817   3.527
 2256SOL    HW2 7089   3.509   0.826   3.467
 2257SOL     OW 7090   2.875   0.105   3.632
 2257SOL    HW1 7091   2.881   0.190   3.580
 2257SOL    HW2 7092   2.907   0.029   3.575
 2258SOL     OW 7093   2.366   0.050   3.602
 2258SOL    HW1 7094   2.324  -0.007   3.532
 2258SOL    HW2 7095   2.300   0.119   3.634
 2259SOL     OW 7096   2.435   0.870   2.891
 2259SOL    HW1 7097   2.479   0.959   2.882
 2259SOL    HW2 7098   2.372   0.870   2.968
 2260SOL     OW 7099   3.222   0.862   2.907
 2260SOL    HW1 7100   3.147   0.862   2.841
 2260SOL    HW2 7101   3.259   0.770   2.916
 2261SOL     OW 7102   3.071   0.525   2.137
 2261SOL    HW1 7103   3.084   0.441   2.191
 2261SOL    HW2 7104   3.042   0.599   2.197
 2262SOL     OW 7105   2.169   0.213   3.093
 2262SOL    HW1 7106   2.146   0.250   3.183
 2262SOL    HW2 7107   2.139   0.118   3.087
 2263SOL     OW 7108   1.899   1.310   3.144
 2263SOL    HW1 7109   1.952   1.261   3.212
 2263SOL    HW2 7110   1.921   1.408   3.149
 2264SOL     OW 7111   2.594   0.634   2.926
 2264SOL    HW1 7112   2.653   0.608   2.850
 2264SOL    HW2 7113   2.566   0.730   2.915
 2265SOL     OW 7114   3.590   0.935   3.716
 2265SOL    HW1 7115   3.544   0.928   3.627
 2265SOL    HW2 7116   3.528   0.979   3.782
 2266SOL     OW 7117   2.169   0.063   2.480
 2266SOL    HW1 7118   2.158   0.157   2.513
 2266SOL    HW2 7119   2.164   0.000   2.557
 2267SOL     OW 7120   3.484   0.367   2.236
 2267SOL    HW1 7121   3.486   0.291   2.300
 2267SOL    HW2 7122   3.436   0.444   2.276
 2268SOL     OW 7123   2.885   0.766   2.828
 2268SOL    HW1 7124   2.900   0.787   2.924
 2268SOL    HW2 7125   2.855   0.671   2.819
 2269SOL     OW 7126   2.842   1.573   3.562
 2269SOL    HW1 7127   2.822   1.617   3.474
 2269SOL    HW2 7128   2.881   1.482   3.546
 2270SOL     OW 7129   3.721   1.518   3.467
 2270SOL    HW1 7130   3.735   1.545   3.372
 2270SOL    HW2 7131   3.804   1.540   3.520
 2271SOL     OW 7132   2.212   0.898   3.666
 2271SOL    HW1 7133   2.288   0.942   3.714
 2271SOL    HW2 7134   2.247   0.851   3.584
 2272SOL     OW 7135   3.402   0.274   1.987
 2272SOL    HW1 7136   3.341   0.199   2.010
 2272SOL    HW2 7137   3.424   0.326   2.070
 2273SOL     OW 7138   3.165   0.838   1.904
 2273SOL    HW1 7139   3.199   0.745   1.919
 2273SOL    HW2 7140   3.183   0.865   1.809
 2274SOL     OW 7141   2.930   1.333   2.711
 2274SOL    HW1 7142   2.937   1.249   2.656
 2274SOL    HW2 7143   2.992   1.402   2.675
 2275SOL     OW 7144   2.181   0.810   2.811
 2275SOL    HW1 7145   2.274   0.846   2.816
 2275SOL    HW2 7146   2.175   0.725   2.863
 2276SOL     OW 7147   2.201   0.509   2.868
 2276SOL    HW1 7148   2.149   0.426   2.851
 2276SOL    HW2 7149   2.278   0.514   2.804
 2277SOL     OW 7150   3.000   0.380   3.540
 2277SOL    HW1 7151   2.955   0.443   3.604
 2277SOL    HW2 7152   3.093   0.411   3.523
 2278SOL     OW 7153   3.022   0.207   3.339
 2278SOL    HW1 7154   3.022   0.271   3.416
 2278SOL    HW2 7155   3.050   0.255   3.256
 2279SOL     OW 7156   1.870   1.326   2.062
 2279SOL    HW1 7157   1.777   1.347   2.031
 2279SOL    HW2 7158   1.880   1.227   2.075
 2280SOL     OW 7159   1.950   1.801   2.789
 2280SOL    HW1 7160   1.908   1.715   2.762
 2280SOL    HW2 7161   2.044   1.804   2.755
 2281SOL     OW 7162   2.366   1.568   2.772
 2281SOL    HW1 7163   2.432   1.642   2.781
 2281SOL    HW2 7164   2.410   1.489   2.730
 2282SOL     OW 7165   2.864   0.796   3.100
 2282SOL    HW1 7166   2.905   0.764   3.186
 2282SOL    HW2 7167   2.768   0.769   3.097
 2283SOL     OW 7168   1.902   0.544   2.976
 2283SOL    HW1 7169   1.987   0.511   2.935
 2283SOL    HW2 7170   1.915   0.559   3.074
 2284SOL     OW 7171   2.051   0.520   3.584
 2284SOL    HW1 7172   2.110   0.480   3.514
 2284SOL    HW2 7173   1.993   0.591   3.543
 2285SOL     OW 7174   3.231   0.950   3.522
 2285SOL    HW1 7175   3.270   1.039   3.542
 2285SOL    HW2 7176   3.241   0.930   3.425
 2286SOL     OW 7177   2.677   0.572   2.187
 2286SOL    HW1 7178   2.684   0.483   2.141
 2286SOL    HW2 7179   2.583   0.606   2.179
 2287SOL     OW 7180   3.519   0.604   3.068
 2287SOL    HW1 7181   3.481   0.535   3.130
 2287SOL    HW2 7182   3.601   0.568   3.024
 2288SOL     OW 7183   2.114   1.564   3.606
 2288SOL    HW1 7184   2.084   1.621   3.682
 2288SOL    HW2 7185   2.107   1.467   3.632
 2289SOL     OW 7186   2.533   0.464   3.131
 2289SOL    HW1 7187   2.499   0.375   3.101
 2289SOL    HW2 7188   2.559   0.518   3.051
 2290SOL     OW 7189   2.335   0.500   2.053
 2290SOL    HW1 7190   2.396   0.580   2.057
 2290SOL    HW2 7191   2.240   0.531   2.060
 2291SOL     OW 7192   2.021   1.137   3.328
 2291SOL    HW1 7193   2.043   1.076   3.404
 2291SOL    HW2 7194   2.031   1.088   3.242
 2292SOL     OW 7195   3.209   1.059   3.096
 2292SOL    HW1 7196   3.233   0.996   3.022
 2292SOL    HW2 7197   3.119   1.099   3.078
 2293SOL     OW 7198   3.164   0.855   2.171
 2293SOL    HW1 7199   3.078   0.824   2.213
 2293SOL    HW2 7200   3.160   0.841   2.072
 2294SOL     OW 7201   3.621   1.747   3.016
 2294SOL    HW1 7202   3.682   1.777   2.943
 2294SOL    HW2 7203   3.583   1.658   2.994
 2295SOL     OW 7204   3.114   1.731   2.990
 2295SOL    HW1 7205   3.198   1.736   2.936
 2295SOL    HW2 7206   3.091   1.635   3.008
 2296SOL     OW 7207   1.945   1.258   2.884
 2296SOL    HW1 7208   1.940   1.257   2.984
 2296SOL    HW2 7209   1.862   1.217   2.846
 2297SOL     OW 7210   3.588   0.135   2.385
 2297SOL    HW1 7211   3.661   0.118   2.318
 2297SOL    HW2 7212   3.557   0.048   2.423
 2298SOL     OW 7213   3.250   1.573   2.339
 2298SOL    HW1 7214   3.317   1.585   2.265
 2298SOL    HW2 7215   3.210   1.662   2.362
 2299SOL     OW 7216   3.142   0.927   2.534
 2299SOL    HW1 7217   3.202   0.846   2.536
 2299SOL    HW2 7218   3.182   0.996   2.474
 2300SOL     OW 7219   2.692   1.273   3.284
 2300SOL    HW1 7220   2.687   1.306   3.379
 2300SOL    HW2 7221   2.606   1.292   3.238
 2301SOL     OW 7222   2.534   1.616   2.016
 2301SOL    HW1 7223   2.543   1.626   1.917
 2301SOL    HW2 7224   2.494   1.527   2.037
 2302SOL     OW 7225   3.512   1.720   3.256
 2302SOL    HW1 7226   3.565   1.730   3.172
 2302SOL    HW2 7227   3.485   1.810   3.290
 2303SOL     OW 7228   3.703   0.175   2.825
 2303SOL    HW1 7229   3.742   0.090   2.789
 2303SOL    HW2 7230   3.605   0.177   2.806
 2304SOL     OW 7231   2.125   0.326   2.582
 2304SOL    HW1 7232   2.046   0.377   2.548
 2304SOL    HW2 7233   2.116   0.311   2.680
 2305SOL     OW 7234   3.056   1.612   1.893
 2305SOL    HW1 7235   3.062   1.519   1.930
 2305SOL    HW2 7236   2.997   1.612   1.813
 2306SOL     OW 7237   2.684   1.002   3.234
 2306SOL    HW1 7238   2.724   1.001   3.142
 2306SOL    HW2 7239   2.694   1.094   3.274
 2307SOL     OW 7240   2.778   0.910   2.153
 2307SOL    HW1 7241   2.841   0.948   2.085
 2307SOL    HW2 7242   2.818   0.827   2.192
 2308SOL     OW 7243   3.366   1.607   1.906
 2308SOL    HW1 7244   3.274   1.644   1.913
 2308SOL    HW2 7245   3.404   1.627   1.816
 2309SOL     OW 7246   2.234   1.288   3.352
 2309SOL    HW1 7247   2.221   1.381   3.318
 2309SOL    HW2 7248   2.150   1.236   3.339
 2310SOL     OW 7249   3.476   1.292   3.151
 2310SOL    HW1 7250   3.536   1.295   3.231
 2310SOL    HW2 7251   3.401   1.356   3.164
 2311SOL     OW 7252   2.901   1.098   2.558
 2311SOL    HW1 7253   2.831   1.051   2.612
 2311SOL    HW2 7254   2.960   1.030   2.515
 2312SOL     OW 7255   2.876   0.236   2.833
 2312SOL    HW1 7256   2.868   0.200   2.740
 2312SOL    HW2 7257   2.874   0.160   2.898
 2313SOL     OW 7258   2.452   1.487   2.353
 2313SOL    HW1 7259   2.494   1.429   2.283
 2313SOL    HW2 7260   2.408   1.566   2.309
 2314SOL     OW 7261   3.571   0.385   3.243
 2314SOL    HW1 7262   3.644   0.454   3.247
 2314SOL    HW2 7263   3.599   0.310   3.184
 2315SOL     OW 7264   2.117   1.348   2.152
 2315SOL    HW1 7265   2.021   1.349   2.125
 2315SOL    HW2 7266   2.129   1.401   2.236
 2316SOL     OW 7267   1.967   1.013   3.588
 2316SOL    HW1 7268   1.890   0.980   3.642
 2316SOL    HW2 7269   2.052   0.983   3.630
 2317SOL     OW 7270   2.534   0.203   3.351
 2317SOL    HW1 7271   2.624   0.187   3.311
 2317SOL    HW2 7272   2.542   0.208   3.450
 2318SOL     OW 7273   1.937   0.345   1.895
 2318SOL    HW1 7274   1.845   0.317   1.866
 2318SOL    HW2 7275   1.968   0.422   1.839
 2319SOL     OW 7276   3.302   0.856   3.260
 2319SOL    HW1 7277   3.245   0.908   3.197
 2319SOL    HW2 7278   3.398   0.868   3.236
 2320SOL     OW 7279   1.934   0.166   2.180
 2320SOL    HW1 7280   1.917   0.249   2.126
 2320SOL    HW2 7281   2.024   0.129   2.158
 2321SOL     OW 7282   3.045   1.335   1.981
 2321SOL    HW1 7283   2.946   1.324   1.983
 2321SOL    HW2 7284   3.079   1.350   2.074
 2322SOL     OW 7285   2.475   0.842   3.293
 2322SOL    HW1 7286   2.531   0.923   3.276
 2322SOL    HW2 7287   2.534   0.762   3.296
 2323SOL     OW 7288   3.355   1.767   2.821
 2323SOL    HW1 7289   3.388   1.831   2.752
 2323SOL    HW2 7290   3.421   1.761   2.896
 2324SOL     OW 7291   2.578   0.565   3.570
 2324SOL    HW1 7292   2.597   0.630   3.644
 2324SOL    HW2 7293   2.638   0.485   3.579
 2325SOL     OW 7294   3.312   1.220   3.495
 2325SOL    HW1 7295   3.303   1.210   3.594
 2325SOL    HW2 7296   3.408   1.213   3.469
 2326SOL     OW 7297   2.252   1.741   3.422
 2326SOL    HW1 7298   2.161   1.782   3.420
 2326SOL    HW2 7299   2.245   1.647   3.454
 2327SOL     OW 7300   3.536   0.883   3.116
 2327SOL    HW1 7301   3.509   0.794   3.079
 2327SOL    HW2 7302   3.537   0.951   3.043
 2328SOL     OW 7303   3.087   0.325   2.311
 2328SOL    HW1 7304   3.152   0.251   2.300
 2328SOL    HW2 7305   3.107   0.375   2.395
 2329SOL     OW 7306   2.456   0.745   2.514
 2329SOL    HW1 7307   2.506   0.830   2.495
 2329SOL    HW2 7308   2.368   0.747   2.466
 2330SOL     OW 7309   3.639   0.342   3.504
 2330SOL    HW1 7310   3.622   0.373   3.410
 2330SOL    HW2 7311   3.555   0.305   3.542
 2331SOL     OW 7312   3.592   0.934   3.379
 2331SOL    HW1 7313   3.630   1.025   3.394
 2331SOL    HW2 7314   3.584   0.917   3.280
 2332SOL     OW 7315   2.721   1.374   1.878
 2332SOL    HW1 7316   2.675   1.389   1.966
 2332SOL    HW2 7317   2.765   1.459   1.848
 2333SOL     OW 7318   2.523   1.790   2.815
 2333SOL    HW1 7319   2.477   1.878   2.802
 2333SOL    HW2 7320   2.622   1.802   2.808
 2334SOL     OW 7321   2.721   0.956   2.723
 2334SOL    HW1 7322   2.775   0.887   2.771
 2334SOL    HW2 7323   2.689   1.025   2.789
 2335SOL     OW 7324   2.945   0.984   1.949
 2335SOL    HW1 7325   2.922   1.037   1.867
 2335SOL    HW2 7326   3.026   0.928   1.930
 2336SOL     OW 7327   3.723   1.569   2.713
 2336SOL    HW1 7328   3.652   1.557   2.643
 2336SOL    HW2 7329   3.724   1.490   2.773
 2337SOL     OW 7330   2.083   1.314   3.706
 2337SOL    HW1 7331   2.018   1.241   3.685
 2337SOL    HW2 7332   2.087   1.328   3.804
 2338SOL     OW 7333   1.941   1.240   2.515
 2338SOL    HW1 7334   1.940   1.193   2.603
 2338SOL    HW2 7335   2.023   1.212   2.464
 2339SOL     OW 7336   2.534   1.391   3.486
 2339SOL    HW1 7337   2.456   1.341   3.524
 2339SOL    HW2 7338   2.531   1.486   3.517
 2340SOL     OW 7339   3.686   0.192   3.089
 2340SOL    HW1 7340   3.682   0.102   3.133
 2340SOL    HW2 7341   3.689   0.181   2.990
 2341SOL     OW 7342   2.290   0.424   2.382
 2341SOL    HW1 7343   2.320   0.352   2.320
 2341SOL    HW2 7344   2.251   0.384   2.465
 2342SOL     OW 7345   3.567   1.487   2.966
 2342SOL    HW1 7346   3.474   1.462   2.939
 2342SOL    HW2 7347   3.593   1.437   3.048
 2343SOL     OW 7348   2.179   0.547   3.142
 2343SOL    HW1 7349   2.217   0.488   3.214
 2343SOL    HW2 7350   2.219   0.521   3.054
 2344SOL     OW 7351   2.674   1.586   2.549
 2344SOL    HW1 7352   2.706   1.596   2.455
 2344SOL    HW2 7353   2.595   1.524   2.551
 2345SOL     OW 7354   3.286   0.214   2.974
 2345SOL    HW1 7355   3.338   0.149   3.029
 2345SOL    HW2 7356   3.237   0.277   3.035
 2346SOL     OW 7357   2.863   0.034   3.016
 2346SOL    HW1 7358   2.800  -0.038   2.985
 2346SOL    HW2 7359   2.956  -0.002   3.016
 2347SOL     OW 7360   2.632   1.330   2.163
 2347SOL    HW1 7361   2.586   1.243   2.180
 2347SOL    HW2 7362   2.723   1.327   2.204
 2348SOL     OW 7363   2.480   1.567   3.146
 2348SOL    HW1 7364   2.475   1.649   3.203
 2348SOL    HW2 7365   2.569   1.564   3.101
 2349SOL     OW 7366   3.214   0.052   2.030
 2349SOL    HW1 7367   3.249   0.011   1.946
 2349SOL    HW2 7368   3.124   0.014   2.050
 2350SOL     OW 7369   3.162   0.453   2.553
 2350SOL    HW1 7370   3.103   0.533   2.557
 2350SOL    HW2 7371   3.177   0.418   2.646
 2351SOL     OW 7372   3.455   0.221   2.744
 2351SOL    HW1 7373   3.371   0.220   2.798
 2351SOL    HW2 7374   3.457   0.304   2.688
 2352SOL     OW 7375   1.901   1.077   2.162
 2352SOL    HW1 7376   2.000   1.066   2.153
 2352SOL    HW2 7377   1.861   0.991   2.194
 2353SOL     OW 7378   2.737   1.646   2.199
 2353SOL    HW1 7379   2.660   1.611   2.145
 2353SOL    HW2 7380   2.705   1.717   2.261
 2354SOL     OW 7381   2.092   0.628   3.837
 2354SOL    HW1 7382   1.999   0.626   3.874
 2354SOL    HW2 7383   2.093   0.589   3.745
 2355SOL     OW 7384   2.087   0.275   4.720
 2355SOL    HW1 7385   2.122   0.258   4.812
 2355SOL    HW2 7386   1.999   0.230   4.708
 2356SOL     OW 7387   1.881   0.368   4.371
 2356SOL    HW1 7388   1.799   0.411   4.410
 2356SOL    HW2 7389   1.853   0.295   4.308
 2357SOL     OW 7390   2.431   1.275   4.889
 2357SOL    HW1 7391   2.338   1.268   4.852
 2357SOL    HW2 7392   2.442   1.364   4.933
 2358SOL     OW 7393   3.417   1.511   4.427
 2358SOL    HW1 7394   3.360   1.495   4.508
 2358SOL    HW2 7395   3.358   1.521   4.347
 2359SOL     OW 7396   2.997   0.703   4.441
 2359SOL    HW1 7397   3.054   0.781   4.416
 2359SOL    HW2 7398   2.937   0.729   4.517
 2360SOL     OW 7399   3.617   0.607   3.955
 2360SOL    HW1 7400   3.605   0.594   3.856
 2360SOL    HW2 7401   3.587   0.526   4.004
 2361SOL     OW 7402   2.630   1.144   4.747
 2361SOL    HW1 7403   2.552   1.161   4.807
 2361SOL    HW2 7404   2.664   1.231   4.711
 2362SOL     OW 7405   2.712   0.798   5.547
 2362SOL    HW1 7406   2.708   0.874   5.612
 2362SOL    HW2 7407   2.734   0.834   5.456
 2363SOL     OW 7408   2.547   1.012   4.389
 2363SOL    HW1 7409   2.616   0.996   4.459
 2363SOL    HW2 7410   2.474   1.069   4.427
 2364SOL     OW 7411   2.548   1.161   5.527
 2364SOL    HW1 7412   2.608   1.240   5.541
 2364SOL    HW2 7413   2.462   1.192   5.486
 2365SOL     OW 7414   2.197   1.435   4.785
 2365SOL    HW1 7415   2.119   1.404   4.732
 2365SOL    HW2 7416   2.255   1.493   4.728
 2366SOL     OW 7417   3.322   1.505   5.063
 2366SOL    HW1 7418   3.346   1.599   5.089
 2366SOL    HW2 7419   3.306   1.451   5.145
 2367SOL     OW 7420   2.300   0.392   5.223
 2367SOL    HW1 7421   2.382   0.336   5.232
 2367SOL    HW2 7422   2.219   0.334   5.227
 2368SOL     OW 7423   3.465   0.447   4.461
 2368SOL    HW1 7424   3.391   0.493   4.411
 2368SOL    HW2 7425   3.516   0.515   4.514
 2369SOL     OW 7426   2.093   1.713   4.207
 2369SOL    HW1 7427   2.127   1.790   4.261
 2369SOL    HW2 7428   2.137   1.713   4.117
 2370SOL     OW 7429   2.989   1.341   5.414
 2370SOL    HW1 7430   3.036   1.341   5.502
 2370SOL    HW2 7431   2.941   1.254   5.403
 2371SOL     OW 7432   2.092   1.434   4.262
 2371SOL    HW1 7433   2.066   1.530   4.262
 2371SOL    HW2 7434   2.021   1.380   4.307
 2372SOL     OW 7435   2.102   1.091   4.610
 2372SOL    HW1 7436   2.116   1.007   4.662
 2372SOL    HW2 7437   2.047   1.155   4.665
 2373SOL     OW 7438   2.482   1.786   5.163
 2373SOL    HW1 7439   2.390   1.769   5.198
 2373SOL    HW2 7440   2.510   1.878   5.189
 2374SOL     OW 7441   2.468   0.964   3.847
 2374SOL    HW1 7442   2.475   1.048   3.793
 2374SOL    HW2 7443   2.514   0.977   3.935
 2375SOL     OW 7444   3.456   0.114   5.204
 2375SOL    HW1 7445   3.438   0.181   5.132
 2375SOL    HW2 7446   3.453   0.160   5.293
 2376SOL     OW 7447   1.984   0.643   4.287
 2376SOL    HW1 7448   1.939   0.555   4.304
 2376SOL    HW2 7449   1.983   0.697   4.371
 2377SOL     OW 7450   3.704   1.767   4.083
 2377SOL    HW1 7451   3.758   1.738   4.163
 2377SOL    HW2 7452   3.734   1.857   4.054
 2378SOL     OW 7453   1.889   1.596   3.841
 2378SOL    HW1 7454   1.870   1.500   3.862
 2378SOL    HW2 7455   1.856   1.654   3.916
 2379SOL     OW 7456   3.551   0.922   4.336
 2379SOL    HW1 7457   3.646   0.893   4.344
 2379SOL    HW2 7458   3.543   0.987   4.261
 2380SOL     OW 7459   3.503   1.108   4.156
 2380SOL    HW1 7460   3.589   1.110   4.104
 2380SOL    HW2 7461   3.517   1.155   4.244
 2381SOL     OW 7462   1.975   0.737   5.321
 2381SOL    HW1 7463   2.063   0.724   5.366
 2381SOL    HW2 7464   1.962   0.834   5.299
 2382SOL     OW 7465   2.475   1.365   4.450
 2382SOL    HW1 7466   2.426   1.278   4.459
 2382SOL    HW2 7467   2.452   1.408   4.363
 2383SOL     OW 7468   3.155   1.228   5.147
 2383SOL    HW1 7469   3.192   1.155   5.089
 2383SOL    HW2 7470   3.207   1.233   5.232
 2384SOL     OW 7471   2.671   0.004   4.226
 2384SOL    HW1 7472   2.711   0.095   4.217
 2384SOL    HW2 7473   2.571   0.012   4.232
 2385SOL     OW 7474   2.059   0.976   4.988
 2385SOL    HW1 7475   2.148   0.931   4.974
 2385SOL    HW2 7476   1.986   0.911   4.969
 2386SOL     OW 7477   3.387   0.999   3.914
 2386SOL    HW1 7478   3.324   0.923   3.927
 2386SOL    HW2 7479   3.435   1.017   4.000
 2387SOL     OW 7480   3.049   1.792   5.340
 2387SOL    HW1 7481   3.073   1.852   5.264
 2387SOL    HW2 7482   3.056   1.697   5.310
 2388SOL     OW 7483   2.179   0.251   5.525
 2388SOL    HW1 7484   2.250   0.322   5.531
 2388SOL    HW2 7485   2.091   0.290   5.553
 2389SOL     OW 7486   3.328   1.417   4.677
 2389SOL    HW1 7487   3.269   1.423   4.757
 2389SOL    HW2 7488   3.313   1.329   4.631
 2390SOL     OW 7489   3.529   1.714   4.296
 2390SOL    HW1 7490   3.488   1.691   4.208
 2390SOL    HW2 7491   3.511   1.640   4.361
 2391SOL     OW 7492   2.460   0.729   3.994
 2391SOL    HW1 7493   2.484   0.798   3.926
 2391SOL    HW2 7494   2.382   0.762   4.048
 2392SOL     OW 7495   3.143   0.345   4.668
 2392SOL    HW1 7496   3.057   0.295   4.655
 2392SOL    HW2 7497   3.205   0.291   4.724
 2393SOL     OW 7498   3.438   1.662   4.031
 2393SOL    HW1 7499   3.527   1.708   4.034
 2393SOL    HW2 7500   3.417   1.638   3.936
 2394SOL     OW 7501   2.669   0.605   5.189
 2394SOL    HW1 7502   2.622   0.602   5.278
 2394SOL    HW2 7503   2.618   0.550   5.123
 2395SOL     OW 7504   3.256   0.469   5.398
 2395SOL    HW1 7505   3.236   0.512   5.486
 2395SOL    HW2 7506   3.334   0.407   5.407
 2396SOL     OW 7507   2.835   0.890   5.296
 2396SOL    HW1 7508   2.881   0.806   5.267
 2396SOL    HW2 7509   2.779   0.924   5.221
 2397SOL     OW 7510   2.853   0.410   4.966
 2397SOL    HW1 7511   2.776   0.444   5.020
 2397SOL    HW2 7512   2.819   0.359   4.887
 2398SOL     OW 7513   2.903   0.701   4.153
 2398SOL    HW1 7514   2.929   0.697   4.249
 2398SOL    HW2 7515   2.818   0.650   4.139
 2399SOL     OW 7516   1.938   0.811   4.513
 2399SOL    HW1 7517   2.037   0.799   4.522
 2399SOL    HW2 7518   1.914   0.906   4.534
 2400SOL     OW 7519   1.992   1.821   5.295
 2400SOL    HW1 7520   1.982   1.806   5.394
 2400SOL    HW2 7521   1.906   1.857   5.259
 2401SOL     OW 7522   2.727   0.348   3.919
 2401SOL    HW1 7523   2.786   0.411   3.870
 2401SOL    HW2 7524   2.746   0.254   3.890
 2402SOL     OW 7525   3.581   0.585   5.555
 2402SOL    HW1 7526   3.555   0.674   5.519
 2402SOL    HW2 7527   3.579   0.517   5.482
 2403SOL     OW 7528   3.224   1.144   4.269
 2403SOL    HW1 7529   3.307   1.115   4.221
 2403SOL    HW2 7530   3.175   1.211   4.213
 2404SOL     OW 7531   2.412   0.196   4.609
 2404SOL    HW1 7532   2.407   0.191   4.709
 2404SOL    HW2 7533   2.414   0.292   4.580
 2405SOL     OW 7534   2.870   1.456   4.201
 2405SOL    HW1 7535   2.824   1.528   4.149
 2405SOL    HW2 7536   2.866   1.476   4.299
 2406SOL     OW 7537   2.213   1.801   4.577
 2406SOL    HW1 7538   2.263   1.715   4.583
 2406SOL    HW2 7539   2.278   1.878   4.574
 2407SOL     OW 7540   3.657   1.066   4.597
 2407SOL    HW1 7541   3.595   1.051   4.521
 2407SOL    HW2 7542   3.605   1.077   4.682
 2408SOL     OW 7543   3.089   1.550   5.230
 2408SOL    HW1 7544   3.095   1.473   5.294
 2408SOL    HW2 7545   3.037   1.524   5.150
 2409SOL     OW 7546   2.183   0.943   3.966
 2409SOL    HW1 7547   2.265   0.982   3.924
 2409SOL    HW2 7548   2.156   0.861   3.917
 2410SOL     OW 7549   3.320   0.735   4.452
 2410SOL    HW1 7550   3.315   0.670   4.527
 2410SOL    HW2 7551   3.400   0.794   4.465
 2411SOL     OW 7552   2.323   1.266   5.451
 2411SOL    HW1 7553   2.273   1.267   5.365
 2411SOL    HW2 7554   2.260   1.248   5.527
 2412SOL     OW 7555   2.973   1.776   3.961
 2412SOL    HW1 7556   2.913   1.714   4.011
 2412SOL    HW2 7557   3.004   1.732   3.876
 2413SOL     OW 7558   2.064   0.285   5.222
 2413SOL    HW1 7559   1.984   0.345   5.209
 2413SOL    HW2 7560   2.054   0.236   5.308
 2414SOL     OW 7561   3.494   1.377   3.805
 2414SOL    HW1 7562   3.462   1.471   3.795
 2414SOL    HW2 7563   3.418   1.314   3.793
 2415SOL     OW 7564   2.326   1.743   4.047
 2415SOL    HW1 7565   2.359   1.782   4.133
 2415SOL    HW2 7566   2.402   1.736   3.982
 2416SOL     OW 7567   3.262   0.107   4.150
 2416SOL    HW1 7568   3.238   0.070   4.060
 2416SOL    HW2 7569   3.361   0.123   4.154
 2417SOL     OW 7570   2.111   1.785   4.965
 2417SOL    HW1 7571   2.168   1.720   5.015
 2417SOL    HW2 7572   2.095   1.752   4.872
 2418SOL     OW 7573   2.802   1.698   4.628
 2418SOL    HW1 7574   2.882   1.641   4.649
 2418SOL    HW2 7575   2.753   1.658   4.551
 2419SOL     OW 7576   2.244   0.700   4.204
 2419SOL    HW1 7577   2.289   0.610   4.201
 2419SOL    HW2 7578   2.150   0.689   4.237
 2420SOL     OW 7579   3.409   0.222   5.453
 2420SOL    HW1 7580   3.404   0.259   5.545
 2420SOL    HW2 7581   3.337   0.153   5.441
 2421SOL     OW 7582   2.476   0.122   3.841
 2421SOL    HW1 7583   2.574   0.100   3.848
 2421SOL    HW2 7584   2.445   0.105   3.748
 2422SOL     OW 7585   2.643   0.264   5.473
 2422SOL    HW1 7586   2.710   0.203   5.516
 2422SOL    HW2 7587   2.570   0.283   5.538
 2423SOL     OW 7588   2.750   1.514   4.919
 2423SOL    HW1 7589   2.727   1.489   4.825
 2423SOL    HW2 7590   2.811   1.445   4.958
 2424SOL     OW 7591   3.213   0.590   5.157
 2424SOL    HW1 7592   3.241   0.547   5.242
 2424SOL    HW2 7593   3.238   0.686   5.158
 2425SOL     OW 7594   2.665   1.402   4.648
 2425SOL    HW1 7595   2.755   1.416   4.606
 2425SOL    HW2 7596   2.594   1.404   4.577
 2426SOL     OW 7597   2.784   0.503   4.623
 2426SOL    HW1 7598   2.759   0.494   4.527
 2426SOL    HW2 7599   2.832   0.421   4.654
 2427SOL     OW 7600   2.401   0.064   4.236
 2427SOL    HW1 7601   2.320   0.065   4.294
 2427SOL    HW2 7602   2.404   0.147   4.181
 2428SOL     OW 7603   3.296   1.188   3.765
 2428SOL    HW1 7604   3.328   1.112   3.822
 2428SOL    HW2 7605   3.204   1.215   3.795
 2429SOL     OW 7606   2.159   0.035   3.895
 2429SOL    HW1 7607   2.208   0.119   3.874
 2429SOL    HW2 7608   2.221  -0.030   3.940
 2430SOL     OW 7609   2.797   0.236   4.204
 2430SOL    HW1 7610   2.749   0.277   4.126
 2430SOL    HW2 7611   2.896   0.234   4.185
 2431SOL     OW 7612   2.938   0.683   5.188
 2431SOL    HW1 7613   2.858   0.622   5.191
 2431SOL    HW2 7614   3.019   0.630   5.164
 2432SOL     OW 7615   3.089   1.570   4.517
 2432SOL    HW1 7616   3.110   1.644   4.452
 2432SOL    HW2 7617   3.157   1.570   4.590
 2433SOL     OW 7618   2.321   1.152   4.465
 2433SOL    HW1 7619   2.250   1.125   4.530
 2433SOL    HW2 7620   2.295   1.124   4.372
 2434SOL     OW 7621   3.133   1.797   4.315
 2434SOL    HW1 7622   3.177   1.861   4.251
 2434SOL    HW2 7623   3.083   1.849   4.385
 2435SOL     OW 7624   2.894   0.549   3.740
 2435SOL    HW1 7625   2.853   0.631   3.701
 2435SOL    HW2 7626   2.958   0.575   3.813
 2436SOL     OW 7627   1.940   0.556   5.110
 2436SOL    HW1 7628   2.032   0.555   5.069
 2436SOL    HW2 7629   1.934   0.630   5.177
 2437SOL     OW 7630   2.423   0.222   4.871
 2437SOL    HW1 7631   2.461   0.138   4.908
 2437SOL    HW2 7632   2.335   0.241   4.915
 2438SOL     OW 7633   2.728   0.454   4.366
 2438SOL    HW1 7634   2.696   0.526   4.304
 2438SOL    HW2 7635   2.752   0.373   4.313
 2439SOL     OW 7636   2.879   0.039   4.477
 2439SOL    HW1 7637   2.807   0.044   4.408
 2439SOL    HW2 7638   2.855  -0.030   4.546
 2440SOL     OW 7639   3.291   1.173   4.591
 2440SOL    HW1 7640   3.236   1.089   4.584
 2440SOL    HW2 7641   3.317   1.202   4.499
 2441SOL     OW 7642   3.328   0.590   4.716
 2441SOL    HW1 7643   3.298   0.495   4.723
 2441SOL    HW2 7644   3.401   0.606   4.782
 2442SOL     OW 7645   3.719   0.833   4.101
 2442SOL    HW1 7646   3.761   0.769   4.165
 2442SOL    HW2 7647   3.681   0.782   4.023
 2443SOL     OW 7648   2.350   1.385   3.898
 2443SOL    HW1 7649   2.263   1.370   3.945
 2443SOL    HW2 7650   2.333   1.411   3.803
 2444SOL     OW 7651   3.526   1.280   4.381
 2444SOL    HW1 7652   3.625   1.288   4.395
 2444SOL    HW2 7653   3.481   1.364   4.412
 2445SOL     OW 7654   3.252   0.575   3.802
 2445SOL    HW1 7655   3.198   0.554   3.883
 2445SOL    HW2 7656   3.343   0.534   3.811
 2446SOL     OW 7657   2.389   0.256   4.052
 2446SOL    HW1 7658   2.416   0.197   3.977
 2446SOL    HW2 7659   2.389   0.351   4.021
 2447SOL     OW 7660   3.616   1.223   5.312
 2447SOL    HW1 7661   3.707   1.184   5.299
 2447SOL    HW2 7662   3.624   1.319   5.336
 2448SOL     OW 7663   2.926   1.347   5.064
 2448SOL    HW1 7664   2.846   1.324   5.119
 2448SOL    HW2 7665   3.009   1.321   5.113
 2449SOL     OW 7666   3.454   1.629   5.349
 2449SOL    HW1 7667   3.481   1.663   5.259
 2449SOL    HW2 7668   3.533   1.591   5.395
 2450SOL     OW 7669   2.973   1.195   4.824
 2450SOL    HW1 7670   2.933   1.239   4.905
 2450SOL    HW2 7671   2.932   1.232   4.741
 2451SOL     OW 7672   3.500   1.099   4.803
 2451SOL    HW1 7673   3.505   1.180   4.862
 2451SOL    HW2 7674   3.414   1.101   4.752
 2452SOL     OW 7675   2.777   0.089   5.126
 2452SOL    HW1 7676   2.802   0.069   5.031
 2452SOL    HW2 7677   2.849   0.145   5.168
 2453SOL     OW 7678   2.842   1.116   5.443
 2453SOL    HW1 7679   2.743   1.122   5.453
 2453SOL    HW2 7680   2.865   1.036   5.387
 2454SOL     OW 7681   2.567   1.050   4.092
 2454SOL    HW1 7682   2.553   1.057   4.191
 2454SOL    HW2 7683   2.651   0.999   4.074
 2455SOL     OW 7684   2.272   0.813   4.975
 2455SOL    HW1 7685   2.358   0.825   5.025
 2455SOL    HW2 7686   2.230   0.726   5.002
 2456SOL     OW 7687   3.136   0.386   4.986
 2456SOL    HW1 7688   3.157   0.460   5.050
 2456SOL    HW2 7689   3.047   0.403   4.943
 2457SOL     OW 7690   1.926   1.564   5.055
 2457SOL    HW1 7691   1.880   1.646   5.021
 2457SOL    HW2 7692   2.024   1.583   5.064
 2458SOL     OW 7693   2.229   1.100   4.225
 2458SOL    HW1 7694   2.222   1.183   4.169
 2458SOL    HW2 7695   2.233   1.020   4.165
 2459SOL     OW 7696   2.428   0.537   4.589
 2459SOL    HW1 7697   2.440   0.603   4.515
 2459SOL    HW2 7698   2.474   0.571   4.672
 2460SOL     OW 7699   3.114   1.348   4.112
 2460SOL    HW1 7700   3.164   1.425   4.152
 2460SOL    HW2 7701   3.019   1.350   4.144
 2461SOL     OW 7702   3.134   1.445   4.866
 2461SOL    HW1 7703   3.181   1.458   4.953
 2461SOL    HW2 7704   3.068   1.371   4.875
 2462SOL     OW 7705   3.444   0.639   4.196
 2462SOL    HW1 7706   3.413   0.700   4.269
 2462SOL    HW2 7707   3.494   0.691   4.127
 2463SOL     OW 7708   2.216   1.510   5.053
 2463SOL    HW1 7709   2.195   1.466   4.966
 2463SOL    HW2 7710   2.313   1.536   5.056
 2464SOL     OW 7711   2.264   0.751   5.322
 2464SOL    HW1 7712   2.332   0.806   5.275
 2464SOL    HW2 7713   2.304   0.663   5.349
 2465SOL     OW 7714   3.449   0.779   5.394
 2465SOL    HW1 7715   3.357   0.817   5.389
 2465SOL    HW2 7716   3.509   0.826   5.329
 2466SOL     OW 7717   2.875   0.105   5.494
 2466SOL    HW1 7718   2.881   0.190   5.442
 2466SOL    HW2 7719   2.907   0.029   5.437
 2467SOL     OW 7720   2.366   0.050   5.464
 2467SOL    HW1 7721   2.324  -0.007   5.394
 2467SOL    HW2 7722   2.300   0.119   5.496
 2468SOL     OW 7723   2.435   0.870   4.753
 2468SOL    HW1 7724   2.479   0.959   4.744
 2468SOL    HW2 7725   2.372   0.870   4.830
 2469SOL     OW 7726   3.222   0.862   4.769
 2469SOL    HW1 7727   3.147   0.862   4.703
 2469SOL    HW2 7728   3.259   0.770   4.778
 2470SOL     OW 7729   3.071   0.525   3.999
 2470SOL    HW1 7730   3.084   0.441   4.053
 2470SOL    HW2 7731   3.042   0.599   4.059
 2471SOL     OW 7732   2.169   0.213   4.955
 2471SOL    HW1 7733   2.146   0.250   5.045
 2471SOL    HW2 7734   2.139   0.118   4.949
 2472SOL     OW 7735   1.899   1.310   5.006
 2472SOL    HW1 7736   1.952   1.261   5.074
 2472SOL    HW2 7737   1.921   1.408   5.011
 2473SOL     OW 7738   2.594   0.634   4.788
 2473SOL    HW1 7739   2.653   0.608   4.712
 2473SOL    HW2 7740   2.566   0.730   4.777
 2474SOL     OW 7741   3.590   0.935   5.578
 2474SOL    HW1 7742   3.544   0.928   5.489
 2474SOL    HW2 7743   3.528   0.979   5.644
 2475SOL     OW 7744   2.169   0.063   4.342
 2475SOL    HW1 7745   2.158   0.157   4.375
 2475SOL    HW2 7746   2.164   0.000   4.419
 2476SOL     OW 7747   3.484   0.367   4.098
 2476SOL    HW1 7748   3.486   0.291   4.162
 2476SOL    HW2 7749   3.436   0.444   4.138
 2477SOL     OW 7750   2.885   0.766   4.690
 2477SOL    HW1 7751   2.900   0.787   4.786
 2477SOL    HW2 7752   2.855   0.671   4.681
 2478SOL     OW 7753   2.842   1.573   5.424
 2478SOL    HW1 7754   2.822   1.617   5.336
 2478SOL    HW2 7755   2.881   1.482   5.408
 2479SOL     OW 7756   3.721   1.518   5.329
 2479SOL    HW1 7757   3.735   1.545   5.234
 2479SOL    HW2 7758   3.804   1.540   5.382
 2480SOL     OW 7759   2.212   0.898   5.528
 2480SOL    HW1 7760   2.288   0.942   5.576
 2480SOL    HW2 7761   2.247   0.851   5.446
 2481SOL     OW 7762   3.402   0.274   3.849
 2481SOL    HW1 7763   3.341   0.199   3.872
 2481SOL    HW2 7764   3.424   0.326   3.932
 2482SOL     OW 7765   3.165   0.838   3.766
 2482SOL    HW1 7766   3.199   0.745   3.781
 2482SOL    HW2 7767   3.183   0.865   3.671
 2483SOL     OW 7768   2.930   1.333   4.573
 2483SOL    HW1 7769   2.937   1.249   4.518
 2483SOL    HW2 7770   2.992   1.402   4.537
 2484SOL     OW 7771   2.181   0.810   4.673
 2484SOL    HW1 7772   2.274   0.846   4.678
 2484SOL    HW2 7773   2.175   0.725   4.725
 2485SOL     OW 7774   2.201   0.509   4.730
 2485SOL    HW1 7775   2.149   0.426   4.713
 2485SOL    HW2 7776   2.278   0.514   4.666
 2486SOL     OW 7777   3.000   0.380   5.402
 2486SOL    HW1 7778   2.955   0.443   5.466
 2486SOL    HW2 7779   3.093   0.411   5.385
 2487SOL     OW 7780   3.022   0.207   5.201
 2487SOL    HW1 7781   3.022   0.271   5.278
 2487SOL    HW2 7782   3.050   0.255   5.118
 2488SOL     OW 7783   1.870   1.326   3.924
 2488SOL    HW1 7784   1.777   1.347   3.893
 2488SOL    HW2 7785   1.880   1.227   3.937
 2489SOL     OW 7786   1.950   1.801   4.651
 2489SOL    HW1 7787   1.908   1.715   4.624
 2489SOL    HW2 7788   2.044   1.804   4.617
 2490SOL     OW 7789   2.366   1.568   4.634
 2490SOL    HW1 7790   2.432   1.642   4.643
 2490SOL    HW2 7791   2.410   1.489   4.592
 2491SOL     OW 7792   2.864   0.796   4.962
 2491SOL    HW1 7793   2.905   0.764   5.048
 2491SOL    HW2 7794   2.768   0.769   4.959
 2492SOL     OW 7795   1.902   0.544   4.838
 2492SOL    HW1 7796   1.987   0.511   4.797
 2492SOL    HW2 7797   1.915   0.559   4.936
 2493SOL     OW 7798   2.051   0.520   5.446
 2493SOL    HW1 7799   2.110   0.480   5.376
 2493SOL    HW2 7800   1.993   0.591   5.405
 2494SOL     OW 7801   3.231   0.950   5.384
 2494SOL    HW1 7802   3.270   1.039   5.404
 2494SOL    HW2 7803   3.241   0.930   5.287
 2495SOL     OW 7804   2.677   0.572   4.049
 2495SOL    HW1 7805   2.684   0.483   4.003
 2495SOL    HW2 7806   2.583   0.606   4.041
 2496SOL     OW 7807   3.519   0.604   4.930
 2496SOL    HW1 7808   3.481   0.535   4.992
 2496SOL    HW2 7809   3.601   0.568   4.886
 2497SOL     OW 7810   2.114   1.564   5.468
 2497SOL    HW1 7811   2.084   1.621   5.544
 2497SOL    HW2 7812   2.107   1.467   5.494
 2498SOL     OW 7813   2.533   0.464   4.993
 2498SOL    HW1 7814   2.499   0.375   4.963
 2498SOL    HW2 7815   2.559   0.518   4.913
 2499SOL     OW 7816   2.792   1.678   5.189
 2499SOL    HW1 7817   2.768   1.660   5.094
 2499SOL    HW2 7818   2.822   1.772   5.199
 2500SOL     OW 7819   2.335   0.500   3.915
 2500SOL    HW1 7820   2.396   0.580   3.919
 2500SOL    HW2 7821   2.240   0.531   3.922
 2501SOL     OW 7822   2.021   1.137   5.190
 2501SOL    HW1 7823   2.043   1.076   5.266
 2501SOL    HW2 7824   2.031   1.088   5.104
 2502SOL     OW 7825   3.209   1.059   4.958
 2502SOL    HW1 7826   3.233   0.996   4.884
 2502SOL    HW2 7827   3.119   1.099   4.940
 2503SOL     OW 7828   3.164   0.855   4.033
 2503SOL    HW1 7829   3.078   0.824   4.075
 2503SOL    HW2 7830   3.160   0.841   3.934
 2504SOL     OW 7831   3.621   1.747   4.878
 2504SOL    HW1 7832   3.682   1.777   4.805
 2504SOL    HW2 7833   3.583   1.658   4.856
 2505SOL     OW 7834   3.114   1.731   4.852
 2505SOL    HW1 7835   3.198   1.736   4.798
 2505SOL    HW2 7836   3.091   1.635   4.870
 2506SOL     OW 7837   1.945   1.258   4.746
 2506SOL    HW1 7838   1.940   1.257   4.846
 2506SOL    HW2 7839   1.862   1.217   4.708
 2507SOL     OW 7840   2.550   1.662   5.440
 2507SOL    HW1 7841   2.494   1.743   5.449
 2507SOL    HW2 7842   2.602   1.666   5.354
 2508SOL     OW 7843   3.588   0.135   4.247
 2508SOL    HW1 7844   3.661   0.118   4.180
 2508SOL    HW2 7845   3.557   0.048   4.285
 2509SOL     OW 7846   3.250   1.573   4.201
 2509SOL    HW1 7847   3.317   1.585   4.127
 2509SOL    HW2 7848   3.210   1.662   4.224
 2510SOL     OW 7849   1.992   1.794   5.575
 2510SOL    HW1 7850   1.951   1.720   5.628
 2510SOL    HW2 7851   2.056   1.845   5.633
 2511SOL     OW 7852   3.142   0.927   4.396
 2511SOL    HW1 7853   3.202   0.846   4.398
 2511SOL    HW2 7854   3.182   0.996   4.336
 2512SOL     OW 7855   2.692   1.273   5.146
 2512SOL    HW1 7856   2.687   1.306   5.241
 2512SOL    HW2 7857   2.606   1.292   5.100
 2513SOL     OW 7858   2.534   1.616   3.878
 2513SOL    HW1 7859   2.543   1.626   3.779
 2513SOL    HW2 7860   2.494   1.527   3.899
 2514SOL     OW 7861   3.512   1.720   5.118
 2514SOL    HW1 7862   3.565   1.730   5.034
 2514SOL    HW2 7863   3.485   1.810   5.152
 2515SOL     OW 7864   3.703   0.175   4.687
 2515SOL    HW1 7865   3.742   0.090   4.651
 2515SOL    HW2 7866   3.605   0.177   4.668
 2516SOL     OW 7867   2.125   0.326   4.444
 2516SOL    HW1 7868   2.046   0.377   4.410
 2516SOL    HW2 7869   2.116   0.311   4.542
 2517SOL     OW 7870   3.056   1.612   3.755
 2517SOL    HW1 7871   3.062   1.519   3.792
 2517SOL    HW2 7872   2.997   1.612   3.675
 2518SOL     OW 7873   2.684   1.002   5.096
 2518SOL    HW1 7874   2.724   1.001   5.004
 2518SOL    HW2 7875   2.694   1.094   5.136
 2519SOL     OW 7876   2.778   0.910   4.015
 2519SOL    HW1 7877   2.841   0.948   3.947
 2519SOL    HW2 7878   2.818   0.827   4.054
 2520SOL     OW 7879   3.366   1.607   3.768
 2520SOL    HW1 7880   3.274   1.644   3.775
 2520SOL    HW2 7881   3.404   1.627   3.678
 2521SOL     OW 7882   2.234   1.288   5.214
 2521SOL    HW1 7883   2.221   1.381   5.180
 2521SOL    HW2 7884   2.150   1.236   5.201
 2522SOL     OW 7885   3.476   1.292   5.013
 2522SOL    HW1 7886   3.536   1.295   5.093
 2522SOL    HW2 7887   3.401   1.356   5.026
 2523SOL     OW 7888   2.901   1.098   4.420
 2523SOL    HW1 7889   2.831   1.051   4.474
 2523SOL    HW2 7890   2.960   1.030   4.377
 2524SOL     OW 7891   2.876   0.236   4.695
 2524SOL    HW1 7892   2.868   0.200   4.602
 2524SOL    HW2 7893   2.874   0.160   4.760
 2525SOL     OW 7894   2.452   1.487   4.215
 2525SOL    HW1 7895   2.494   1.429   4.145
 2525SOL    HW2 7896   2.408   1.566   4.171
 2526SOL     OW 7897   3.571   0.385   5.105
 2526SOL    HW1 7898   3.644   0.454   5.109
 2526SOL    HW2 7899   3.599   0.310   5.046
 2527SOL     OW 7900   2.117   1.348   4.014
 2527SOL    HW1 7901   2.021   1.349   3.987
 2527SOL    HW2 7902   2.129   1.401   4.098
 2528SOL     OW 7903   1.967   1.013   5.450
 2528SOL    HW1 7904   1.890   0.980   5.504
 2528SOL    HW2 7905   2.052   0.983   5.492
 2529SOL     OW 7906   2.534   0.203   5.213
 2529SOL    HW1 7907   2.624   0.187   5.173
 2529SOL    HW2 7908   2.542   0.208   5.312
 2530SOL     OW 7909   1.937   0.345   3.757
 2530SOL    HW1 7910   1.845   0.317   3.728
 2530SOL    HW2 7911   1.968   0.422   3.701
 2531SOL     OW 7912   3.302   0.856   5.122
 2531SOL    HW1 7913   3.245   0.908   5.059
 2531SOL    HW2 7914   3.398   0.868   5.098
 2532SOL     OW 7915   1.934   0.166   4.042
 2532SOL    HW1 7916   1.917   0.249   3.988
 2532SOL    HW2 7917   2.024   0.129   4.020
 2533SOL     OW 7918   3.045   1.335   3.843
 2533SOL    HW1 7919   2.946   1.324   3.845
 2533SOL    HW2 7920   3.079   1.350   3.936
 2534SOL     OW 7921   2.475   0.842   5.155
 2534SOL    HW1 7922   2.531   0.923   5.138
 2534SOL    HW2 7923   2.534   0.762   5.158
 2535SOL     OW 7924   3.355   1.767   4.683
 2535SOL    HW1 7925   3.388   1.831   4.614
 2535SOL    HW2 7926   3.421   1.761   4.758
 2536SOL     OW 7927   2.578   0.565   5.432
 2536SOL    HW1 7928   2.597   0.630   5.506
 2536SOL    HW2 7929   2.638   0.485   5.441
 2537SOL     OW 7930   3.312   1.220   5.357
 2537SOL    HW1 7931   3.303   1.210   5.456
 2537SOL    HW2 7932   3.408   1.213   5.331
 2538SOL     OW 7933   2.252   1.741   5.284
 2538SOL    HW1 7934   2.161   1.782   5.282
 2538SOL    HW2 7935   2.245   1.647   5.316
 2539SOL     OW 7936   3.536   0.883   4.978
 2539SOL    HW1 7937   3.509   0.794   4.941
 2539SOL    HW2 7938   3.537   0.951   4.905
 2540SOL     OW 7939   3.087   0.325   4.173
 2540SOL    HW1 7940   3.152   0.251   4.162
 2540SOL    HW2 7941   3.107   0.375   4.257
 2541SOL     OW 7942   2.456   0.745   4.376
 2541SOL    HW1 7943   2.506   0.830   4.357
 2541SOL    HW2 7944   2.368   0.747   4.328
 2542SOL     OW 7945   3.639   0.342   5.366
 2542SOL    HW1 7946   3.622   0.373   5.272
 2542SOL    HW2 7947   3.555   0.305   5.404
 2543SOL     OW 7948   3.592   0.934   5.241
 2543SOL    HW1 7949   3.630   1.025   5.256
 2543SOL    HW2 7950   3.584   0.917   5.142
 2544SOL     OW 7951   2.721   1.374   3.740
 2544SOL    HW1 7952   2.675   1.389   3.828
 2544SOL    HW2 7953   2.765   1.459   3.710
 2545SOL     OW 7954   2.523   1.790   4.677
 2545SOL    HW1 7955   2.477   1.878   4.664
 2545SOL    HW2 7956   2.622   1.802   4.670
 2546SOL     OW 7957   2.721   0.956   4.585
 2546SOL    HW1 7958   2.775   0.887   4.633
 2546SOL    HW2 7959   2.689   1.025   4.651
 2547SOL     OW 7960   2.945   0.984   3.811
 2547SOL    HW1 7961   2.922   1.037   3.729
 2547SOL    HW2 7962   3.026   0.928   3.792
 2548SOL     OW 7963   3.723   1.569   4.575
 2548SOL    HW1 7964   3.652   1.557   4.505
 2548SOL    HW2 7965   3.724   1.490   4.635
 2549SOL     OW 7966   2.083   1.314   5.568
 2549SOL    HW1 7967   2.018   1.241   5.547
 2549SOL    HW2 7968   2.087   1.328   5.666
 2550SOL     OW 7969   1.941   1.240   4.377
 2550SOL    HW1 7970   1.940   1.193   4.465
 2550SOL    HW2 7971   2.023   1.212   4.326
 2551SOL     OW 7972   2.534   1.391   5.348
 2551SOL    HW1 7973   2.456   1.341   5.386
 2551SOL    HW2 7974   2.531   1.486   5.379
 2552SOL     OW 7975   3.686   0.192   4.951
 2552SOL    HW1 7976   3.682   0.102   4.995
 2552SOL    HW2 7977   3.689   0.181   4.852
 2553SOL     OW 7978   2.290   0.424   4.244
 2553SOL    HW1 7979   2.320   0.352   4.182
 2553SOL    HW2 7980   2.251   0.384   4.327
 2554SOL     OW 7981   3.567   1.487   4.828
 2554SOL    HW1 7982   3.474   1.462   4.801
 2554SOL    HW2 7983   3.593   1.437   4.910
 2555SOL     OW 7984   2.179   0.547   5.004
 2555SOL    HW1 7985   2.217   0.488   5.076
 2555SOL    HW2 7986   2.219   0.521   4.916
 2556SOL     OW 7987   2.674   1.586   4.411
 2556SOL    HW1 7988   2.706   1.596   4.317
 2556SOL    HW2 7989   2.595   1.524   4.413
 2557SOL     OW 7990   3.286   0.214   4.836
 2557SOL    HW1 7991   3.338   0.149   4.891
 2557SOL    HW2 7992   3.237   0.277   4.897
 2558SOL     OW 7993   2.863   0.034   4.878
 2558SOL    HW1 7994   2.800  -0.038   4.847
 2558SOL    HW2 7995   2.956  -0.002   4.878
 2559SOL     OW 7996   2.632   1.330   4.025
 2559SOL    HW1 7997   2.586   1.243   4.042
 2559SOL    HW2 7998   2.723   1.327   4.066
 2560SOL     OW 7999   2.480   1.567   5.008
 2560SOL    HW1 8000   2.475   1.649   5.065
 2560SOL    HW2 8001   2.569   1.564   4.963
 2561SOL     OW 8002   3.214   0.052   3.892
 2561SOL    HW1 8003   3.249   0.011   3.808
 2561SOL    HW2 8004   3.124   0.014   3.912
 2562SOL     OW 8005   3.162   0.453   4.415
 2562SOL    HW1 8006   3.103   0.533   4.419
 2562SOL    HW2 8007   3.177   0.418   4.508
 2563SOL     OW 8008   3.455   0.221   4.606
 2563SOL    HW1 8009   3.371   0.220   4.660
 2563SOL    HW2 8010   3.457   0.304   4.550
 2564SOL     OW 8011   1.901   1.077   4.024
 2564SOL    HW1 8012   2.000   1.066   4.015
 2564SOL    HW2 8013   1.861   0.991   4.056
 2565SOL     OW 8014   2.737   1.646   4.061
 2565SOL    HW1 8015   2.660   1.611   4.007
 2565SOL    HW2 8016   2.705   1.717   4.123
 2566SOL     OW 8017   2.092   2.490   0.113
 2566SOL    HW1 8018   1.999   2.488   0.150
 2566SOL    HW2 8019   2.093   2.451   0.021
 2567SOL     OW 8020   2.087   2.137   0.996
 2567SOL    HW1 8021   2.122   2.120   1.088
 2567SOL    HW2 8022   1.999   2.092   0.984
 2568SOL     OW 8023   1.881   2.230   0.647
 2568SOL    HW1 8024   1.799   2.273   0.686
 2568SOL    HW2 8025   1.853   2.157   0.584
 2569SOL     OW 8026   2.431   3.137   1.165
 2569SOL    HW1 8027   2.338   3.130   1.128
 2569SOL    HW2 8028   2.442   3.226   1.209
 2570SOL     OW 8029   3.417   3.373   0.703
 2570SOL    HW1 8030   3.360   3.357   0.784
 2570SOL    HW2 8031   3.358   3.383   0.623
 2571SOL     OW 8032   2.997   2.565   0.717
 2571SOL    HW1 8033   3.054   2.643   0.692
 2571SOL    HW2 8034   2.937   2.591   0.793
 2572SOL     OW 8035   3.617   2.469   0.231
 2572SOL    HW1 8036   3.605   2.456   0.132
 2572SOL    HW2 8037   3.587   2.388   0.280
 2573SOL     OW 8038   2.630   3.006   1.023
 2573SOL    HW1 8039   2.552   3.023   1.083
 2573SOL    HW2 8040   2.664   3.093   0.987
 2574SOL     OW 8041   2.547   2.874   0.665
 2574SOL    HW1 8042   2.616   2.858   0.735
 2574SOL    HW2 8043   2.474   2.931   0.703
 2575SOL     OW 8044   2.197   3.297   1.061
 2575SOL    HW1 8045   2.119   3.266   1.008
 2575SOL    HW2 8046   2.255   3.355   1.004
 2576SOL     OW 8047   2.300   2.254   1.499
 2576SOL    HW1 8048   2.382   2.198   1.508
 2576SOL    HW2 8049   2.219   2.196   1.503
 2577SOL     OW 8050   3.465   2.309   0.737
 2577SOL    HW1 8051   3.391   2.355   0.687
 2577SOL    HW2 8052   3.516   2.377   0.790
 2578SOL     OW 8053   2.093   3.575   0.483
 2578SOL    HW1 8054   2.127   3.652   0.537
 2578SOL    HW2 8055   2.137   3.575   0.393
 2579SOL     OW 8056   2.092   3.296   0.538
 2579SOL    HW1 8057   2.066   3.392   0.538
 2579SOL    HW2 8058   2.021   3.242   0.583
 2580SOL     OW 8059   2.102   2.953   0.886
 2580SOL    HW1 8060   2.116   2.869   0.938
 2580SOL    HW2 8061   2.047   3.017   0.941
 2581SOL     OW 8062   2.482   3.648   1.439
 2581SOL    HW1 8063   2.390   3.631   1.474
 2581SOL    HW2 8064   2.510   3.740   1.465
 2582SOL     OW 8065   2.468   2.826   0.123
 2582SOL    HW1 8066   2.475   2.910   0.069
 2582SOL    HW2 8067   2.514   2.839   0.211
 2583SOL     OW 8068   3.456   1.976   1.480
 2583SOL    HW1 8069   3.438   2.043   1.408
 2583SOL    HW2 8070   3.453   2.022   1.569
 2584SOL     OW 8071   1.984   2.505   0.563
 2584SOL    HW1 8072   1.939   2.417   0.580
 2584SOL    HW2 8073   1.983   2.559   0.647
 2585SOL     OW 8074   3.704   3.629   0.359
 2585SOL    HW1 8075   3.758   3.600   0.439
 2585SOL    HW2 8076   3.734   3.719   0.330
 2586SOL     OW 8077   1.889   3.458   0.117
 2586SOL    HW1 8078   1.870   3.362   0.138
 2586SOL    HW2 8079   1.856   3.516   0.192
 2587SOL     OW 8080   3.551   2.784   0.612
 2587SOL    HW1 8081   3.646   2.755   0.620
 2587SOL    HW2 8082   3.543   2.849   0.537
 2588SOL     OW 8083   3.503   2.970   0.432
 2588SOL    HW1 8084   3.589   2.972   0.380
 2588SOL    HW2 8085   3.517   3.017   0.520
 2589SOL     OW 8086   1.975   2.599   1.597
 2589SOL    HW1 8087   2.063   2.586   1.642
 2589SOL    HW2 8088   1.962   2.696   1.575
 2590SOL     OW 8089   2.475   3.227   0.726
 2590SOL    HW1 8090   2.426   3.140   0.735
 2590SOL    HW2 8091   2.452   3.270   0.639
 2591SOL     OW 8092   3.155   3.090   1.423
 2591SOL    HW1 8093   3.192   3.017   1.365
 2591SOL    HW2 8094   3.207   3.095   1.508
 2592SOL     OW 8095   2.671   1.866   0.502
 2592SOL    HW1 8096   2.711   1.957   0.493
 2592SOL    HW2 8097   2.571   1.874   0.508
 2593SOL     OW 8098   2.059   2.838   1.264
 2593SOL    HW1 8099   2.148   2.793   1.250
 2593SOL    HW2 8100   1.986   2.773   1.245
 2594SOL     OW 8101   3.387   2.861   0.190
 2594SOL    HW1 8102   3.324   2.785   0.203
 2594SOL    HW2 8103   3.435   2.879   0.276
 2595SOL     OW 8104   2.179   2.113   1.801
 2595SOL    HW1 8105   2.250   2.184   1.807
 2595SOL    HW2 8106   2.091   2.152   1.829
 2596SOL     OW 8107   3.328   3.279   0.953
 2596SOL    HW1 8108   3.269   3.285   1.033
 2596SOL    HW2 8109   3.313   3.191   0.907
 2597SOL     OW 8110   3.529   3.576   0.572
 2597SOL    HW1 8111   3.488   3.553   0.484
 2597SOL    HW2 8112   3.511   3.502   0.637
 2598SOL     OW 8113   2.460   2.591   0.270
 2598SOL    HW1 8114   2.484   2.660   0.202
 2598SOL    HW2 8115   2.382   2.624   0.324
 2599SOL     OW 8116   3.143   2.207   0.944
 2599SOL    HW1 8117   3.057   2.157   0.931
 2599SOL    HW2 8118   3.205   2.153   1.000
 2600SOL     OW 8119   3.438   3.524   0.307
 2600SOL    HW1 8120   3.527   3.570   0.310
 2600SOL    HW2 8121   3.417   3.500   0.212
 2601SOL     OW 8122   2.669   2.467   1.465
 2601SOL    HW1 8123   2.622   2.464   1.554
 2601SOL    HW2 8124   2.618   2.412   1.399
 2602SOL     OW 8125   3.256   2.331   1.674
 2602SOL    HW1 8126   3.236   2.374   1.762
 2602SOL    HW2 8127   3.334   2.269   1.683
 2603SOL     OW 8128   2.835   2.752   1.572
 2603SOL    HW1 8129   2.881   2.668   1.543
 2603SOL    HW2 8130   2.779   2.786   1.497
 2604SOL     OW 8131   2.853   2.272   1.242
 2604SOL    HW1 8132   2.776   2.306   1.296
 2604SOL    HW2 8133   2.819   2.221   1.163
 2605SOL     OW 8134   2.903   2.563   0.429
 2605SOL    HW1 8135   2.929   2.559   0.525
 2605SOL    HW2 8136   2.818   2.512   0.415
 2606SOL     OW 8137   1.938   2.673   0.789
 2606SOL    HW1 8138   2.037   2.661   0.798
 2606SOL    HW2 8139   1.914   2.768   0.810
 2607SOL     OW 8140   1.992   3.683   1.571
 2607SOL    HW1 8141   1.982   3.668   1.670
 2607SOL    HW2 8142   1.906   3.719   1.535
 2608SOL     OW 8143   2.727   2.210   0.195
 2608SOL    HW1 8144   2.786   2.273   0.146
 2608SOL    HW2 8145   2.746   2.116   0.166
 2609SOL     OW 8146   3.581   2.447   1.831
 2609SOL    HW1 8147   3.555   2.536   1.795
 2609SOL    HW2 8148   3.579   2.379   1.758
 2610SOL     OW 8149   3.224   3.006   0.545
 2610SOL    HW1 8150   3.307   2.977   0.497
 2610SOL    HW2 8151   3.175   3.073   0.489
 2611SOL     OW 8152   2.412   2.058   0.885
 2611SOL    HW1 8153   2.407   2.053   0.985
 2611SOL    HW2 8154   2.414   2.154   0.856
 2612SOL     OW 8155   2.870   3.318   0.477
 2612SOL    HW1 8156   2.824   3.390   0.425
 2612SOL    HW2 8157   2.866   3.338   0.575
 2613SOL     OW 8158   2.213   3.663   0.853
 2613SOL    HW1 8159   2.263   3.577   0.859
 2613SOL    HW2 8160   2.278   3.740   0.850
 2614SOL     OW 8161   3.657   2.928   0.873
 2614SOL    HW1 8162   3.595   2.913   0.797
 2614SOL    HW2 8163   3.605   2.939   0.958
 2615SOL     OW 8164   2.183   2.805   0.242
 2615SOL    HW1 8165   2.265   2.844   0.200
 2615SOL    HW2 8166   2.156   2.723   0.193
 2616SOL     OW 8167   3.320   2.597   0.728
 2616SOL    HW1 8168   3.315   2.532   0.803
 2616SOL    HW2 8169   3.400   2.656   0.741
 2617SOL     OW 8170   2.323   3.128   1.727
 2617SOL    HW1 8171   2.273   3.129   1.641
 2617SOL    HW2 8172   2.260   3.110   1.803
 2618SOL     OW 8173   2.973   3.638   0.237
 2618SOL    HW1 8174   2.913   3.576   0.287
 2618SOL    HW2 8175   3.004   3.594   0.152
 2619SOL     OW 8176   2.064   2.147   1.498
 2619SOL    HW1 8177   1.984   2.207   1.485
 2619SOL    HW2 8178   2.054   2.098   1.584
 2620SOL     OW 8179   3.494   3.239   0.081
 2620SOL    HW1 8180   3.462   3.333   0.071
 2620SOL    HW2 8181   3.418   3.176   0.069
 2621SOL     OW 8182   2.326   3.605   0.323
 2621SOL    HW1 8183   2.359   3.644   0.409
 2621SOL    HW2 8184   2.402   3.598   0.258
 2622SOL     OW 8185   3.262   1.969   0.426
 2622SOL    HW1 8186   3.238   1.932   0.336
 2622SOL    HW2 8187   3.361   1.985   0.430
 2623SOL     OW 8188   2.111   3.647   1.241
 2623SOL    HW1 8189   2.168   3.582   1.291
 2623SOL    HW2 8190   2.095   3.614   1.148
 2624SOL     OW 8191   2.802   3.560   0.904
 2624SOL    HW1 8192   2.882   3.503   0.925
 2624SOL    HW2 8193   2.753   3.520   0.827
 2625SOL     OW 8194   2.244   2.562   0.480
 2625SOL    HW1 8195   2.289   2.472   0.477
 2625SOL    HW2 8196   2.150   2.551   0.513
 2626SOL     OW 8197   3.409   2.084   1.729
 2626SOL    HW1 8198   3.404   2.121   1.821
 2626SOL    HW2 8199   3.337   2.015   1.717
 2627SOL     OW 8200   2.476   1.984   0.117
 2627SOL    HW1 8201   2.574   1.962   0.124
 2627SOL    HW2 8202   2.445   1.967   0.024
 2628SOL     OW 8203   2.643   2.126   1.749
 2628SOL    HW1 8204   2.710   2.065   1.792
 2628SOL    HW2 8205   2.570   2.145   1.814
 2629SOL     OW 8206   2.750   3.376   1.195
 2629SOL    HW1 8207   2.727   3.351   1.101
 2629SOL    HW2 8208   2.811   3.307   1.234
 2630SOL     OW 8209   3.213   2.452   1.433
 2630SOL    HW1 8210   3.241   2.409   1.518
 2630SOL    HW2 8211   3.238   2.548   1.434
 2631SOL     OW 8212   2.665   3.264   0.924
 2631SOL    HW1 8213   2.755   3.278   0.882
 2631SOL    HW2 8214   2.594   3.266   0.853
 2632SOL     OW 8215   2.784   2.365   0.899
 2632SOL    HW1 8216   2.759   2.356   0.803
 2632SOL    HW2 8217   2.832   2.283   0.930
 2633SOL     OW 8218   2.401   1.926   0.512
 2633SOL    HW1 8219   2.320   1.927   0.570
 2633SOL    HW2 8220   2.404   2.009   0.457
 2634SOL     OW 8221   3.296   3.050   0.041
 2634SOL    HW1 8222   3.328   2.974   0.098
 2634SOL    HW2 8223   3.204   3.077   0.071
 2635SOL     OW 8224   2.159   1.897   0.171
 2635SOL    HW1 8225   2.208   1.981   0.150
 2635SOL    HW2 8226   2.221   1.832   0.216
 2636SOL     OW 8227   2.797   2.098   0.480
 2636SOL    HW1 8228   2.749   2.139   0.402
 2636SOL    HW2 8229   2.896   2.096   0.461
 2637SOL     OW 8230   2.938   2.545   1.464
 2637SOL    HW1 8231   2.858   2.484   1.467
 2637SOL    HW2 8232   3.019   2.492   1.440
 2638SOL     OW 8233   3.089   3.432   0.793
 2638SOL    HW1 8234   3.110   3.506   0.728
 2638SOL    HW2 8235   3.157   3.432   0.866
 2639SOL     OW 8236   2.321   3.014   0.741
 2639SOL    HW1 8237   2.250   2.987   0.806
 2639SOL    HW2 8238   2.295   2.986   0.648
 2640SOL     OW 8239   3.133   3.659   0.591
 2640SOL    HW1 8240   3.177   3.723   0.527
 2640SOL    HW2 8241   3.083   3.711   0.661
 2641SOL     OW 8242   2.894   2.411   0.016
 2641SOL    HW1 8243   2.853   2.493  -0.023
 2641SOL    HW2 8244   2.958   2.437   0.089
 2642SOL     OW 8245   1.940   2.418   1.386
 2642SOL    HW1 8246   2.032   2.417   1.345
 2642SOL    HW2 8247   1.934   2.492   1.453
 2643SOL     OW 8248   2.423   2.084   1.147
 2643SOL    HW1 8249   2.461   2.000   1.184
 2643SOL    HW2 8250   2.335   2.103   1.191
 2644SOL     OW 8251   2.728   2.316   0.642
 2644SOL    HW1 8252   2.696   2.388   0.580
 2644SOL    HW2 8253   2.752   2.235   0.589
 2645SOL     OW 8254   2.879   1.901   0.753
 2645SOL    HW1 8255   2.807   1.906   0.684
 2645SOL    HW2 8256   2.855   1.832   0.822
 2646SOL     OW 8257   3.291   3.035   0.867
 2646SOL    HW1 8258   3.236   2.951   0.860
 2646SOL    HW2 8259   3.317   3.064   0.775
 2647SOL     OW 8260   3.328   2.452   0.992
 2647SOL    HW1 8261   3.298   2.357   0.999
 2647SOL    HW2 8262   3.401   2.468   1.058
 2648SOL     OW 8263   3.719   2.695   0.377
 2648SOL    HW1 8264   3.761   2.631   0.441
 2648SOL    HW2 8265   3.681   2.644   0.299
 2649SOL     OW 8266   2.350   3.247   0.174
 2649SOL    HW1 8267   2.263   3.232   0.221
 2649SOL    HW2 8268   2.333   3.273   0.079
 2650SOL     OW 8269   3.526   3.142   0.657
 2650SOL    HW1 8270   3.625   3.150   0.671
 2650SOL    HW2 8271   3.481   3.226   0.688
 2651SOL     OW 8272   3.252   2.437   0.078
 2651SOL    HW1 8273   3.198   2.416   0.159
 2651SOL    HW2 8274   3.343   2.396   0.087
 2652SOL     OW 8275   2.389   2.118   0.328
 2652SOL    HW1 8276   2.416   2.059   0.253
 2652SOL    HW2 8277   2.389   2.213   0.297
 2653SOL     OW 8278   2.973   3.057   1.100
 2653SOL    HW1 8279   2.933   3.101   1.181
 2653SOL    HW2 8280   2.932   3.094   1.017
 2654SOL     OW 8281   3.500   2.961   1.079
 2654SOL    HW1 8282   3.505   3.042   1.138
 2654SOL    HW2 8283   3.414   2.963   1.028
 2655SOL     OW 8284   2.777   1.951   1.402
 2655SOL    HW1 8285   2.802   1.931   1.307
 2655SOL    HW2 8286   2.849   2.007   1.444
 2656SOL     OW 8287   2.567   2.912   0.368
 2656SOL    HW1 8288   2.553   2.919   0.467
 2656SOL    HW2 8289   2.651   2.861   0.350
 2657SOL     OW 8290   2.272   2.675   1.251
 2657SOL    HW1 8291   2.358   2.687   1.301
 2657SOL    HW2 8292   2.230   2.588   1.278
 2658SOL     OW 8293   3.136   2.248   1.262
 2658SOL    HW1 8294   3.157   2.322   1.326
 2658SOL    HW2 8295   3.047   2.265   1.219
 2659SOL     OW 8296   1.926   3.426   1.331
 2659SOL    HW1 8297   1.880   3.508   1.297
 2659SOL    HW2 8298   2.024   3.445   1.340
 2660SOL     OW 8299   2.229   2.962   0.501
 2660SOL    HW1 8300   2.222   3.045   0.445
 2660SOL    HW2 8301   2.233   2.882   0.441
 2661SOL     OW 8302   2.428   2.399   0.865
 2661SOL    HW1 8303   2.440   2.465   0.791
 2661SOL    HW2 8304   2.474   2.433   0.948
 2662SOL     OW 8305   3.114   3.210   0.388
 2662SOL    HW1 8306   3.164   3.287   0.428
 2662SOL    HW2 8307   3.019   3.212   0.420
 2663SOL     OW 8308   3.134   3.307   1.142
 2663SOL    HW1 8309   3.181   3.320   1.229
 2663SOL    HW2 8310   3.068   3.233   1.151
 2664SOL     OW 8311   3.444   2.501   0.472
 2664SOL    HW1 8312   3.413   2.562   0.545
 2664SOL    HW2 8313   3.494   2.553   0.403
 2665SOL     OW 8314   2.216   3.372   1.329
 2665SOL    HW1 8315   2.195   3.328   1.242
 2665SOL    HW2 8316   2.313   3.398   1.332
 2666SOL     OW 8317   2.264   2.613   1.598
 2666SOL    HW1 8318   2.332   2.668   1.551
 2666SOL    HW2 8319   2.304   2.525   1.625
 2667SOL     OW 8320   3.449   2.641   1.670
 2667SOL    HW1 8321   3.357   2.679   1.665
 2667SOL    HW2 8322   3.509   2.688   1.605
 2668SOL     OW 8323   2.875   1.967   1.770
 2668SOL    HW1 8324   2.881   2.052   1.718
 2668SOL    HW2 8325   2.907   1.891   1.713
 2669SOL     OW 8326   2.366   1.912   1.740
 2669SOL    HW1 8327   2.324   1.855   1.670
 2669SOL    HW2 8328   2.300   1.981   1.772
 2670SOL     OW 8329   2.435   2.732   1.029
 2670SOL    HW1 8330   2.479   2.821   1.020
 2670SOL    HW2 8331   2.372   2.732   1.106
 2671SOL     OW 8332   3.222   2.724   1.045
 2671SOL    HW1 8333   3.147   2.724   0.979
 2671SOL    HW2 8334   3.259   2.632   1.054
 2672SOL     OW 8335   3.071   2.387   0.275
 2672SOL    HW1 8336   3.084   2.303   0.329
 2672SOL    HW2 8337   3.042   2.461   0.335
 2673SOL     OW 8338   2.169   2.075   1.231
 2673SOL    HW1 8339   2.146   2.112   1.321
 2673SOL    HW2 8340   2.139   1.980   1.225
 2674SOL     OW 8341   1.899   3.172   1.282
 2674SOL    HW1 8342   1.952   3.123   1.350
 2674SOL    HW2 8343   1.921   3.270   1.287
 2675SOL     OW 8344   2.594   2.496   1.064
 2675SOL    HW1 8345   2.653   2.470   0.988
 2675SOL    HW2 8346   2.566   2.592   1.053
 2676SOL     OW 8347   2.169   1.925   0.618
 2676SOL    HW1 8348   2.158   2.019   0.651
 2676SOL    HW2 8349   2.164   1.862   0.695
 2677SOL     OW 8350   3.484   2.229   0.374
 2677SOL    HW1 8351   3.486   2.153   0.438
 2677SOL    HW2 8352   3.436   2.306   0.414
 2678SOL     OW 8353   2.885   2.628   0.966
 2678SOL    HW1 8354   2.900   2.649   1.062
 2678SOL    HW2 8355   2.855   2.533   0.957
 2679SOL     OW 8356   3.721   3.380   1.605
 2679SOL    HW1 8357   3.735   3.407   1.510
 2679SOL    HW2 8358   3.804   3.402   1.658
 2680SOL     OW 8359   2.212   2.760   1.804
 2680SOL    HW1 8360   2.288   2.804   1.852
 2680SOL    HW2 8361   2.247   2.713   1.722
 2681SOL     OW 8362   3.402   2.136   0.125
 2681SOL    HW1 8363   3.341   2.061   0.148
 2681SOL    HW2 8364   3.424   2.188   0.208
 2682SOL     OW 8365   3.165   2.700   0.042
 2682SOL    HW1 8366   3.199   2.607   0.057
 2682SOL    HW2 8367   3.183   2.727  -0.053
 2683SOL     OW 8368   2.930   3.195   0.849
 2683SOL    HW1 8369   2.937   3.111   0.794
 2683SOL    HW2 8370   2.992   3.264   0.813
 2684SOL     OW 8371   2.181   2.672   0.949
 2684SOL    HW1 8372   2.274   2.708   0.954
 2684SOL    HW2 8373   2.175   2.587   1.001
 2685SOL     OW 8374   2.201   2.371   1.006
 2685SOL    HW1 8375   2.149   2.288   0.989
 2685SOL    HW2 8376   2.278   2.376   0.942
 2686SOL     OW 8377   3.000   2.242   1.678
 2686SOL    HW1 8378   2.955   2.305   1.742
 2686SOL    HW2 8379   3.093   2.273   1.661
 2687SOL     OW 8380   3.022   2.069   1.477
 2687SOL    HW1 8381   3.022   2.133   1.554
 2687SOL    HW2 8382   3.050   2.117   1.394
 2688SOL     OW 8383   1.870   3.188   0.200
 2688SOL    HW1 8384   1.777   3.209   0.169
 2688SOL    HW2 8385   1.880   3.089   0.213
 2689SOL     OW 8386   1.950   3.663   0.927
 2689SOL    HW1 8387   1.908   3.577   0.900
 2689SOL    HW2 8388   2.044   3.666   0.893
 2690SOL     OW 8389   2.366   3.430   0.910
 2690SOL    HW1 8390   2.432   3.504   0.919
 2690SOL    HW2 8391   2.410   3.351   0.868
 2691SOL     OW 8392   2.864   2.658   1.238
 2691SOL    HW1 8393   2.905   2.626   1.324
 2691SOL    HW2 8394   2.768   2.631   1.235
 2692SOL     OW 8395   1.902   2.406   1.114
 2692SOL    HW1 8396   1.987   2.373   1.073
 2692SOL    HW2 8397   1.915   2.421   1.212
 2693SOL     OW 8398   2.051   2.382   1.722
 2693SOL    HW1 8399   2.110   2.342   1.652
 2693SOL    HW2 8400   1.993   2.453   1.681
 2694SOL     OW 8401   2.677   2.434   0.325
 2694SOL    HW1 8402   2.684   2.345   0.279
 2694SOL    HW2 8403   2.583   2.468   0.317
 2695SOL     OW 8404   3.519   2.466   1.206
 2695SOL    HW1 8405   3.481   2.397   1.268
 2695SOL    HW2 8406   3.601   2.430   1.162
 2696SOL     OW 8407   2.114   3.426   1.744
 2696SOL    HW1 8408   2.084   3.483   1.820
 2696SOL    HW2 8409   2.107   3.329   1.770
 2697SOL     OW 8410   2.533   2.326   1.269
 2697SOL    HW1 8411   2.499   2.237   1.239
 2697SOL    HW2 8412   2.559   2.380   1.189
 2698SOL     OW 8413   2.335   2.362   0.191
 2698SOL    HW1 8414   2.396   2.442   0.195
 2698SOL    HW2 8415   2.240   2.393   0.198
 2699SOL     OW 8416   2.021   2.999   1.466
 2699SOL    HW1 8417   2.043   2.938   1.542
 2699SOL    HW2 8418   2.031   2.950   1.380
 2700SOL     OW 8419   3.209   2.921   1.234
 2700SOL    HW1 8420   3.233   2.858   1.160
 2700SOL    HW2 8421   3.119   2.961   1.216
 2701SOL     OW 8422   3.164   2.717   0.309
 2701SOL    HW1 8423   3.078   2.686   0.351
 2701SOL    HW2 8424   3.160   2.703   0.210
 2702SOL     OW 8425   3.621   3.609   1.154
 2702SOL    HW1 8426   3.682   3.639   1.081
 2702SOL    HW2 8427   3.583   3.520   1.132
 2703SOL     OW 8428   3.114   3.593   1.128
 2703SOL    HW1 8429   3.198   3.598   1.074
 2703SOL    HW2 8430   3.091   3.497   1.146
 2704SOL     OW 8431   1.945   3.120   1.022
 2704SOL    HW1 8432   1.940   3.119   1.122
 2704SOL    HW2 8433   1.862   3.079   0.984
 2705SOL     OW 8434   2.765   1.948   0.133
 2705SOL    HW1 8435   2.816   1.949   0.047
 2705SOL    HW2 8436   2.821   1.906   0.204
 2706SOL     OW 8437   3.588   1.997   0.523
 2706SOL    HW1 8438   3.661   1.980   0.456
 2706SOL    HW2 8439   3.557   1.910   0.561
 2707SOL     OW 8440   3.250   3.435   0.477
 2707SOL    HW1 8441   3.317   3.447   0.403
 2707SOL    HW2 8442   3.210   3.524   0.500
 2708SOL     OW 8443   1.992   3.656   1.851
 2708SOL    HW1 8444   1.951   3.582   1.904
 2708SOL    HW2 8445   2.056   3.707   1.909
 2709SOL     OW 8446   3.142   2.789   0.672
 2709SOL    HW1 8447   3.202   2.708   0.674
 2709SOL    HW2 8448   3.182   2.858   0.612
 2710SOL     OW 8449   2.534   3.478   0.154
 2710SOL    HW1 8450   2.543   3.488   0.055
 2710SOL    HW2 8451   2.494   3.389   0.175
 2711SOL     OW 8452   3.703   2.037   0.963
 2711SOL    HW1 8453   3.742   1.952   0.927
 2711SOL    HW2 8454   3.605   2.039   0.944
 2712SOL     OW 8455   2.125   2.188   0.720
 2712SOL    HW1 8456   2.046   2.239   0.686
 2712SOL    HW2 8457   2.116   2.173   0.818
 2713SOL     OW 8458   3.056   3.474   0.031
 2713SOL    HW1 8459   3.062   3.381   0.068
 2713SOL    HW2 8460   2.997   3.474  -0.049
 2714SOL     OW 8461   2.778   2.772   0.291
 2714SOL    HW1 8462   2.841   2.810   0.223
 2714SOL    HW2 8463   2.818   2.689   0.330
 2715SOL     OW 8464   3.366   3.469   0.044
 2715SOL    HW1 8465   3.274   3.506   0.051
 2715SOL    HW2 8466   3.404   3.489  -0.046
 2716SOL     OW 8467   2.234   3.150   1.490
 2716SOL    HW1 8468   2.221   3.243   1.456
 2716SOL    HW2 8469   2.150   3.098   1.477
 2717SOL     OW 8470   3.476   3.154   1.289
 2717SOL    HW1 8471   3.536   3.157   1.369
 2717SOL    HW2 8472   3.401   3.218   1.302
 2718SOL     OW 8473   2.901   2.960   0.696
 2718SOL    HW1 8474   2.831   2.913   0.750
 2718SOL    HW2 8475   2.960   2.892   0.653
 2719SOL     OW 8476   2.876   2.098   0.971
 2719SOL    HW1 8477   2.868   2.062   0.878
 2719SOL    HW2 8478   2.874   2.022   1.036
 2720SOL     OW 8479   2.452   3.349   0.491
 2720SOL    HW1 8480   2.494   3.291   0.421
 2720SOL    HW2 8481   2.408   3.428   0.447
 2721SOL     OW 8482   3.571   2.247   1.381
 2721SOL    HW1 8483   3.644   2.316   1.385
 2721SOL    HW2 8484   3.599   2.172   1.322
 2722SOL     OW 8485   2.117   3.210   0.290
 2722SOL    HW1 8486   2.021   3.211   0.263
 2722SOL    HW2 8487   2.129   3.263   0.374
 2723SOL     OW 8488   1.967   2.875   1.726
 2723SOL    HW1 8489   1.890   2.842   1.780
 2723SOL    HW2 8490   2.052   2.845   1.768
 2724SOL     OW 8491   2.534   2.065   1.489
 2724SOL    HW1 8492   2.624   2.049   1.449
 2724SOL    HW2 8493   2.542   2.070   1.588
 2725SOL     OW 8494   1.937   2.207   0.033
 2725SOL    HW1 8495   1.845   2.179   0.004
 2725SOL    HW2 8496   1.968   2.284  -0.023
 2726SOL     OW 8497   3.302   2.718   1.398
 2726SOL    HW1 8498   3.245   2.770   1.335
 2726SOL    HW2 8499   3.398   2.730   1.374
 2727SOL     OW 8500   1.934   2.028   0.318
 2727SOL    HW1 8501   1.917   2.111   0.264
 2727SOL    HW2 8502   2.024   1.991   0.296
 2728SOL     OW 8503   3.045   3.197   0.119
 2728SOL    HW1 8504   2.946   3.186   0.121
 2728SOL    HW2 8505   3.079   3.212   0.212
 2729SOL     OW 8506   2.475   2.704   1.431
 2729SOL    HW1 8507   2.531   2.785   1.414
 2729SOL    HW2 8508   2.534   2.624   1.434
 2730SOL     OW 8509   3.355   3.629   0.959
 2730SOL    HW1 8510   3.388   3.693   0.890
 2730SOL    HW2 8511   3.421   3.623   1.034
 2731SOL     OW 8512   2.578   2.427   1.708
 2731SOL    HW1 8513   2.597   2.492   1.782
 2731SOL    HW2 8514   2.638   2.347   1.717
 2732SOL     OW 8515   2.252   3.603   1.560
 2732SOL    HW1 8516   2.161   3.644   1.558
 2732SOL    HW2 8517   2.245   3.509   1.592
 2733SOL     OW 8518   3.536   2.745   1.254
 2733SOL    HW1 8519   3.509   2.656   1.217
 2733SOL    HW2 8520   3.537   2.813   1.181
 2734SOL     OW 8521   3.087   2.187   0.449
 2734SOL    HW1 8522   3.152   2.113   0.438
 2734SOL    HW2 8523   3.107   2.237   0.533
 2735SOL     OW 8524   2.456   2.607   0.652
 2735SOL    HW1 8525   2.506   2.692   0.633
 2735SOL    HW2 8526   2.368   2.609   0.604
 2736SOL     OW 8527   3.639   2.204   1.642
 2736SOL    HW1 8528   3.622   2.235   1.548
 2736SOL    HW2 8529   3.555   2.167   1.680
 2737SOL     OW 8530   3.592   2.796   1.517
 2737SOL    HW1 8531   3.630   2.887   1.532
 2737SOL    HW2 8532   3.584   2.779   1.418
 2738SOL     OW 8533   2.721   3.236   0.016
 2738SOL    HW1 8534   2.675   3.251   0.104
 2738SOL    HW2 8535   2.765   3.321  -0.014
 2739SOL     OW 8536   2.523   3.652   0.953
 2739SOL    HW1 8537   2.477   3.740   0.940
 2739SOL    HW2 8538   2.622   3.664   0.946
 2740SOL     OW 8539   2.721   2.818   0.861
 2740SOL    HW1 8540   2.775   2.749   0.909
 2740SOL    HW2 8541   2.689   2.887   0.927
 2741SOL     OW 8542   2.945   2.846   0.087
 2741SOL    HW1 8543   2.922   2.899   0.005
 2741SOL    HW2 8544   3.026   2.790   0.068
 2742SOL     OW 8545   3.723   3.431   0.851
 2742SOL    HW1 8546   3.652   3.419   0.781
 2742SOL    HW2 8547   3.724   3.352   0.911
 2743SOL     OW 8548   2.083   3.176   1.844
 2743SOL    HW1 8549   2.018   3.103   1.823
 2743SOL    HW2 8550   2.087   3.190   1.942
 2744SOL     OW 8551   1.941   3.102   0.653
 2744SOL    HW1 8552   1.940   3.055   0.741
 2744SOL    HW2 8553   2.023   3.074   0.602
 2745SOL     OW 8554   2.534   3.253   1.624
 2745SOL    HW1 8555   2.456   3.203   1.662
 2745SOL    HW2 8556   2.531   3.348   1.655
 2746SOL     OW 8557   3.686   2.054   1.227
 2746SOL    HW1 8558   3.682   1.964   1.271
 2746SOL    HW2 8559   3.689   2.043   1.128
 2747SOL     OW 8560   2.290   2.286   0.520
 2747SOL    HW1 8561   2.320   2.214   0.458
 2747SOL    HW2 8562   2.251   2.246   0.603
 2748SOL     OW 8563   3.567   3.349   1.104
 2748SOL    HW1 8564   3.474   3.324   1.077
 2748SOL    HW2 8565   3.593   3.299   1.186
 2749SOL     OW 8566   2.179   2.409   1.280
 2749SOL    HW1 8567   2.217   2.350   1.352
 2749SOL    HW2 8568   2.219   2.383   1.192
 2750SOL     OW 8569   2.674   3.448   0.687
 2750SOL    HW1 8570   2.706   3.458   0.593
 2750SOL    HW2 8571   2.595   3.386   0.689
 2751SOL     OW 8572   3.286   2.076   1.112
 2751SOL    HW1 8573   3.338   2.011   1.167
 2751SOL    HW2 8574   3.237   2.139   1.173
 2752SOL     OW 8575   2.863   1.896   1.154
 2752SOL    HW1 8576   2.800   1.824   1.123
 2752SOL    HW2 8577   2.956   1.860   1.154
 2753SOL     OW 8578   2.632   3.192   0.301
 2753SOL    HW1 8579   2.586   3.105   0.318
 2753SOL    HW2 8580   2.723   3.189   0.342
 2754SOL     OW 8581   2.480   3.429   1.284
 2754SOL    HW1 8582   2.475   3.511   1.341
 2754SOL    HW2 8583   2.569   3.426   1.239
 2755SOL     OW 8584   3.214   1.914   0.168
 2755SOL    HW1 8585   3.249   1.873   0.084
 2755SOL    HW2 8586   3.124   1.876   0.188
 2756SOL     OW 8587   3.162   2.315   0.691
 2756SOL    HW1 8588   3.103   2.395   0.695
 2756SOL    HW2 8589   3.177   2.280   0.784
 2757SOL     OW 8590   3.455   2.083   0.882
 2757SOL    HW1 8591   3.371   2.082   0.936
 2757SOL    HW2 8592   3.457   2.166   0.826
 2758SOL     OW 8593   1.901   2.939   0.300
 2758SOL    HW1 8594   2.000   2.928   0.291
 2758SOL    HW2 8595   1.861   2.853   0.332
 2759SOL     OW 8596   2.737   3.508   0.337
 2759SOL    HW1 8597   2.660   3.473   0.283
 2759SOL    HW2 8598   2.705   3.579   0.399
 2760SOL     OW 8599   2.092   2.490   1.975
 2760SOL    HW1 8600   1.999   2.488   2.012
 2760SOL    HW2 8601   2.093   2.451   1.883
 2761SOL     OW 8602   2.087   2.137   2.858
 2761SOL    HW1 8603   2.122   2.120   2.950
 2761SOL    HW2 8604   1.999   2.092   2.846
 2762SOL     OW 8605   1.881   2.230   2.509
 2762SOL    HW1 8606   1.799   2.273   2.548
 2762SOL    HW2 8607   1.853   2.157   2.446
 2763SOL     OW 8608   3.417   3.373   2.565
 2763SOL    HW1 8609   3.360   3.357   2.646
 2763SOL    HW2 8610   3.358   3.383   2.485
 2764SOL     OW 8611   3.617   2.469   2.093
 2764SOL    HW1 8612   3.605   2.456   1.994
 2764SOL    HW2 8613   3.587   2.388   2.142
 2765SOL     OW 8614   2.197   3.297   2.923
 2765SOL    HW1 8615   2.119   3.266   2.870
 2765SOL    HW2 8616   2.255   3.355   2.866
 2766SOL     OW 8617   3.322   3.367   3.201
 2766SOL    HW1 8618   3.346   3.461   3.227
 2766SOL    HW2 8619   3.306   3.313   3.283
 2767SOL     OW 8620   3.465   2.309   2.599
 2767SOL    HW1 8621   3.391   2.355   2.549
 2767SOL    HW2 8622   3.516   2.377   2.652
 2768SOL     OW 8623   2.093   3.575   2.345
 2768SOL    HW1 8624   2.127   3.652   2.399
 2768SOL    HW2 8625   2.137   3.575   2.255
 2769SOL     OW 8626   2.989   3.203   3.552
 2769SOL    HW1 8627   3.036   3.203   3.640
 2769SOL    HW2 8628   2.941   3.116   3.541
 2770SOL     OW 8629   2.092   3.296   2.400
 2770SOL    HW1 8630   2.066   3.392   2.400
 2770SOL    HW2 8631   2.021   3.242   2.445
 2771SOL     OW 8632   2.102   2.953   2.748
 2771SOL    HW1 8633   2.116   2.869   2.800
 2771SOL    HW2 8634   2.047   3.017   2.803
 2772SOL     OW 8635   2.482   3.648   3.301
 2772SOL    HW1 8636   2.390   3.631   3.336
 2772SOL    HW2 8637   2.510   3.740   3.327
 2773SOL     OW 8638   2.468   2.826   1.985
 2773SOL    HW1 8639   2.475   2.910   1.931
 2773SOL    HW2 8640   2.514   2.839   2.073
 2774SOL     OW 8641   3.456   1.976   3.342
 2774SOL    HW1 8642   3.438   2.043   3.270
 2774SOL    HW2 8643   3.453   2.022   3.431
 2775SOL     OW 8644   1.984   2.505   2.425
 2775SOL    HW1 8645   1.939   2.417   2.442
 2775SOL    HW2 8646   1.983   2.559   2.509
 2776SOL     OW 8647   3.704   3.629   2.221
 2776SOL    HW1 8648   3.758   3.600   2.301
 2776SOL    HW2 8649   3.734   3.719   2.192
 2777SOL     OW 8650   1.889   3.458   1.979
 2777SOL    HW1 8651   1.870   3.362   2.000
 2777SOL    HW2 8652   1.856   3.516   2.054
 2778SOL     OW 8653   2.475   3.227   2.588
 2778SOL    HW1 8654   2.426   3.140   2.597
 2778SOL    HW2 8655   2.452   3.270   2.501
 2779SOL     OW 8656   2.671   1.866   2.364
 2779SOL    HW1 8657   2.711   1.957   2.355
 2779SOL    HW2 8658   2.571   1.874   2.370
 2780SOL     OW 8659   2.059   2.838   3.126
 2780SOL    HW1 8660   2.148   2.793   3.112
 2780SOL    HW2 8661   1.986   2.773   3.107
 2781SOL     OW 8662   3.049   3.654   3.478
 2781SOL    HW1 8663   3.073   3.714   3.402
 2781SOL    HW2 8664   3.056   3.559   3.448
 2782SOL     OW 8665   3.328   3.279   2.815
 2782SOL    HW1 8666   3.269   3.285   2.895
 2782SOL    HW2 8667   3.313   3.191   2.769
 2783SOL     OW 8668   3.529   3.576   2.434
 2783SOL    HW1 8669   3.488   3.553   2.346
 2783SOL    HW2 8670   3.511   3.502   2.499
 2784SOL     OW 8671   2.460   2.591   2.132
 2784SOL    HW1 8672   2.484   2.660   2.064
 2784SOL    HW2 8673   2.382   2.624   2.186
 2785SOL     OW 8674   3.143   2.207   2.806
 2785SOL    HW1 8675   3.057   2.157   2.793
 2785SOL    HW2 8676   3.205   2.153   2.862
 2786SOL     OW 8677   3.256   2.331   3.536
 2786SOL    HW1 8678   3.236   2.374   3.624
 2786SOL    HW2 8679   3.334   2.269   3.545
 2787SOL     OW 8680   1.938   2.673   2.651
 2787SOL    HW1 8681   2.037   2.661   2.660
 2787SOL    HW2 8682   1.914   2.768   2.672
 2788SOL     OW 8683   1.992   3.683   3.433
 2788SOL    HW1 8684   1.982   3.668   3.532
 2788SOL    HW2 8685   1.906   3.719   3.397
 2789SOL     OW 8686   2.727   2.210   2.057
 2789SOL    HW1 8687   2.786   2.273   2.008
 2789SOL    HW2 8688   2.746   2.116   2.028
 2790SOL     OW 8689   3.581   2.447   3.693
 2790SOL    HW1 8690   3.555   2.536   3.657
 2790SOL    HW2 8691   3.579   2.379   3.620
 2791SOL     OW 8692   2.412   2.058   2.747
 2791SOL    HW1 8693   2.407   2.053   2.847
 2791SOL    HW2 8694   2.414   2.154   2.718
 2792SOL     OW 8695   2.213   3.663   2.715
 2792SOL    HW1 8696   2.263   3.577   2.721
 2792SOL    HW2 8697   2.278   3.740   2.712
 2793SOL     OW 8698   3.657   2.928   2.735
 2793SOL    HW1 8699   3.595   2.913   2.659
 2793SOL    HW2 8700   3.605   2.939   2.820
 2794SOL     OW 8701   3.089   3.412   3.368
 2794SOL    HW1 8702   3.095   3.335   3.432
 2794SOL    HW2 8703   3.037   3.386   3.288
 2795SOL     OW 8704   2.183   2.805   2.104
 2795SOL    HW1 8705   2.265   2.844   2.062
 2795SOL    HW2 8706   2.156   2.723   2.055
 2796SOL     OW 8707   3.320   2.597   2.590
 2796SOL    HW1 8708   3.315   2.532   2.665
 2796SOL    HW2 8709   3.400   2.656   2.603
 2797SOL     OW 8710   2.323   3.128   3.589
 2797SOL    HW1 8711   2.273   3.129   3.503
 2797SOL    HW2 8712   2.260   3.110   3.665
 2798SOL     OW 8713   2.973   3.638   2.099
 2798SOL    HW1 8714   2.913   3.576   2.149
 2798SOL    HW2 8715   3.004   3.594   2.014
 2799SOL     OW 8716   2.064   2.147   3.360
 2799SOL    HW1 8717   1.984   2.207   3.347
 2799SOL    HW2 8718   2.054   2.098   3.446
 2800SOL     OW 8719   2.326   3.605   2.185
 2800SOL    HW1 8720   2.359   3.644   2.271
 2800SOL    HW2 8721   2.402   3.598   2.120
 2801SOL     OW 8722   3.262   1.969   2.288
 2801SOL    HW1 8723   3.238   1.932   2.198
 2801SOL    HW2 8724   3.361   1.985   2.292
 2802SOL     OW 8725   2.111   3.647   3.103
 2802SOL    HW1 8726   2.168   3.582   3.153
 2802SOL    HW2 8727   2.095   3.614   3.010
 2803SOL     OW 8728   2.244   2.562   2.342
 2803SOL    HW1 8729   2.289   2.472   2.339
 2803SOL    HW2 8730   2.150   2.551   2.375
 2804SOL     OW 8731   3.409   2.084   3.591
 2804SOL    HW1 8732   3.404   2.121   3.683
 2804SOL    HW2 8733   3.337   2.015   3.579
 2805SOL     OW 8734   2.476   1.984   1.979
 2805SOL    HW1 8735   2.574   1.962   1.986
 2805SOL    HW2 8736   2.445   1.967   1.886
 2806SOL     OW 8737   2.750   3.376   3.057
 2806SOL    HW1 8738   2.727   3.351   2.963
 2806SOL    HW2 8739   2.811   3.307   3.096
 2807SOL     OW 8740   2.401   1.926   2.374
 2807SOL    HW1 8741   2.320   1.927   2.432
 2807SOL    HW2 8742   2.404   2.009   2.319
 2808SOL     OW 8743   2.159   1.897   2.033
 2808SOL    HW1 8744   2.208   1.981   2.012
 2808SOL    HW2 8745   2.221   1.832   2.078
 2809SOL     OW 8746   2.797   2.098   2.342
 2809SOL    HW1 8747   2.749   2.139   2.264
 2809SOL    HW2 8748   2.896   2.096   2.323
 2810SOL     OW 8749   3.089   3.432   2.655
 2810SOL    HW1 8750   3.110   3.506   2.590
 2810SOL    HW2 8751   3.157   3.432   2.728
 2811SOL     OW 8752   3.133   3.659   2.453
 2811SOL    HW1 8753   3.177   3.723   2.389
 2811SOL    HW2 8754   3.083   3.711   2.523
 2812SOL     OW 8755   2.894   2.411   1.878
 2812SOL    HW1 8756   2.853   2.493   1.839
 2812SOL    HW2 8757   2.958   2.437   1.951
 2813SOL     OW 8758   2.728   2.316   2.504
 2813SOL    HW1 8759   2.696   2.388   2.442
 2813SOL    HW2 8760   2.752   2.235   2.451
 2814SOL     OW 8761   2.879   1.901   2.615
 2814SOL    HW1 8762   2.807   1.906   2.546
 2814SOL    HW2 8763   2.855   1.832   2.684
 2815SOL     OW 8764   3.328   2.452   2.854
 2815SOL    HW1 8765   3.298   2.357   2.861
 2815SOL    HW2 8766   3.401   2.468   2.920
 2816SOL     OW 8767   3.719   2.695   2.239
 2816SOL    HW1 8768   3.761   2.631   2.303
 2816SOL    HW2 8769   3.681   2.644   2.161
 2817SOL     OW 8770   3.252   2.437   1.940
 2817SOL    HW1 8771   3.198   2.416   2.021
 2817SOL    HW2 8772   3.343   2.396   1.949
 2818SOL     OW 8773   2.389   2.118   2.190
 2818SOL    HW1 8774   2.416   2.059   2.115
 2818SOL    HW2 8775   2.389   2.213   2.159
 2819SOL     OW 8776   3.616   3.085   3.450
 2819SOL    HW1 8777   3.707   3.046   3.437
 2819SOL    HW2 8778   3.624   3.181   3.474
 2820SOL     OW 8779   2.926   3.209   3.202
 2820SOL    HW1 8780   2.846   3.186   3.257
 2820SOL    HW2 8781   3.009   3.183   3.251
 2821SOL     OW 8782   3.454   3.491   3.487
 2821SOL    HW1 8783   3.481   3.525   3.397
 2821SOL    HW2 8784   3.533   3.453   3.533
 2822SOL     OW 8785   3.500   2.961   2.941
 2822SOL    HW1 8786   3.505   3.042   3.000
 2822SOL    HW2 8787   3.414   2.963   2.890
 2823SOL     OW 8788   2.272   2.675   3.113
 2823SOL    HW1 8789   2.358   2.687   3.163
 2823SOL    HW2 8790   2.230   2.588   3.140
 2824SOL     OW 8791   1.926   3.426   3.193
 2824SOL    HW1 8792   1.880   3.508   3.159
 2824SOL    HW2 8793   2.024   3.445   3.202
 2825SOL     OW 8794   2.229   2.962   2.363
 2825SOL    HW1 8795   2.222   3.045   2.307
 2825SOL    HW2 8796   2.233   2.882   2.303
 2826SOL     OW 8797   3.134   3.307   3.004
 2826SOL    HW1 8798   3.181   3.320   3.091
 2826SOL    HW2 8799   3.068   3.233   3.013
 2827SOL     OW 8800   3.444   2.501   2.334
 2827SOL    HW1 8801   3.413   2.562   2.407
 2827SOL    HW2 8802   3.494   2.553   2.265
 2828SOL     OW 8803   2.216   3.372   3.191
 2828SOL    HW1 8804   2.195   3.328   3.104
 2828SOL    HW2 8805   2.313   3.398   3.194
 2829SOL     OW 8806   3.449   2.641   3.532
 2829SOL    HW1 8807   3.357   2.679   3.527
 2829SOL    HW2 8808   3.509   2.688   3.467
 2830SOL     OW 8809   2.875   1.967   3.632
 2830SOL    HW1 8810   2.881   2.052   3.580
 2830SOL    HW2 8811   2.907   1.891   3.575
 2831SOL     OW 8812   3.071   2.387   2.137
 2831SOL    HW1 8813   3.084   2.303   2.191
 2831SOL    HW2 8814   3.042   2.461   2.197
 2832SOL     OW 8815   2.169   2.075   3.093
 2832SOL    HW1 8816   2.146   2.112   3.183
 2832SOL    HW2 8817   2.139   1.980   3.087
 2833SOL     OW 8818   1.899   3.172   3.144
 2833SOL    HW1 8819   1.952   3.123   3.212
 2833SOL    HW2 8820   1.921   3.270   3.149
 2834SOL     OW 8821   3.590   2.797   3.716
 2834SOL    HW1 8822   3.544   2.790   3.627
 2834SOL    HW2 8823   3.528   2.841   3.782
 2835SOL     OW 8824   2.169   1.925   2.480
 2835SOL    HW1 8825   2.158   2.019   2.513
 2835SOL    HW2 8826   2.164   1.862   2.557
 2836SOL     OW 8827   3.484   2.229   2.236
 2836SOL    HW1 8828   3.486   2.153   2.300
 2836SOL    HW2 8829   3.436   2.306   2.276
 2837SOL     OW 8830   2.842   3.435   3.562
 2837SOL    HW1 8831   2.822   3.479   3.474
 2837SOL    HW2 8832   2.881   3.344   3.546
 2838SOL     OW 8833   3.721   3.380   3.467
 2838SOL    HW1 8834   3.735   3.407   3.372
 2838SOL    HW2 8835   3.804   3.402   3.520
 2839SOL     OW 8836   2.212   2.760   3.666
 2839SOL    HW1 8837   2.288   2.804   3.714
 2839SOL    HW2 8838   2.247   2.713   3.584
 2840SOL     OW 8839   3.402   2.136   1.987
 2840SOL    HW1 8840   3.341   2.061   2.010
 2840SOL    HW2 8841   3.424   2.188   2.070
 2841SOL     OW 8842   3.165   2.700   1.904
 2841SOL    HW1 8843   3.199   2.607   1.919
 2841SOL    HW2 8844   3.183   2.727   1.809
 2842SOL     OW 8845   2.181   2.672   2.811
 2842SOL    HW1 8846   2.274   2.708   2.816
 2842SOL    HW2 8847   2.175   2.587   2.863
 2843SOL     OW 8848   2.201   2.371   2.868
 2843SOL    HW1 8849   2.149   2.288   2.851
 2843SOL    HW2 8850   2.278   2.376   2.804
 2844SOL     OW 8851   1.870   3.188   2.062
 2844SOL    HW1 8852   1.777   3.209   2.031
 2844SOL    HW2 8853   1.880   3.089   2.075
 2845SOL     OW 8854   1.950   3.663   2.789
 2845SOL    HW1 8855   1.908   3.577   2.762
 2845SOL    HW2 8856   2.044   3.666   2.755
 2846SOL     OW 8857   2.366   3.430   2.772
 2846SOL    HW1 8858   2.432   3.504   2.781
 2846SOL    HW2 8859   2.410   3.351   2.730
 2847SOL     OW 8860   1.902   2.406   2.976
 2847SOL    HW1 8861   1.987   2.373   2.935
 2847SOL    HW2 8862   1.915   2.421   3.074
 2848SOL     OW 8863   3.231   2.812   3.522
 2848SOL    HW1 8864   3.270   2.901   3.542
 2848SOL    HW2 8865   3.241   2.792   3.425
 2849SOL     OW 8866   2.677   2.434   2.187
 2849SOL    HW1 8867   2.684   2.345   2.141
 2849SOL    HW2 8868   2.583   2.468   2.179
 2850SOL     OW 8869   3.519   2.466   3.068
 2850SOL    HW1 8870   3.481   2.397   3.130
 2850SOL    HW2 8871   3.601   2.430   3.024
 2851SOL     OW 8872   2.114   3.426   3.606
 2851SOL    HW1 8873   2.084   3.483   3.682
 2851SOL    HW2 8874   2.107   3.329   3.632
 2852SOL     OW 8875   2.792   3.540   3.327
 2852SOL    HW1 8876   2.768   3.522   3.232
 2852SOL    HW2 8877   2.822   3.634   3.337
 2853SOL     OW 8878   2.335   2.362   2.053
 2853SOL    HW1 8879   2.396   2.442   2.057
 2853SOL    HW2 8880   2.240   2.393   2.060
 2854SOL     OW 8881   2.021   2.999   3.328
 2854SOL    HW1 8882   2.043   2.938   3.404
 2854SOL    HW2 8883   2.031   2.950   3.242
 2855SOL     OW 8884   3.621   3.609   3.016
 2855SOL    HW1 8885   3.682   3.639   2.943
 2855SOL    HW2 8886   3.583   3.520   2.994
 2856SOL     OW 8887   3.114   3.593   2.990
 2856SOL    HW1 8888   3.198   3.598   2.936
 2856SOL    HW2 8889   3.091   3.497   3.008
 2857SOL     OW 8890   1.945   3.120   2.884
 2857SOL    HW1 8891   1.940   3.119   2.984
 2857SOL    HW2 8892   1.862   3.079   2.846
 2858SOL     OW 8893   2.550   3.524   3.578
 2858SOL    HW1 8894   2.494   3.605   3.587
 2858SOL    HW2 8895   2.602   3.528   3.492
 2859SOL     OW 8896   3.588   1.997   2.385
 2859SOL    HW1 8897   3.661   1.980   2.318
 2859SOL    HW2 8898   3.557   1.910   2.423
 2860SOL     OW 8899   1.992   3.656   3.713
 2860SOL    HW1 8900   1.951   3.582   3.766
 2860SOL    HW2 8901   2.056   3.707   3.771
 2861SOL     OW 8902   2.692   3.135   3.284
 2861SOL    HW1 8903   2.687   3.168   3.379
 2861SOL    HW2 8904   2.606   3.154   3.238
 2862SOL     OW 8905   3.512   3.582   3.256
 2862SOL    HW1 8906   3.565   3.592   3.172
 2862SOL    HW2 8907   3.485   3.672   3.290
 2863SOL     OW 8908   3.703   2.037   2.825
 2863SOL    HW1 8909   3.742   1.952   2.789
 2863SOL    HW2 8910   3.605   2.039   2.806
 2864SOL     OW 8911   2.125   2.188   2.582
 2864SOL    HW1 8912   2.046   2.239   2.548
 2864SOL    HW2 8913   2.116   2.173   2.680
 2865SOL     OW 8914   2.234   3.150   3.352
 2865SOL    HW1 8915   2.221   3.243   3.318
 2865SOL    HW2 8916   2.150   3.098   3.339
 2866SOL     OW 8917   3.476   3.154   3.151
 2866SOL    HW1 8918   3.536   3.157   3.231
 2866SOL    HW2 8919   3.401   3.218   3.164
 2867SOL     OW 8920   2.876   2.098   2.833
 2867SOL    HW1 8921   2.868   2.062   2.740
 2867SOL    HW2 8922   2.874   2.022   2.898
 2868SOL     OW 8923   3.571   2.247   3.243
 2868SOL    HW1 8924   3.644   2.316   3.247
 2868SOL    HW2 8925   3.599   2.172   3.184
 2869SOL     OW 8926   2.117   3.210   2.152
 2869SOL    HW1 8927   2.021   3.211   2.125
 2869SOL    HW2 8928   2.129   3.263   2.236
 2870SOL     OW 8929   1.967   2.875   3.588
 2870SOL    HW1 8930   1.890   2.842   3.642
 2870SOL    HW2 8931   2.052   2.845   3.630
 2871SOL     OW 8932   1.937   2.207   1.895
 2871SOL    HW1 8933   1.845   2.179   1.866
 2871SOL    HW2 8934   1.968   2.284   1.839
 2872SOL     OW 8935   3.302   2.718   3.260
 2872SOL    HW1 8936   3.245   2.770   3.197
 2872SOL    HW2 8937   3.398   2.730   3.236
 2873SOL     OW 8938   1.934   2.028   2.180
 2873SOL    HW1 8939   1.917   2.111   2.126
 2873SOL    HW2 8940   2.024   1.991   2.158
 2874SOL     OW 8941   3.355   3.629   2.821
 2874SOL    HW1 8942   3.388   3.693   2.752
 2874SOL    HW2 8943   3.421   3.623   2.896
 2875SOL     OW 8944   3.312   3.082   3.495
 2875SOL    HW1 8945   3.303   3.072   3.594
 2875SOL    HW2 8946   3.408   3.075   3.469
 2876SOL     OW 8947   2.252   3.603   3.422
 2876SOL    HW1 8948   2.161   3.644   3.420
 2876SOL    HW2 8949   2.245   3.509   3.454
 2877SOL     OW 8950   3.536   2.745   3.116
 2877SOL    HW1 8951   3.509   2.656   3.079
 2877SOL    HW2 8952   3.537   2.813   3.043
 2878SOL     OW 8953   3.087   2.187   2.311
 2878SOL    HW1 8954   3.152   2.113   2.300
 2878SOL    HW2 8955   3.107   2.237   2.395
 2879SOL     OW 8956   3.639   2.204   3.504
 2879SOL    HW1 8957   3.622   2.235   3.410
 2879SOL    HW2 8958   3.555   2.167   3.542
 2880SOL     OW 8959   3.592   2.796   3.379
 2880SOL    HW1 8960   3.630   2.887   3.394
 2880SOL    HW2 8961   3.584   2.779   3.280
 2881SOL     OW 8962   2.523   3.652   2.815
 2881SOL    HW1 8963   2.477   3.740   2.802
 2881SOL    HW2 8964   2.622   3.664   2.808
 2882SOL     OW 8965   3.723   3.431   2.713
 2882SOL    HW1 8966   3.652   3.419   2.643
 2882SOL    HW2 8967   3.724   3.352   2.773
 2883SOL     OW 8968   2.083   3.176   3.706
 2883SOL    HW1 8969   2.018   3.103   3.685
 2883SOL    HW2 8970   2.087   3.190   3.804
 2884SOL     OW 8971   1.941   3.102   2.515
 2884SOL    HW1 8972   1.940   3.055   2.603
 2884SOL    HW2 8973   2.023   3.074   2.464
 2885SOL     OW 8974   2.534   3.253   3.486
 2885SOL    HW1 8975   2.456   3.203   3.524
 2885SOL    HW2 8976   2.531   3.348   3.517
 2886SOL     OW 8977   3.686   2.054   3.089
 2886SOL    HW1 8978   3.682   1.964   3.133
 2886SOL    HW2 8979   3.689   2.043   2.990
 2887SOL     OW 8980   2.290   2.286   2.382
 2887SOL    HW1 8981   2.320   2.214   2.320
 2887SOL    HW2 8982   2.251   2.246   2.465
 2888SOL     OW 8983   3.567   3.349   2.966
 2888SOL    HW1 8984   3.474   3.324   2.939
 2888SOL    HW2 8985   3.593   3.299   3.048
 2889SOL     OW 8986   2.179   2.409   3.142
 2889SOL    HW1 8987   2.217   2.350   3.214
 2889SOL    HW2 8988   2.219   2.383   3.054
 2890SOL     OW 8989   3.286   2.076   2.974
 2890SOL    HW1 8990   3.338   2.011   3.029
 2890SOL    HW2 8991   3.237   2.139   3.035
 2891SOL     OW 8992   2.863   1.896   3.016
 2891SOL    HW1 8993   2.800   1.824   2.985
 2891SOL    HW2 8994   2.956   1.860   3.016
 2892SOL     OW 8995   2.480   3.429   3.146
 2892SOL    HW1 8996   2.475   3.511   3.203
 2892SOL    HW2 8997   2.569   3.426   3.101
 2893SOL     OW 8998   3.214   1.914   2.030
 2893SOL    HW1 8999   3.249   1.873   1.946
 2893SOL    HW2 9000   3.124   1.876   2.050
 2894SOL     OW 9001   3.455   2.083   2.744
 2894SOL    HW1 9002   3.371   2.082   2.798
 2894SOL    HW2 9003   3.457   2.166   2.688
 2895SOL     OW 9004   1.901   2.939   2.162
 2895SOL    HW1 9005   2.000   2.928   2.153
 2895SOL    HW2 9006   1.861   2.853   2.194
 2896SOL     OW 9007   2.737   3.508   2.199
 2896SOL    HW1 9008   2.660   3.473   2.145
 2896SOL    HW2 9009   2.705   3.579   2.261
 2897SOL     OW 9010   2.092   2.490   3.837
 2897SOL    HW1 9011   1.999   2.488   3.874
 2897SOL    HW2 9012   2.093   2.451   3.745
 2898SOL     OW 9013   2.087   2.137   4.720
 2898SOL    HW1 9014   2.122   2.120   4.812
 2898SOL    HW2 9015   1.999   2.092   4.708
 2899SOL     OW 9016   1.881   2.230   4.371
 2899SOL    HW1 9017   1.799   2.273   4.410
 2899SOL    HW2 9018   1.853   2.157   4.308
 2900SOL     OW 9019   2.431   3.137   4.889
 2900SOL    HW1 9020   2.338   3.130   4.852
 2900SOL    HW2 9021   2.442   3.226   4.933
 2901SOL     OW 9022   3.417   3.373   4.427
 2901SOL    HW1 9023   3.360   3.357   4.508
 2901SOL    HW2 9024   3.358   3.383   4.347
 2902SOL     OW 9025   2.997   2.565   4.441
 2902SOL    HW1 9026   3.054   2.643   4.416
 2902SOL    HW2 9027   2.937   2.591   4.517
 2903SOL     OW 9028   3.617   2.469   3.955
 2903SOL    HW1 9029   3.605   2.456   3.856
 2903SOL    HW2 9030   3.587   2.388   4.004
 2904SOL     OW 9031   2.630   3.006   4.747
 2904SOL    HW1 9032   2.552   3.023   4.807
 2904SOL    HW2 9033   2.664   3.093   4.711
 2905SOL     OW 9034   2.712   2.660   5.547
 2905SOL    HW1 9035   2.708   2.736   5.612
 2905SOL    HW2 9036   2.734   2.696   5.456
 2906SOL     OW 9037   2.547   2.874   4.389
 2906SOL    HW1 9038   2.616   2.858   4.459
 2906SOL    HW2 9039   2.474   2.931   4.427
 2907SOL     OW 9040   2.548   3.023   5.527
 2907SOL    HW1 9041   2.608   3.102   5.541
 2907SOL    HW2 9042   2.462   3.054   5.486
 2908SOL     OW 9043   2.197   3.297   4.785
 2908SOL    HW1 9044   2.119   3.266   4.732
 2908SOL    HW2 9045   2.255   3.355   4.728
 2909SOL     OW 9046   3.322   3.367   5.063
 2909SOL    HW1 9047   3.346   3.461   5.089
 2909SOL    HW2 9048   3.306   3.313   5.145
 2910SOL     OW 9049   2.300   2.254   5.223
 2910SOL    HW1 9050   2.382   2.198   5.232
 2910SOL    HW2 9051   2.219   2.196   5.227
 2911SOL     OW 9052   3.465   2.309   4.461
 2911SOL    HW1 9053   3.391   2.355   4.411
 2911SOL    HW2 9054   3.516   2.377   4.514
 2912SOL     OW 9055   2.093   3.575   4.207
 2912SOL    HW1 9056   2.127   3.652   4.261
 2912SOL    HW2 9057   2.137   3.575   4.117
 2913SOL     OW 9058   2.989   3.203   5.414
 2913SOL    HW1 9059   3.036   3.203   5.502
 2913SOL    HW2 9060   2.941   3.116   5.403
 2914SOL     OW 9061   2.092   3.296   4.262
 2914SOL    HW1 9062   2.066   3.392   4.262
 2914SOL    HW2 9063   2.021   3.242   4.307
 2915SOL     OW 9064   2.102   2.953   4.610
 2915SOL    HW1 9065   2.116   2.869   4.662
 2915SOL    HW2 9066   2.047   3.017   4.665
 2916SOL     OW 9067   2.482   3.648   5.163
 2916SOL    HW1 9068   2.390   3.631   5.198
 2916SOL    HW2 9069   2.510   3.740   5.189
 2917SOL     OW 9070   3.456   1.976   5.204
 2917SOL    HW1 9071   3.438   2.043   5.132
 2917SOL    HW2 9072   3.453   2.022   5.293
 2918SOL     OW 9073   1.984   2.505   4.287
 2918SOL    HW1 9074   1.939   2.417   4.304
 2918SOL    HW2 9075   1.983   2.559   4.371
 2919SOL     OW 9076   3.704   3.629   4.083
 2919SOL    HW1 9077   3.758   3.600   4.163
 2919SOL    HW2 9078   3.734   3.719   4.054
 2920SOL     OW 9079   1.889   3.458   3.841
 2920SOL    HW1 9080   1.870   3.362   3.862
 2920SOL    HW2 9081   1.856   3.516   3.916
 2921SOL     OW 9082   3.551   2.784   4.336
 2921SOL    HW1 9083   3.646   2.755   4.344
 2921SOL    HW2 9084   3.543   2.849   4.261
 2922SOL     OW 9085   3.503   2.970   4.156
 2922SOL    HW1 9086   3.589   2.972   4.104
 2922SOL    HW2 9087   3.517   3.017   4.244
 2923SOL     OW 9088   1.975   2.599   5.321
 2923SOL    HW1 9089   2.063   2.586   5.366
 2923SOL    HW2 9090   1.962   2.696   5.299
 2924SOL     OW 9091   2.475   3.227   4.450
 2924SOL    HW1 9092   2.426   3.140   4.459
 2924SOL    HW2 9093   2.452   3.270   4.363
 2925SOL     OW 9094   3.155   3.090   5.147
 2925SOL    HW1 9095   3.192   3.017   5.089
 2925SOL    HW2 9096   3.207   3.095   5.232
 2926SOL     OW 9097   2.671   1.866   4.226
 2926SOL    HW1 9098   2.711   1.957   4.217
 2926SOL    HW2 9099   2.571   1.874   4.232
 2927SOL     OW 9100   2.059   2.838   4.988
 2927SOL    HW1 9101   2.148   2.793   4.974
 2927SOL    HW2 9102   1.986   2.773   4.969
 2928SOL     OW 9103   3.387   2.861   3.914
 2928SOL    HW1 9104   3.324   2.785   3.927
 2928SOL    HW2 9105   3.435   2.879   4.000
 2929SOL     OW 9106   3.049   3.654   5.340
 2929SOL    HW1 9107   3.073   3.714   5.264
 2929SOL    HW2 9108   3.056   3.559   5.310
 2930SOL     OW 9109   2.179   2.113   5.525
 2930SOL    HW1 9110   2.250   2.184   5.531
 2930SOL    HW2 9111   2.091   2.152   5.553
 2931SOL     OW 9112   3.328   3.279   4.677
 2931SOL    HW1 9113   3.269   3.285   4.757
 2931SOL    HW2 9114   3.313   3.191   4.631
 2932SOL     OW 9115   3.529   3.576   4.296
 2932SOL    HW1 9116   3.488   3.553   4.208
 2932SOL    HW2 9117   3.511   3.502   4.361
 2933SOL     OW 9118   3.143   2.207   4.668
 2933SOL    HW1 9119   3.057   2.157   4.655
 2933SOL    HW2 9120   3.205   2.153   4.724
 2934SOL     OW 9121   3.438   3.524   4.031
 2934SOL    HW1 9122   3.527   3.570   4.034
 2934SOL    HW2 9123   3.417   3.500   3.936
 2935SOL     OW 9124   2.669   2.467   5.189
 2935SOL    HW1 9125   2.622   2.464   5.278
 2935SOL    HW2 9126   2.618   2.412   5.123
 2936SOL     OW 9127   3.256   2.331   5.398
 2936SOL    HW1 9128   3.236   2.374   5.486
 2936SOL    HW2 9129   3.334   2.269   5.407
 2937SOL     OW 9130   2.835   2.752   5.296
 2937SOL    HW1 9131   2.881   2.668   5.267
 2937SOL    HW2 9132   2.779   2.786   5.221
 2938SOL     OW 9133   2.853   2.272   4.966
 2938SOL    HW1 9134   2.776   2.306   5.020
 2938SOL    HW2 9135   2.819   2.221   4.887
 2939SOL     OW 9136   1.938   2.673   4.513
 2939SOL    HW1 9137   2.037   2.661   4.522
 2939SOL    HW2 9138   1.914   2.768   4.534
 2940SOL     OW 9139   1.992   3.683   5.295
 2940SOL    HW1 9140   1.982   3.668   5.394
 2940SOL    HW2 9141   1.906   3.719   5.259
 2941SOL     OW 9142   3.581   2.447   5.555
 2941SOL    HW1 9143   3.555   2.536   5.519
 2941SOL    HW2 9144   3.579   2.379   5.482
 2942SOL     OW 9145   3.224   3.006   4.269
 2942SOL    HW1 9146   3.307   2.977   4.221
 2942SOL    HW2 9147   3.175   3.073   4.213
 2943SOL     OW 9148   2.412   2.058   4.609
 2943SOL    HW1 9149   2.407   2.053   4.709
 2943SOL    HW2 9150   2.414   2.154   4.580
 2944SOL     OW 9151   2.870   3.318   4.201
 2944SOL    HW1 9152   2.824   3.390   4.149
 2944SOL    HW2 9153   2.866   3.338   4.299
 2945SOL     OW 9154   2.213   3.663   4.577
 2945SOL    HW1 9155   2.263   3.577   4.583
 2945SOL    HW2 9156   2.278   3.740   4.574
 2946SOL     OW 9157   3.657   2.928   4.597
 2946SOL    HW1 9158   3.595   2.913   4.521
 2946SOL    HW2 9159   3.605   2.939   4.682
 2947SOL     OW 9160   3.089   3.412   5.230
 2947SOL    HW1 9161   3.095   3.335   5.294
 2947SOL    HW2 9162   3.037   3.386   5.150
 2948SOL     OW 9163   2.183   2.805   3.966
 2948SOL    HW1 9164   2.265   2.844   3.924
 2948SOL    HW2 9165   2.156   2.723   3.917
 2949SOL     OW 9166   3.320   2.597   4.452
 2949SOL    HW1 9167   3.315   2.532   4.527
 2949SOL    HW2 9168   3.400   2.656   4.465
 2950SOL     OW 9169   2.323   3.128   5.451
 2950SOL    HW1 9170   2.273   3.129   5.365
 2950SOL    HW2 9171   2.260   3.110   5.527
 2951SOL     OW 9172   2.973   3.638   3.961
 2951SOL    HW1 9173   2.913   3.576   4.011
 2951SOL    HW2 9174   3.004   3.594   3.876
 2952SOL     OW 9175   2.064   2.147   5.222
 2952SOL    HW1 9176   1.984   2.207   5.209
 2952SOL    HW2 9177   2.054   2.098   5.308
 2953SOL     OW 9178   3.494   3.239   3.805
 2953SOL    HW1 9179   3.462   3.333   3.795
 2953SOL    HW2 9180   3.418   3.176   3.793
 2954SOL     OW 9181   2.326   3.605   4.047
 2954SOL    HW1 9182   2.359   3.644   4.133
 2954SOL    HW2 9183   2.402   3.598   3.982
 2955SOL     OW 9184   3.262   1.969   4.150
 2955SOL    HW1 9185   3.238   1.932   4.060
 2955SOL    HW2 9186   3.361   1.985   4.154
 2956SOL     OW 9187   2.111   3.647   4.965
 2956SOL    HW1 9188   2.168   3.582   5.015
 2956SOL    HW2 9189   2.095   3.614   4.872
 2957SOL     OW 9190   2.802   3.560   4.628
 2957SOL    HW1 9191   2.882   3.503   4.649
 2957SOL    HW2 9192   2.753   3.520   4.551
 2958SOL     OW 9193   3.409   2.084   5.453
 2958SOL    HW1 9194   3.404   2.121   5.545
 2958SOL    HW2 9195   3.337   2.015   5.441
 2959SOL     OW 9196   2.643   2.126   5.473
 2959SOL    HW1 9197   2.710   2.065   5.516
 2959SOL    HW2 9198   2.570   2.145   5.538
 2960SOL     OW 9199   2.750   3.376   4.919
 2960SOL    HW1 9200   2.727   3.351   4.825
 2960SOL    HW2 9201   2.811   3.307   4.958
 2961SOL     OW 9202   3.213   2.452   5.157
 2961SOL    HW1 9203   3.241   2.409   5.242
 2961SOL    HW2 9204   3.238   2.548   5.158
 2962SOL     OW 9205   2.665   3.264   4.648
 2962SOL    HW1 9206   2.755   3.278   4.606
 2962SOL    HW2 9207   2.594   3.266   4.577
 2963SOL     OW 9208   2.784   2.365   4.623
 2963SOL    HW1 9209   2.759   2.356   4.527
 2963SOL    HW2 9210   2.832   2.283   4.654
 2964SOL     OW 9211   3.296   3.050   3.765
 2964SOL    HW1 9212   3.328   2.974   3.822
 2964SOL    HW2 9213   3.204   3.077   3.795
 2965SOL     OW 9214   2.938   2.545   5.188
 2965SOL    HW1 9215   2.858   2.484   5.191
 2965SOL    HW2 9216   3.019   2.492   5.164
 2966SOL     OW 9217   3.089   3.432   4.517
 2966SOL    HW1 9218   3.110   3.506   4.452
 2966SOL    HW2 9219   3.157   3.432   4.590
 2967SOL     OW 9220   2.321   3.014   4.465
 2967SOL    HW1 9221   2.250   2.987   4.530
 2967SOL    HW2 9222   2.295   2.986   4.372
 2968SOL     OW 9223   3.133   3.659   4.315
 2968SOL    HW1 9224   3.177   3.723   4.251
 2968SOL    HW2 9225   3.083   3.711   4.385
 2969SOL     OW 9226   1.940   2.418   5.110
 2969SOL    HW1 9227   2.032   2.417   5.069
 2969SOL    HW2 9228   1.934   2.492   5.177
 2970SOL     OW 9229   2.423   2.084   4.871
 2970SOL    HW1 9230   2.461   2.000   4.908
 2970SOL    HW2 9231   2.335   2.103   4.915
 2971SOL     OW 9232   2.728   2.316   4.366
 2971SOL    HW1 9233   2.696   2.388   4.304
 2971SOL    HW2 9234   2.752   2.235   4.313
 2972SOL     OW 9235   2.879   1.901   4.477
 2972SOL    HW1 9236   2.807   1.906   4.408
 2972SOL    HW2 9237   2.855   1.832   4.546
 2973SOL     OW 9238   3.291   3.035   4.591
 2973SOL    HW1 9239   3.236   2.951   4.584
 2973SOL    HW2 9240   3.317   3.064   4.499
 2974SOL     OW 9241   3.328   2.452   4.716
 2974SOL    HW1 9242   3.298   2.357   4.723
 2974SOL    HW2 9243   3.401   2.468   4.782
 2975SOL     OW 9244   3.719   2.695   4.101
 2975SOL    HW1 9245   3.761   2.631   4.165
 2975SOL    HW2 9246   3.681   2.644   4.023
 2976SOL     OW 9247   2.350   3.247   3.898
 2976SOL    HW1 9248   2.263   3.232   3.945
 2976SOL    HW2 9249   2.333   3.273   3.803
 2977SOL     OW 9250   3.526   3.142   4.381
 2977SOL    HW1 9251   3.625   3.150   4.395
 2977SOL    HW2 9252   3.481   3.226   4.412
 2978SOL     OW 9253   3.616   3.085   5.312
 2978SOL    HW1 9254   3.707   3.046   5.299
 2978SOL    HW2 9255   3.624   3.181   5.336
 2979SOL     OW 9256   2.926   3.209   5.064
 2979SOL    HW1 9257   2.846   3.186   5.119
 2979SOL    HW2 9258   3.009   3.183   5.113
 2980SOL     OW 9259   3.454   3.491   5.349
 2980SOL    HW1 9260   3.481   3.525   5.259
 2980SOL    HW2 9261   3.533   3.453   5.395
 2981SOL     OW 9262   2.973   3.057   4.824
 2981SOL    HW1 9263   2.933   3.101   4.905
 2981SOL    HW2 9264   2.932   3.094   4.741
 2982SOL     OW 9265   3.500   2.961   4.803
 2982SOL    HW1 9266   3.505   3.042   4.862
 2982SOL    HW2 9267   3.414   2.963   4.752
 2983SOL     OW 9268   2.777   1.951   5.126
 2983SOL    HW1 9269   2.802   1.931   5.031
 2983SOL    HW2 9270   2.849   2.007   5.168
 2984SOL     OW 9271   2.842   2.978   5.443
 2984SOL    HW1 9272   2.743   2.984   5.453
 2984SOL    HW2 9273   2.865   2.898   5.387
 2985SOL     OW 9274   2.272   2.675   4.975
 2985SOL    HW1 9275   2.358   2.687   5.025
 2985SOL    HW2 9276   2.230   2.588   5.002
 2986SOL     OW 9277   3.136   2.248   4.986
 2986SOL    HW1 9278   3.157   2.322   5.050
 2986SOL    HW2 9279   3.047   2.265   4.943
 2987SOL     OW 9280   1.926   3.426   5.055
 2987SOL    HW1 9281   1.880   3.508   5.021
 2987SOL    HW2 9282   2.024   3.445   5.064
 2988SOL     OW 9283   2.229   2.962   4.225
 2988SOL    HW1 9284   2.222   3.045   4.169
 2988SOL    HW2 9285   2.233   2.882   4.165
 2989SOL     OW 9286   2.428   2.399   4.589
 2989SOL    HW1 9287   2.440   2.465   4.515
 2989SOL    HW2 9288   2.474   2.433   4.672
 2990SOL     OW 9289   3.114   3.210   4.112
 2990SOL    HW1 9290   3.164   3.287   4.152
 2990SOL    HW2 9291   3.019   3.212   4.144
 2991SOL     OW 9292   3.134   3.307   4.866
 2991SOL    HW1 9293   3.181   3.320   4.953
 2991SOL    HW2 9294   3.068   3.233   4.875
 2992SOL     OW 9295   3.444   2.501   4.196
 2992SOL    HW1 9296   3.413   2.562   4.269
 2992SOL    HW2 9297   3.494   2.553   4.127
 2993SOL     OW 9298   2.216   3.372   5.053
 2993SOL    HW1 9299   2.195   3.328   4.966
 2993SOL    HW2 9300   2.313   3.398   5.056
 2994SOL     OW 9301   2.264   2.613   5.322
 2994SOL    HW1 9302   2.332   2.668   5.275
 2994SOL    HW2 9303   2.304   2.525   5.349
 2995SOL     OW 9304   3.449   2.641   5.394
 2995SOL    HW1 9305   3.357   2.679   5.389
 2995SOL    HW2 9306   3.509   2.688   5.329
 2996SOL     OW 9307   2.875   1.967   5.494
 2996SOL    HW1 9308   2.881   2.052   5.442
 2996SOL    HW2 9309   2.907   1.891   5.437
 2997SOL     OW 9310   2.366   1.912   5.464
 2997SOL    HW1 9311   2.324   1.855   5.394
 2997SOL    HW2 9312   2.300   1.981   5.496
 2998SOL     OW 9313   2.435   2.732   4.753
 2998SOL    HW1 9314   2.479   2.821   4.744
 2998SOL    HW2 9315   2.372   2.732   4.830
 2999SOL     OW 9316   3.222   2.724   4.769
 2999SOL    HW1 9317   3.147   2.724   4.703
 2999SOL    HW2 9318   3.259   2.632   4.778
 3000SOL     OW 9319   2.169   2.075   4.955
 3000SOL    HW1 9320   2.146   2.112   5.045
 3000SOL    HW2 9321   2.139   1.980   4.949
 3001SOL     OW 9322   1.899   3.172   5.006
 3001SOL    HW1 9323   1.952   3.123   5.074
 3001SOL    HW2 9324   1.921   3.270   5.011
 3002SOL     OW 9325   2.594   2.496   4.788
 3002SOL    HW1 9326   2.653   2.470   4.712
 3002SOL    HW2 9327   2.566   2.592   4.777
 3003SOL     OW 9328   3.590   2.797   5.578
 3003SOL    HW1 9329   3.544   2.790   5.489
 3003SOL    HW2 9330   3.528   2.841   5.644
 3004SOL     OW 9331   3.484   2.229   4.098
 3004SOL    HW1 9332   3.486   2.153   4.162
 3004SOL    HW2 9333   3.436   2.306   4.138
 3005SOL     OW 9334   2.885   2.628   4.690
 3005SOL    HW1 9335   2.900   2.649   4.786
 3005SOL    HW2 9336   2.855   2.533   4.681
 3006SOL     OW 9337   2.842   3.435   5.424
 3006SOL    HW1 9338   2.822   3.479   5.336
 3006SOL    HW2 9339   2.881   3.344   5.408
 3007SOL     OW 9340   3.721   3.380   5.329
 3007SOL    HW1 9341   3.735   3.407   5.234
 3007SOL    HW2 9342   3.804   3.402   5.382
 3008SOL     OW 9343   2.212   2.760   5.528
 3008SOL    HW1 9344   2.288   2.804   5.576
 3008SOL    HW2 9345   2.247   2.713   5.446
 3009SOL     OW 9346   3.402   2.136   3.849
 3009SOL    HW1 9347   3.341   2.061   3.872
 3009SOL    HW2 9348   3.424   2.188   3.932
 3010SOL     OW 9349   3.165   2.700   3.766
 3010SOL    HW1 9350   3.199   2.607   3.781
 3010SOL    HW2 9351   3.183   2.727   3.671
 3011SOL     OW 9352   2.930   3.195   4.573
 3011SOL    HW1 9353   2.937   3.111   4.518
 3011SOL    HW2 9354   2.992   3.264   4.537
 3012SOL     OW 9355   2.181   2.672   4.673
 3012SOL    HW1 9356   2.274   2.708   4.678
 3012SOL    HW2 9357   2.175   2.587   4.725
 3013SOL     OW 9358   2.201   2.371   4.730
 3013SOL    HW1 9359   2.149   2.288   4.713
 3013SOL    HW2 9360   2.278   2.376   4.666
 3014SOL     OW 9361   3.000   2.242   5.402
 3014SOL    HW1 9362   2.955   2.305   5.466
 3014SOL    HW2 9363   3.093   2.273   5.385
 3015SOL     OW 9364   3.022   2.069   5.201
 3015SOL    HW1 9365   3.022   2.133   5.278
 3015SOL    HW2 9366   3.050   2.117   5.118
 3016SOL     OW 9367   1.870   3.188   3.924
 3016SOL    HW1 9368   1.777   3.209   3.893
 3016SOL    HW2 9369   1.880   3.089   3.937
 3017SOL     OW 9370   1.950   3.663   4.651
 3017SOL    HW1 9371   1.908   3.577   4.624
 3017SOL    HW2 9372   2.044   3.666   4.617
 3018SOL     OW 9373   2.366   3.430   4.634
 3018SOL    HW1 9374   2.432   3.504   4.643
 3018SOL    HW2 9375   2.410   3.351   4.592
 3019SOL     OW 9376   2.864   2.658   4.962
 3019SOL    HW1 9377   2.905   2.626   5.048
 3019SOL    HW2 9378   2.768   2.631   4.959
 3020SOL     OW 9379   1.902   2.406   4.838
 3020SOL    HW1 9380   1.987   2.373   4.797
 3020SOL    HW2 9381   1.915   2.421   4.936
 3021SOL     OW 9382   2.051   2.382   5.446
 3021SOL    HW1 9383   2.110   2.342   5.376
 3021SOL    HW2 9384   1.993   2.453   5.405
 3022SOL     OW 9385   3.231   2.812   5.384
 3022SOL    HW1 9386   3.270   2.901   5.404
 3022SOL    HW2 9387   3.241   2.792   5.287
 3023SOL     OW 9388   3.519   2.466   4.930
 3023SOL    HW1 9389   3.481   2.397   4.992
 3023SOL    HW2 9390   3.601   2.430   4.886
 3024SOL     OW 9391   2.114   3.426   5.468
 3024SOL    HW1 9392   2.084   3.483   5.544
 3024SOL    HW2 9393   2.107   3.329   5.494
 3025SOL     OW 9394   2.533   2.326   4.993
 3025SOL    HW1 9395   2.499   2.237   4.963
 3025SOL    HW2 9396   2.559   2.380   4.913
 3026SOL     OW 9397   2.792   3.540   5.189
 3026SOL    HW1 9398   2.768   3.522   5.094
 3026SOL    HW2 9399   2.822   3.634   5.199
 3027SOL     OW 9400   2.021   2.999   5.190
 3027SOL    HW1 9401   2.043   2.938   5.266
 3027SOL    HW2 9402   2.031   2.950   5.104
 3028SOL     OW 9403   3.209   2.921   4.958
 3028SOL    HW1 9404   3.233   2.858   4.884
 3028SOL    HW2 9405   3.119   2.961   4.940
 3029SOL     OW 9406   3.164   2.717   4.033
 3029SOL    HW1 9407   3.078   2.686   4.075
 3029SOL    HW2 9408   3.160   2.703   3.934
 3030SOL     OW 9409   3.621   3.609   4.878
 3030SOL    HW1 9410   3.682   3.639   4.805
 3030SOL    HW2 9411   3.583   3.520   4.856
 3031SOL     OW 9412   3.114   3.593   4.852
 3031SOL    HW1 9413   3.198   3.598   4.798
 3031SOL    HW2 9414   3.091   3.497   4.870
 3032SOL     OW 9415   1.945   3.120   4.746
 3032SOL    HW1 9416   1.940   3.119   4.846
 3032SOL    HW2 9417   1.862   3.079   4.708
 3033SOL     OW 9418   2.550   3.524   5.440
 3033SOL    HW1 9419   2.494   3.605   5.449
 3033SOL    HW2 9420   2.602   3.528   5.354
 3034SOL     OW 9421   3.588   1.997   4.247
 3034SOL    HW1 9422   3.661   1.980   4.180
 3034SOL    HW2 9423   3.557   1.910   4.285
 3035SOL     OW 9424   3.250   3.435   4.201
 3035SOL    HW1 9425   3.317   3.447   4.127
 3035SOL    HW2 9426   3.210   3.524   4.224
 3036SOL     OW 9427   1.992   3.656   5.575
 3036SOL    HW1 9428   1.951   3.582   5.628
 3036SOL    HW2 9429   2.056   3.707   5.633
 3037SOL     OW 9430   3.142   2.789   4.396
 3037SOL    HW1 9431   3.202   2.708   4.398
 3037SOL    HW2 9432   3.182   2.858   4.336
 3038SOL     OW 9433   2.692   3.135   5.146
 3038SOL    HW1 9434   2.687   3.168   5.241
 3038SOL    HW2 9435   2.606   3.154   5.100
 3039SOL     OW 9436   2.534   3.478   3.878
 3039SOL    HW1 9437   2.543   3.488   3.779
 3039SOL    HW2 9438   2.494   3.389   3.899
 3040SOL     OW 9439   3.512   3.582   5.118
 3040SOL    HW1 9440   3.565   3.592   5.034
 3040SOL    HW2 9441   3.485   3.672   5.152
 3041SOL     OW 9442   3.703   2.037   4.687
 3041SOL    HW1 9443   3.742   1.952   4.651
 3041SOL    HW2 9444   3.605   2.039   4.668
 3042SOL     OW 9445   2.125   2.188   4.444
 3042SOL    HW1 9446   2.046   2.239   4.410
 3042SOL    HW2 9447   2.116   2.173   4.542
 3043SOL     OW 9448   3.056   3.474   3.755
 3043SOL    HW1 9449   3.062   3.381   3.792
 3043SOL    HW2 9450   2.997   3.474   3.675
 3044SOL     OW 9451   2.684   2.864   5.096
 3044SOL    HW1 9452   2.724   2.863   5.004
 3044SOL    HW2 9453   2.694   2.956   5.136
 3045SOL     OW 9454   2.778   2.772   4.015
 3045SOL    HW1 9455   2.841   2.810   3.947
 3045SOL    HW2 9456   2.818   2.689   4.054
 3046SOL     OW 9457   3.366   3.469   3.768
 3046SOL    HW1 9458   3.274   3.506   3.775
 3046SOL    HW2 9459   3.404   3.489   3.678
 3047SOL     OW 9460   2.234   3.150   5.214
 3047SOL    HW1 9461   2.221   3.243   5.180
 3047SOL    HW2 9462   2.150   3.098   5.201
 3048SOL     OW 9463   3.476   3.154   5.013
 3048SOL    HW1 9464   3.536   3.157   5.093
 3048SOL    HW2 9465   3.401   3.218   5.026
 3049SOL     OW 9466   2.901   2.960   4.420
 3049SOL    HW1 9467   2.831   2.913   4.474
 3049SOL    HW2 9468   2.960   2.892   4.377
 3050SOL     OW 9469   2.876   2.098   4.695
 3050SOL    HW1 9470   2.868   2.062   4.602
 3050SOL    HW2 9471   2.874   2.022   4.760
 3051SOL     OW 9472   2.452   3.349   4.215
 3051SOL    HW1 9473   2.494   3.291   4.145
 3051SOL    HW2 9474   2.408   3.428   4.171
 3052SOL     OW 9475   3.571   2.247   5.105
 3052SOL    HW1 9476   3.644   2.316   5.109
 3052SOL    HW2 9477   3.599   2.172   5.046
 3053SOL     OW 9478   2.117   3.210   4.014
 3053SOL    HW1 9479   2.021   3.211   3.987
 3053SOL    HW2 9480   2.129   3.263   4.098
 3054SOL     OW 9481   1.967   2.875   5.450
 3054SOL    HW1 9482   1.890   2.842   5.504
 3054SOL    HW2 9483   2.052   2.845   5.492
 3055SOL     OW 9484   2.534   2.065   5.213
 3055SOL    HW1 9485   2.624   2.049   5.173
 3055SOL    HW2 9486   2.542   2.070   5.312
 3056SOL     OW 9487   1.937   2.207   3.757
 3056SOL    HW1 9488   1.845   2.179   3.728
 3056SOL    HW2 9489   1.968   2.284   3.701
 3057SOL     OW 9490   3.302   2.718   5.122
 3057SOL    HW1 9491   3.245   2.770   5.059
 3057SOL    HW2 9492   3.398   2.730   5.098
 3058SOL     OW 9493   3.045   3.197   3.843
 3058SOL    HW1 9494   2.946   3.186   3.845
 3058SOL    HW2 9495   3.079   3.212   3.936
 3059SOL     OW 9496   2.475   2.704   5.155
 3059SOL    HW1 9497   2.531   2.785   5.138
 3059SOL    HW2 9498   2.534   2.624   5.158
 3060SOL     OW 9499   3.355   3.629   4.683
 3060SOL    HW1 9500   3.388   3.693   4.614
 3060SOL    HW2 9501   3.421   3.623   4.758
 3061SOL     OW 9502   2.578   2.427   5.432
 3061SOL    HW1 9503   2.597   2.492   5.506
 3061SOL    HW2 9504   2.638   2.347   5.441
 3062SOL     OW 9505   3.312   3.082   5.357
 3062SOL    HW1 9506   3.303   3.072   5.456
 3062SOL    HW2 9507   3.408   3.075   5.331
 3063SOL     OW 9508   2.252   3.603   5.284
 3063SOL    HW1 9509   2.161   3.644   5.282
 3063SOL    HW2 9510   2.245   3.509   5.316
 3064SOL     OW 9511   3.536   2.745   4.978
 3064SOL    HW1 9512   3.509   2.656   4.941
 3064SOL    HW2 9513   3.537   2.813   4.905
 3065SOL     OW 9514   3.087   2.187   4.173
 3065SOL    HW1 9515   3.152   2.113   4.162
 3065SOL    HW2 9516   3.107   2.237   4.257
 3066SOL     OW 9517   3.639   2.204   5.366
 3066SOL    HW1 9518   3.622   2.235   5.272
 3066SOL    HW2 9519   3.555   2.167   5.404
 3067SOL     OW 9520   3.592   2.796   5.241
 3067SOL    HW1 9521   3.630   2.887   5.256
 3067SOL    HW2 9522   3.584   2.779   5.142
 3068SOL     OW 9523   2.721   3.236   3.740
 3068SOL    HW1 9524   2.675   3.251   3.828
 3068SOL    HW2 9525   2.765   3.321   3.710
 3069SOL     OW 9526   2.523   3.652   4.677
 3069SOL    HW1 9527   2.477   3.740   4.664
 3069SOL    HW2 9528   2.622   3.664   4.670
 3070SOL     OW 9529   2.721   2.818   4.585
 3070SOL    HW1 9530   2.775   2.749   4.633
 3070SOL    HW2 9531   2.689   2.887   4.651
 3071SOL     OW 9532   3.723   3.431   4.575
 3071SOL    HW1 9533   3.652   3.419   4.505
 3071SOL    HW2 9534   3.724   3.352   4.635
 3072SOL     OW 9535   2.083   3.176   5.568
 3072SOL    HW1 9536   2.018   3.103   5.547
 3072SOL    HW2 9537   2.087   3.190   5.666
 3073SOL     OW 9538   1.941   3.102   4.377
 3073SOL    HW1 9539   1.940   3.055   4.465
 3073SOL    HW2 9540   2.023   3.074   4.326
 3074SOL     OW 9541   2.534   3.253   5.348
 3074SOL    HW1 9542   2.456   3.203   5.386
 3074SOL    HW2 9543   2.531   3.348   5.379
 3075SOL     OW 9544   3.686   2.054   4.951
 3075SOL    HW1 9545   3.682   1.964   4.995
 3075SOL    HW2 9546   3.689   2.043   4.852
 3076SOL     OW 9547   3.567   3.349   4.828
 3076SOL    HW1 9548   3.474   3.324   4.801
 3076SOL    HW2 9549   3.593   3.299   4.910
 3077SOL     OW 9550   2.179   2.409   5.004
 3077SOL    HW1 9551   2.217   2.350   5.076
 3077SOL    HW2 9552   2.219   2.383   4.916
 3078SOL     OW 9553   2.674   3.448   4.411
 3078SOL    HW1 9554   2.706   3.458   4.317
 3078SOL    HW2 9555   2.595   3.386   4.413
 3079SOL     OW 9556   3.286   2.076   4.836
 3079SOL    HW1 9557   3.338   2.011   4.891
 3079SOL    HW2 9558   3.237   2.139   4.897
 3080SOL     OW 9559   2.863   1.896   4.878
 3080SOL    HW1 9560   2.800   1.824   4.847
 3080SOL    HW2 9561   2.956   1.860   4.878
 3081SOL     OW 9562   2.632   3.192   4.025
 3081SOL    HW1 9563   2.586   3.105   4.042
 3081SOL    HW2 9564   2.723   3.189   4.066
 3082SOL     OW 9565   2.480   3.429   5.008
 3082SOL    HW1 9566   2.475   3.511   5.065
 3082SOL    HW2 9567   2.569   3.426   4.963
 3083SOL     OW 9568   3.214   1.914   3.892
 3083SOL    HW1 9569   3.249   1.873   3.808
 3083SOL    HW2 9570   3.124   1.876   3.912
 3084SOL     OW 9571   3.162   2.315   4.415
 3084SOL    HW1 9572   3.103   2.395   4.419
 3084SOL    HW2 9573   3.177   2.280   4.508
 3085SOL     OW 9574   3.455   2.083   4.606
 3085SOL    HW1 9575   3.371   2.082   4.660
 3085SOL    HW2 9576   3.457   2.166   4.550
 3086SOL     OW 9577   1.901   2.939   4.024
 3086SOL    HW1 9578   2.000   2.928   4.015
 3086SOL    HW2 9579   1.861   2.853   4.056
 3087SOL     OW 9580   2.737   3.508   4.061
 3087SOL    HW1 9581   2.660   3.473   4.007
 3087SOL    HW2 9582   2.705   3.579   4.123
 3088SOL     OW 9583   2.092   4.352   0.113
 3088SOL    HW1 9584   1.999   4.350   0.150
 3088SOL    HW2 9585   2.093   4.313   0.021
 3089SOL     OW 9586   2.087   3.999   0.996
 3089SOL    HW1 9587   2.122   3.982   1.088
 3089SOL    HW2 9588   1.999   3.954   0.984
 3090SOL     OW 9589   1.881   4.092   0.647
 3090SOL    HW1 9590   1.799   4.135   0.686
 3090SOL    HW2 9591   1.853   4.019   0.584
 3091SOL     OW 9592   2.431   4.999   1.165
 3091SOL    HW1 9593   2.338   4.992   1.128
 3091SOL    HW2 9594   2.442   5.088   1.209
 3092SOL     OW 9595   3.417   5.235   0.703
 3092SOL    HW1 9596   3.360   5.219   0.784
 3092SOL    HW2 9597   3.358   5.245   0.623
 3093SOL     OW 9598   2.997   4.427   0.717
 3093SOL    HW1 9599   3.054   4.505   0.692
 3093SOL    HW2 9600   2.937   4.453   0.793
 3094SOL     OW 9601   3.617   4.331   0.231
 3094SOL    HW1 9602   3.605   4.318   0.132
 3094SOL    HW2 9603   3.587   4.250   0.280
 3095SOL     OW 9604   2.630   4.868   1.023
 3095SOL    HW1 9605   2.552   4.885   1.083
 3095SOL    HW2 9606   2.664   4.955   0.987
 3096SOL     OW 9607   2.712   4.522   1.823
 3096SOL    HW1 9608   2.708   4.598   1.888
 3096SOL    HW2 9609   2.734   4.558   1.732
 3097SOL     OW 9610   2.547   4.736   0.665
 3097SOL    HW1 9611   2.616   4.720   0.735
 3097SOL    HW2 9612   2.474   4.793   0.703
 3098SOL     OW 9613   2.548   4.885   1.803
 3098SOL    HW1 9614   2.608   4.964   1.817
 3098SOL    HW2 9615   2.462   4.916   1.762
 3099SOL     OW 9616   2.197   5.159   1.061
 3099SOL    HW1 9617   2.119   5.128   1.008
 3099SOL    HW2 9618   2.255   5.217   1.004
 3100SOL     OW 9619   3.322   5.229   1.339
 3100SOL    HW1 9620   3.346   5.323   1.365
 3100SOL    HW2 9621   3.306   5.175   1.421
 3101SOL     OW 9622   2.300   4.116   1.499
 3101SOL    HW1 9623   2.382   4.060   1.508
 3101SOL    HW2 9624   2.219   4.058   1.503
 3102SOL     OW 9625   3.465   4.171   0.737
 3102SOL    HW1 9626   3.391   4.217   0.687
 3102SOL    HW2 9627   3.516   4.239   0.790
 3103SOL     OW 9628   2.093   5.437   0.483
 3103SOL    HW1 9629   2.127   5.514   0.537
 3103SOL    HW2 9630   2.137   5.437   0.393
 3104SOL     OW 9631   2.989   5.065   1.690
 3104SOL    HW1 9632   3.036   5.065   1.778
 3104SOL    HW2 9633   2.941   4.978   1.679
 3105SOL     OW 9634   2.092   5.158   0.538
 3105SOL    HW1 9635   2.066   5.254   0.538
 3105SOL    HW2 9636   2.021   5.104   0.583
 3106SOL     OW 9637   2.102   4.815   0.886
 3106SOL    HW1 9638   2.116   4.731   0.938
 3106SOL    HW2 9639   2.047   4.879   0.941
 3107SOL     OW 9640   2.482   5.510   1.439
 3107SOL    HW1 9641   2.390   5.493   1.474
 3107SOL    HW2 9642   2.510   5.602   1.465
 3108SOL     OW 9643   2.468   4.688   0.123
 3108SOL    HW1 9644   2.475   4.772   0.069
 3108SOL    HW2 9645   2.514   4.701   0.211
 3109SOL     OW 9646   1.984   4.367   0.563
 3109SOL    HW1 9647   1.939   4.279   0.580
 3109SOL    HW2 9648   1.983   4.421   0.647
 3110SOL     OW 9649   3.704   5.491   0.359
 3110SOL    HW1 9650   3.758   5.462   0.439
 3110SOL    HW2 9651   3.734   5.581   0.330
 3111SOL     OW 9652   1.889   5.320   0.117
 3111SOL    HW1 9653   1.870   5.224   0.138
 3111SOL    HW2 9654   1.856   5.378   0.192
 3112SOL     OW 9655   3.551   4.646   0.612
 3112SOL    HW1 9656   3.646   4.617   0.620
 3112SOL    HW2 9657   3.543   4.711   0.537
 3113SOL     OW 9658   3.503   4.832   0.432
 3113SOL    HW1 9659   3.589   4.834   0.380
 3113SOL    HW2 9660   3.517   4.879   0.520
 3114SOL     OW 9661   1.975   4.461   1.597
 3114SOL    HW1 9662   2.063   4.448   1.642
 3114SOL    HW2 9663   1.962   4.558   1.575
 3115SOL     OW 9664   2.475   5.089   0.726
 3115SOL    HW1 9665   2.426   5.002   0.735
 3115SOL    HW2 9666   2.452   5.132   0.639
 3116SOL     OW 9667   3.155   4.952   1.423
 3116SOL    HW1 9668   3.192   4.879   1.365
 3116SOL    HW2 9669   3.207   4.957   1.508
 3117SOL     OW 9670   2.671   3.728   0.502
 3117SOL    HW1 9671   2.711   3.819   0.493
 3117SOL    HW2 9672   2.571   3.736   0.508
 3118SOL     OW 9673   2.059   4.700   1.264
 3118SOL    HW1 9674   2.148   4.655   1.250
 3118SOL    HW2 9675   1.986   4.635   1.245
 3119SOL     OW 9676   3.387   4.723   0.190
 3119SOL    HW1 9677   3.324   4.647   0.203
 3119SOL    HW2 9678   3.435   4.741   0.276
 3120SOL     OW 9679   3.049   5.516   1.616
 3120SOL    HW1 9680   3.073   5.576   1.540
 3120SOL    HW2 9681   3.056   5.421   1.586
 3121SOL     OW 9682   2.179   3.975   1.801
 3121SOL    HW1 9683   2.250   4.046   1.807
 3121SOL    HW2 9684   2.091   4.014   1.829
 3122SOL     OW 9685   3.328   5.141   0.953
 3122SOL    HW1 9686   3.269   5.147   1.033
 3122SOL    HW2 9687   3.313   5.053   0.907
 3123SOL     OW 9688   3.529   5.438   0.572
 3123SOL    HW1 9689   3.488   5.415   0.484
 3123SOL    HW2 9690   3.511   5.364   0.637
 3124SOL     OW 9691   2.460   4.453   0.270
 3124SOL    HW1 9692   2.484   4.522   0.202
 3124SOL    HW2 9693   2.382   4.486   0.324
 3125SOL     OW 9694   3.143   4.069   0.944
 3125SOL    HW1 9695   3.057   4.019   0.931
 3125SOL    HW2 9696   3.205   4.015   1.000
 3126SOL     OW 9697   3.438   5.386   0.307
 3126SOL    HW1 9698   3.527   5.432   0.310
 3126SOL    HW2 9699   3.417   5.362   0.212
 3127SOL     OW 9700   2.669   4.329   1.465
 3127SOL    HW1 9701   2.622   4.326   1.554
 3127SOL    HW2 9702   2.618   4.274   1.399
 3128SOL     OW 9703   3.256   4.193   1.674
 3128SOL    HW1 9704   3.236   4.236   1.762
 3128SOL    HW2 9705   3.334   4.131   1.683
 3129SOL     OW 9706   2.835   4.614   1.572
 3129SOL    HW1 9707   2.881   4.530   1.543
 3129SOL    HW2 9708   2.779   4.648   1.497
 3130SOL     OW 9709   2.853   4.134   1.242
 3130SOL    HW1 9710   2.776   4.168   1.296
 3130SOL    HW2 9711   2.819   4.083   1.163
 3131SOL     OW 9712   2.903   4.425   0.429
 3131SOL    HW1 9713   2.929   4.421   0.525
 3131SOL    HW2 9714   2.818   4.374   0.415
 3132SOL     OW 9715   1.938   4.535   0.789
 3132SOL    HW1 9716   2.037   4.523   0.798
 3132SOL    HW2 9717   1.914   4.630   0.810
 3133SOL     OW 9718   1.992   5.545   1.571
 3133SOL    HW1 9719   1.982   5.530   1.670
 3133SOL    HW2 9720   1.906   5.581   1.535
 3134SOL     OW 9721   2.727   4.072   0.195
 3134SOL    HW1 9722   2.786   4.135   0.146
 3134SOL    HW2 9723   2.746   3.978   0.166
 3135SOL     OW 9724   3.581   4.309   1.831
 3135SOL    HW1 9725   3.555   4.398   1.795
 3135SOL    HW2 9726   3.579   4.241   1.758
 3136SOL     OW 9727   3.224   4.868   0.545
 3136SOL    HW1 9728   3.307   4.839   0.497
 3136SOL    HW2 9729   3.175   4.935   0.489
 3137SOL     OW 9730   2.412   3.920   0.885
 3137SOL    HW1 9731   2.407   3.915   0.985
 3137SOL    HW2 9732   2.414   4.016   0.856
 3138SOL     OW 9733   2.870   5.180   0.477
 3138SOL    HW1 9734   2.824   5.252   0.425
 3138SOL    HW2 9735   2.866   5.200   0.575
 3139SOL     OW 9736   2.213   5.525   0.853
 3139SOL    HW1 9737   2.263   5.439   0.859
 3139SOL    HW2 9738   2.278   5.602   0.850
 3140SOL     OW 9739   3.657   4.790   0.873
 3140SOL    HW1 9740   3.595   4.775   0.797
 3140SOL    HW2 9741   3.605   4.801   0.958
 3141SOL     OW 9742   3.089   5.274   1.506
 3141SOL    HW1 9743   3.095   5.197   1.570
 3141SOL    HW2 9744   3.037   5.248   1.426
 3142SOL     OW 9745   2.183   4.667   0.242
 3142SOL    HW1 9746   2.265   4.706   0.200
 3142SOL    HW2 9747   2.156   4.585   0.193
 3143SOL     OW 9748   3.320   4.459   0.728
 3143SOL    HW1 9749   3.315   4.394   0.803
 3143SOL    HW2 9750   3.400   4.518   0.741
 3144SOL     OW 9751   2.323   4.990   1.727
 3144SOL    HW1 9752   2.273   4.991   1.641
 3144SOL    HW2 9753   2.260   4.972   1.803
 3145SOL     OW 9754   2.973   5.500   0.237
 3145SOL    HW1 9755   2.913   5.438   0.287
 3145SOL    HW2 9756   3.004   5.456   0.152
 3146SOL     OW 9757   2.064   4.009   1.498
 3146SOL    HW1 9758   1.984   4.069   1.485
 3146SOL    HW2 9759   2.054   3.960   1.584
 3147SOL     OW 9760   3.494   5.101   0.081
 3147SOL    HW1 9761   3.462   5.195   0.071
 3147SOL    HW2 9762   3.418   5.038   0.069
 3148SOL     OW 9763   2.326   5.467   0.323
 3148SOL    HW1 9764   2.359   5.506   0.409
 3148SOL    HW2 9765   2.402   5.460   0.258
 3149SOL     OW 9766   3.262   3.831   0.426
 3149SOL    HW1 9767   3.238   3.794   0.336
 3149SOL    HW2 9768   3.361   3.847   0.430
 3150SOL     OW 9769   2.111   5.509   1.241
 3150SOL    HW1 9770   2.168   5.444   1.291
 3150SOL    HW2 9771   2.095   5.476   1.148
 3151SOL     OW 9772   2.802   5.422   0.904
 3151SOL    HW1 9773   2.882   5.365   0.925
 3151SOL    HW2 9774   2.753   5.382   0.827
 3152SOL     OW 9775   2.244   4.424   0.480
 3152SOL    HW1 9776   2.289   4.334   0.477
 3152SOL    HW2 9777   2.150   4.413   0.513
 3153SOL     OW 9778   3.409   3.946   1.729
 3153SOL    HW1 9779   3.404   3.983   1.821
 3153SOL    HW2 9780   3.337   3.877   1.717
 3154SOL     OW 9781   2.476   3.846   0.117
 3154SOL    HW1 9782   2.574   3.824   0.124
 3154SOL    HW2 9783   2.445   3.829   0.024
 3155SOL     OW 9784   2.643   3.988   1.749
 3155SOL    HW1 9785   2.710   3.927   1.792
 3155SOL    HW2 9786   2.570   4.007   1.814
 3156SOL     OW 9787   2.750   5.238   1.195
 3156SOL    HW1 9788   2.727   5.213   1.101
 3156SOL    HW2 9789   2.811   5.169   1.234
 3157SOL     OW 9790   3.213   4.314   1.433
 3157SOL    HW1 9791   3.241   4.271   1.518
 3157SOL    HW2 9792   3.238   4.410   1.434
 3158SOL     OW 9793   2.665   5.126   0.924
 3158SOL    HW1 9794   2.755   5.140   0.882
 3158SOL    HW2 9795   2.594   5.128   0.853
 3159SOL     OW 9796   2.784   4.227   0.899
 3159SOL    HW1 9797   2.759   4.218   0.803
 3159SOL    HW2 9798   2.832   4.145   0.930
 3160SOL     OW 9799   2.401   3.788   0.512
 3160SOL    HW1 9800   2.320   3.789   0.570
 3160SOL    HW2 9801   2.404   3.871   0.457
 3161SOL     OW 9802   3.296   4.912   0.041
 3161SOL    HW1 9803   3.328   4.836   0.098
 3161SOL    HW2 9804   3.204   4.939   0.071
 3162SOL     OW 9805   2.159   3.759   0.171
 3162SOL    HW1 9806   2.208   3.843   0.150
 3162SOL    HW2 9807   2.221   3.694   0.216
 3163SOL     OW 9808   2.797   3.960   0.480
 3163SOL    HW1 9809   2.749   4.001   0.402
 3163SOL    HW2 9810   2.896   3.958   0.461
 3164SOL     OW 9811   2.938   4.407   1.464
 3164SOL    HW1 9812   2.858   4.346   1.467
 3164SOL    HW2 9813   3.019   4.354   1.440
 3165SOL     OW 9814   3.089   5.294   0.793
 3165SOL    HW1 9815   3.110   5.368   0.728
 3165SOL    HW2 9816   3.157   5.294   0.866
 3166SOL     OW 9817   2.321   4.876   0.741
 3166SOL    HW1 9818   2.250   4.849   0.806
 3166SOL    HW2 9819   2.295   4.848   0.648
 3167SOL     OW 9820   3.133   5.521   0.591
 3167SOL    HW1 9821   3.177   5.585   0.527
 3167SOL    HW2 9822   3.083   5.573   0.661
 3168SOL     OW 9823   2.894   4.273   0.016
 3168SOL    HW1 9824   2.853   4.355  -0.023
 3168SOL    HW2 9825   2.958   4.299   0.089
 3169SOL     OW 9826   1.940   4.280   1.386
 3169SOL    HW1 9827   2.032   4.279   1.345
 3169SOL    HW2 9828   1.934   4.354   1.453
 3170SOL     OW 9829   2.423   3.946   1.147
 3170SOL    HW1 9830   2.461   3.862   1.184
 3170SOL    HW2 9831   2.335   3.965   1.191
 3171SOL     OW 9832   2.728   4.178   0.642
 3171SOL    HW1 9833   2.696   4.250   0.580
 3171SOL    HW2 9834   2.752   4.097   0.589
 3172SOL     OW 9835   2.879   3.763   0.753
 3172SOL    HW1 9836   2.807   3.768   0.684
 3172SOL    HW2 9837   2.855   3.694   0.822
 3173SOL     OW 9838   3.291   4.897   0.867
 3173SOL    HW1 9839   3.236   4.813   0.860
 3173SOL    HW2 9840   3.317   4.926   0.775
 3174SOL     OW 9841   3.328   4.314   0.992
 3174SOL    HW1 9842   3.298   4.219   0.999
 3174SOL    HW2 9843   3.401   4.330   1.058
 3175SOL     OW 9844   3.719   4.557   0.377
 3175SOL    HW1 9845   3.761   4.493   0.441
 3175SOL    HW2 9846   3.681   4.506   0.299
 3176SOL     OW 9847   2.350   5.109   0.174
 3176SOL    HW1 9848   2.263   5.094   0.221
 3176SOL    HW2 9849   2.333   5.135   0.079
 3177SOL     OW 9850   3.526   5.004   0.657
 3177SOL    HW1 9851   3.625   5.012   0.671
 3177SOL    HW2 9852   3.481   5.088   0.688
 3178SOL     OW 9853   3.252   4.299   0.078
 3178SOL    HW1 9854   3.198   4.278   0.159
 3178SOL    HW2 9855   3.343   4.258   0.087
 3179SOL     OW 9856   2.389   3.980   0.328
 3179SOL    HW1 9857   2.416   3.921   0.253
 3179SOL    HW2 9858   2.389   4.075   0.297
 3180SOL     OW 9859   3.616   4.947   1.588
 3180SOL    HW1 9860   3.707   4.908   1.575
 3180SOL    HW2 9861   3.624   5.043   1.612
 3181SOL     OW 9862   2.926   5.071   1.340
 3181SOL    HW1 9863   2.846   5.048   1.395
 3181SOL    HW2 9864   3.009   5.045   1.389
 3182SOL     OW 9865   3.454   5.353   1.625
 3182SOL    HW1 9866   3.481   5.387   1.535
 3182SOL    HW2 9867   3.533   5.315   1.671
 3183SOL     OW 9868   2.973   4.919   1.100
 3183SOL    HW1 9869   2.933   4.963   1.181
 3183SOL    HW2 9870   2.932   4.956   1.017
 3184SOL     OW 9871   3.500   4.823   1.079
 3184SOL    HW1 9872   3.505   4.904   1.138
 3184SOL    HW2 9873   3.414   4.825   1.028
 3185SOL     OW 9874   2.842   4.840   1.719
 3185SOL    HW1 9875   2.743   4.846   1.729
 3185SOL    HW2 9876   2.865   4.760   1.663
 3186SOL     OW 9877   2.567   4.774   0.368
 3186SOL    HW1 9878   2.553   4.781   0.467
 3186SOL    HW2 9879   2.651   4.723   0.350
 3187SOL     OW 9880   2.272   4.537   1.251
 3187SOL    HW1 9881   2.358   4.549   1.301
 3187SOL    HW2 9882   2.230   4.450   1.278
 3188SOL     OW 9883   3.136   4.110   1.262
 3188SOL    HW1 9884   3.157   4.184   1.326
 3188SOL    HW2 9885   3.047   4.127   1.219
 3189SOL     OW 9886   1.926   5.288   1.331
 3189SOL    HW1 9887   1.880   5.370   1.297
 3189SOL    HW2 9888   2.024   5.307   1.340
 3190SOL     OW 9889   2.229   4.824   0.501
 3190SOL    HW1 9890   2.222   4.907   0.445
 3190SOL    HW2 9891   2.233   4.744   0.441
 3191SOL     OW 9892   2.428   4.261   0.865
 3191SOL    HW1 9893   2.440   4.327   0.791
 3191SOL    HW2 9894   2.474   4.295   0.948
 3192SOL     OW 9895   3.114   5.072   0.388
 3192SOL    HW1 9896   3.164   5.149   0.428
 3192SOL    HW2 9897   3.019   5.074   0.420
 3193SOL     OW 9898   3.134   5.169   1.142
 3193SOL    HW1 9899   3.181   5.182   1.229
 3193SOL    HW2 9900   3.068   5.095   1.151
 3194SOL     OW 9901   3.444   4.363   0.472
 3194SOL    HW1 9902   3.413   4.424   0.545
 3194SOL    HW2 9903   3.494   4.415   0.403
 3195SOL     OW 9904   2.216   5.234   1.329
 3195SOL    HW1 9905   2.195   5.190   1.242
 3195SOL    HW2 9906   2.313   5.260   1.332
 3196SOL     OW 9907   2.264   4.475   1.598
 3196SOL    HW1 9908   2.332   4.530   1.551
 3196SOL    HW2 9909   2.304   4.387   1.625
 3197SOL     OW 9910   3.449   4.503   1.670
 3197SOL    HW1 9911   3.357   4.541   1.665
 3197SOL    HW2 9912   3.509   4.550   1.605
 3198SOL     OW 9913   2.366   3.774   1.740
 3198SOL    HW1 9914   2.324   3.717   1.670
 3198SOL    HW2 9915   2.300   3.843   1.772
 3199SOL     OW 9916   2.435   4.594   1.029
 3199SOL    HW1 9917   2.479   4.683   1.020
 3199SOL    HW2 9918   2.372   4.594   1.106
 3200SOL     OW 9919   3.222   4.586   1.045
 3200SOL    HW1 9920   3.147   4.586   0.979
 3200SOL    HW2 9921   3.259   4.494   1.054
 3201SOL     OW 9922   3.071   4.249   0.275
 3201SOL    HW1 9923   3.084   4.165   0.329
 3201SOL    HW2 9924   3.042   4.323   0.335
 3202SOL     OW 9925   2.169   3.937   1.231
 3202SOL    HW1 9926   2.146   3.974   1.321
 3202SOL    HW2 9927   2.139   3.842   1.225
 3203SOL     OW 9928   1.899   5.034   1.282
 3203SOL    HW1 9929   1.952   4.985   1.350
 3203SOL    HW2 9930   1.921   5.132   1.287
 3204SOL     OW 9931   2.594   4.358   1.064
 3204SOL    HW1 9932   2.653   4.332   0.988
 3204SOL    HW2 9933   2.566   4.454   1.053
 3205SOL     OW 9934   3.590   4.659   1.854
 3205SOL    HW1 9935   3.544   4.652   1.765
 3205SOL    HW2 9936   3.528   4.703   1.920
 3206SOL     OW 9937   2.169   3.787   0.618
 3206SOL    HW1 9938   2.158   3.881   0.651
 3206SOL    HW2 9939   2.164   3.724   0.695
 3207SOL     OW 9940   3.484   4.091   0.374
 3207SOL    HW1 9941   3.486   4.015   0.438
 3207SOL    HW2 9942   3.436   4.168   0.414
 3208SOL     OW 9943   2.885   4.490   0.966
 3208SOL    HW1 9944   2.900   4.511   1.062
 3208SOL    HW2 9945   2.855   4.395   0.957
 3209SOL     OW 9946   2.842   5.297   1.700
 3209SOL    HW1 9947   2.822   5.341   1.612
 3209SOL    HW2 9948   2.881   5.206   1.684
 3210SOL     OW 9949   3.721   5.242   1.605
 3210SOL    HW1 9950   3.735   5.269   1.510
 3210SOL    HW2 9951   3.804   5.264   1.658
 3211SOL     OW 9952   2.212   4.622   1.804
 3211SOL    HW1 9953   2.288   4.666   1.852
 3211SOL    HW2 9954   2.247   4.575   1.722
 3212SOL     OW 9955   3.402   3.998   0.125
 3212SOL    HW1 9956   3.341   3.923   0.148
 3212SOL    HW2 9957   3.424   4.050   0.208
 3213SOL     OW 9958   3.165   4.562   0.042
 3213SOL    HW1 9959   3.199   4.469   0.057
 3213SOL    HW2 9960   3.183   4.589  -0.053
 3214SOL     OW 9961   2.930   5.057   0.849
 3214SOL    HW1 9962   2.937   4.973   0.794
 3214SOL    HW2 9963   2.992   5.126   0.813
 3215SOL     OW 9964   2.181   4.534   0.949
 3215SOL    HW1 9965   2.274   4.570   0.954
 3215SOL    HW2 9966   2.175   4.449   1.001
 3216SOL     OW 9967   2.201   4.233   1.006
 3216SOL    HW1 9968   2.149   4.150   0.989
 3216SOL    HW2 9969   2.278   4.238   0.942
 3217SOL     OW 9970   3.000   4.104   1.678
 3217SOL    HW1 9971   2.955   4.167   1.742
 3217SOL    HW2 9972   3.093   4.135   1.661
 3218SOL     OW 9973   3.022   3.931   1.477
 3218SOL    HW1 9974   3.022   3.995   1.554
 3218SOL    HW2 9975   3.050   3.979   1.394
 3219SOL     OW 9976   1.870   5.050   0.200
 3219SOL    HW1 9977   1.777   5.071   0.169
 3219SOL    HW2 9978   1.880   4.951   0.213
 3220SOL     OW 9979   1.950   5.525   0.927
 3220SOL    HW1 9980   1.908   5.439   0.900
 3220SOL    HW2 9981   2.044   5.528   0.893
 3221SOL     OW 9982   2.366   5.292   0.910
 3221SOL    HW1 9983   2.432   5.366   0.919
 3221SOL    HW2 9984   2.410   5.213   0.868
 3222SOL     OW 9985   2.864   4.520   1.238
 3222SOL    HW1 9986   2.905   4.488   1.324
 3222SOL    HW2 9987   2.768   4.493   1.235
 3223SOL     OW 9988   1.902   4.268   1.114
 3223SOL    HW1 9989   1.987   4.235   1.073
 3223SOL    HW2 9990   1.915   4.283   1.212
 3224SOL     OW 9991   2.051   4.244   1.722
 3224SOL    HW1 9992   2.110   4.204   1.652
 3224SOL    HW2 9993   1.993   4.315   1.681
 3225SOL     OW 9994   3.231   4.674   1.660
 3225SOL    HW1 9995   3.270   4.763   1.680
 3225SOL    HW2 9996   3.241   4.654   1.563
 3226SOL     OW 9997   2.677   4.296   0.325
 3226SOL    HW1 9998   2.684   4.207   0.279
 3226SOL    HW2 9999   2.583   4.330   0.317
 3227SOL     OW10000   3.519   4.328   1.206
 3227SOL    HW110001   3.481   4.259   1.268
 3227SOL    HW210002   3.601   4.292   1.162
 3228SOL     OW10003   2.114   5.288   1.744
 3228SOL    HW110004   2.084   5.345   1.820
 3228SOL    HW210005   2.107   5.191   1.770
 3229SOL     OW10006   2.533   4.188   1.269
 3229SOL    HW110007   2.499   4.099   1.239
 3229SOL    HW210008   2.559   4.242   1.189
 3230SOL     OW10009   2.792   5.402   1.465
 3230SOL    HW110010   2.768   5.384   1.370
 3230SOL    HW210011   2.822   5.496   1.475
 3231SOL     OW10012   2.335   4.224   0.191
 3231SOL    HW110013   2.396   4.304   0.195
 3231SOL    HW210014   2.240   4.255   0.198
 3232SOL     OW10015   2.021   4.861   1.466
 3232SOL    HW110016   2.043   4.800   1.542
 3232SOL    HW210017   2.031   4.812   1.380
 3233SOL     OW10018   3.209   4.783   1.234
 3233SOL    HW110019   3.233   4.720   1.160
 3233SOL    HW210020   3.119   4.823   1.216
 3234SOL     OW10021   3.164   4.579   0.309
 3234SOL    HW110022   3.078   4.548   0.351
 3234SOL    HW210023   3.160   4.565   0.210
 3235SOL     OW10024   3.621   5.471   1.154
 3235SOL    HW110025   3.682   5.501   1.081
 3235SOL    HW210026   3.583   5.382   1.132
 3236SOL     OW10027   3.114   5.455   1.128
 3236SOL    HW110028   3.198   5.460   1.074
 3236SOL    HW210029   3.091   5.359   1.146
 3237SOL     OW10030   1.945   4.982   1.022
 3237SOL    HW110031   1.940   4.981   1.122
 3237SOL    HW210032   1.862   4.941   0.984
 3238SOL     OW10033   2.550   5.386   1.716
 3238SOL    HW110034   2.494   5.467   1.725
 3238SOL    HW210035   2.602   5.390   1.630
 3239SOL     OW10036   2.765   3.810   0.133
 3239SOL    HW110037   2.816   3.811   0.047
 3239SOL    HW210038   2.821   3.768   0.204
 3240SOL     OW10039   3.588   3.859   0.523
 3240SOL    HW110040   3.661   3.842   0.456
 3240SOL    HW210041   3.557   3.772   0.561
 3241SOL     OW10042   3.250   5.297   0.477
 3241SOL    HW110043   3.317   5.309   0.403
 3241SOL    HW210044   3.210   5.386   0.500
 3242SOL     OW10045   1.992   5.518   1.851
 3242SOL    HW110046   1.951   5.444   1.904
 3242SOL    HW210047   2.056   5.569   1.909
 3243SOL     OW10048   3.142   4.651   0.672
 3243SOL    HW110049   3.202   4.570   0.674
 3243SOL    HW210050   3.182   4.720   0.612
 3244SOL     OW10051   2.692   4.997   1.422
 3244SOL    HW110052   2.687   5.030   1.517
 3244SOL    HW210053   2.606   5.016   1.376
 3245SOL     OW10054   2.534   5.340   0.154
 3245SOL    HW110055   2.543   5.350   0.055
 3245SOL    HW210056   2.494   5.251   0.175
 3246SOL     OW10057   3.512   5.444   1.394
 3246SOL    HW110058   3.565   5.454   1.310
 3246SOL    HW210059   3.485   5.534   1.428
 3247SOL     OW10060   3.703   3.899   0.963
 3247SOL    HW110061   3.742   3.814   0.927
 3247SOL    HW210062   3.605   3.901   0.944
 3248SOL     OW10063   2.125   4.050   0.720
 3248SOL    HW110064   2.046   4.101   0.686
 3248SOL    HW210065   2.116   4.035   0.818
 3249SOL     OW10066   3.056   5.336   0.031
 3249SOL    HW110067   3.062   5.243   0.068
 3249SOL    HW210068   2.997   5.336  -0.049
 3250SOL     OW10069   2.684   4.726   1.372
 3250SOL    HW110070   2.724   4.725   1.280
 3250SOL    HW210071   2.694   4.818   1.412
 3251SOL     OW10072   2.778   4.634   0.291
 3251SOL    HW110073   2.841   4.672   0.223
 3251SOL    HW210074   2.818   4.551   0.330
 3252SOL     OW10075   3.366   5.331   0.044
 3252SOL    HW110076   3.274   5.368   0.051
 3252SOL    HW210077   3.404   5.351  -0.046
 3253SOL     OW10078   2.234   5.012   1.490
 3253SOL    HW110079   2.221   5.105   1.456
 3253SOL    HW210080   2.150   4.960   1.477
 3254SOL     OW10081   3.476   5.016   1.289
 3254SOL    HW110082   3.536   5.019   1.369
 3254SOL    HW210083   3.401   5.080   1.302
 3255SOL     OW10084   2.901   4.822   0.696
 3255SOL    HW110085   2.831   4.775   0.750
 3255SOL    HW210086   2.960   4.754   0.653
 3256SOL     OW10087   2.876   3.960   0.971
 3256SOL    HW110088   2.868   3.924   0.878
 3256SOL    HW210089   2.874   3.884   1.036
 3257SOL     OW10090   2.452   5.211   0.491
 3257SOL    HW110091   2.494   5.153   0.421
 3257SOL    HW210092   2.408   5.290   0.447
 3258SOL     OW10093   3.571   4.109   1.381
 3258SOL    HW110094   3.644   4.178   1.385
 3258SOL    HW210095   3.599   4.034   1.322
 3259SOL     OW10096   2.117   5.072   0.290
 3259SOL    HW110097   2.021   5.073   0.263
 3259SOL    HW210098   2.129   5.125   0.374
 3260SOL     OW10099   1.967   4.737   1.726
 3260SOL    HW110100   1.890   4.704   1.780
 3260SOL    HW210101   2.052   4.707   1.768
 3261SOL     OW10102   2.534   3.927   1.489
 3261SOL    HW110103   2.624   3.911   1.449
 3261SOL    HW210104   2.542   3.932   1.588
 3262SOL     OW10105   1.937   4.069   0.033
 3262SOL    HW110106   1.845   4.041   0.004
 3262SOL    HW210107   1.968   4.146  -0.023
 3263SOL     OW10108   3.302   4.580   1.398
 3263SOL    HW110109   3.245   4.632   1.335
 3263SOL    HW210110   3.398   4.592   1.374
 3264SOL     OW10111   1.934   3.890   0.318
 3264SOL    HW110112   1.917   3.973   0.264
 3264SOL    HW210113   2.024   3.853   0.296
 3265SOL     OW10114   3.045   5.059   0.119
 3265SOL    HW110115   2.946   5.048   0.121
 3265SOL    HW210116   3.079   5.074   0.212
 3266SOL     OW10117   2.475   4.566   1.431
 3266SOL    HW110118   2.531   4.647   1.414
 3266SOL    HW210119   2.534   4.486   1.434
 3267SOL     OW10120   3.355   5.491   0.959
 3267SOL    HW110121   3.388   5.555   0.890
 3267SOL    HW210122   3.421   5.485   1.034
 3268SOL     OW10123   2.578   4.289   1.708
 3268SOL    HW110124   2.597   4.354   1.782
 3268SOL    HW210125   2.638   4.209   1.717
 3269SOL     OW10126   3.312   4.944   1.633
 3269SOL    HW110127   3.303   4.934   1.732
 3269SOL    HW210128   3.408   4.937   1.607
 3270SOL     OW10129   2.252   5.465   1.560
 3270SOL    HW110130   2.161   5.506   1.558
 3270SOL    HW210131   2.245   5.371   1.592
 3271SOL     OW10132   3.536   4.607   1.254
 3271SOL    HW110133   3.509   4.518   1.217
 3271SOL    HW210134   3.537   4.675   1.181
 3272SOL     OW10135   3.087   4.049   0.449
 3272SOL    HW110136   3.152   3.975   0.438
 3272SOL    HW210137   3.107   4.099   0.533
 3273SOL     OW10138   2.456   4.469   0.652
 3273SOL    HW110139   2.506   4.554   0.633
 3273SOL    HW210140   2.368   4.471   0.604
 3274SOL     OW10141   3.639   4.066   1.642
 3274SOL    HW110142   3.622   4.097   1.548
 3274SOL    HW210143   3.555   4.029   1.680
 3275SOL     OW10144   3.592   4.658   1.517
 3275SOL    HW110145   3.630   4.749   1.532
 3275SOL    HW210146   3.584   4.641   1.418
 3276SOL     OW10147   2.721   5.098   0.016
 3276SOL    HW110148   2.675   5.113   0.104
 3276SOL    HW210149   2.765   5.183  -0.014
 3277SOL     OW10150   2.523   5.514   0.953
 3277SOL    HW110151   2.477   5.602   0.940
 3277SOL    HW210152   2.622   5.526   0.946
 3278SOL     OW10153   2.721   4.680   0.861
 3278SOL    HW110154   2.775   4.611   0.909
 3278SOL    HW210155   2.689   4.749   0.927
 3279SOL     OW10156   2.945   4.708   0.087
 3279SOL    HW110157   2.922   4.761   0.005
 3279SOL    HW210158   3.026   4.652   0.068
 3280SOL     OW10159   3.723   5.293   0.851
 3280SOL    HW110160   3.652   5.281   0.781
 3280SOL    HW210161   3.724   5.214   0.911
 3281SOL     OW10162   2.083   5.038   1.844
 3281SOL    HW110163   2.018   4.965   1.823
 3281SOL    HW210164   2.087   5.052   1.942
 3282SOL     OW10165   1.941   4.964   0.653
 3282SOL    HW110166   1.940   4.917   0.741
 3282SOL    HW210167   2.023   4.936   0.602
 3283SOL     OW10168   2.534   5.115   1.624
 3283SOL    HW110169   2.456   5.065   1.662
 3283SOL    HW210170   2.531   5.210   1.655
 3284SOL     OW10171   3.686   3.916   1.227
 3284SOL    HW110172   3.682   3.826   1.271
 3284SOL    HW210173   3.689   3.905   1.128
 3285SOL     OW10174   2.290   4.148   0.520
 3285SOL    HW110175   2.320   4.076   0.458
 3285SOL    HW210176   2.251   4.108   0.603
 3286SOL     OW10177   3.567   5.211   1.104
 3286SOL    HW110178   3.474   5.186   1.077
 3286SOL    HW210179   3.593   5.161   1.186
 3287SOL     OW10180   2.179   4.271   1.280
 3287SOL    HW110181   2.217   4.212   1.352
 3287SOL    HW210182   2.219   4.245   1.192
 3288SOL     OW10183   2.674   5.310   0.687
 3288SOL    HW110184   2.706   5.320   0.593
 3288SOL    HW210185   2.595   5.248   0.689
 3289SOL     OW10186   3.286   3.938   1.112
 3289SOL    HW110187   3.338   3.873   1.167
 3289SOL    HW210188   3.237   4.001   1.173
 3290SOL     OW10189   2.863   3.758   1.154
 3290SOL    HW110190   2.800   3.686   1.123
 3290SOL    HW210191   2.956   3.722   1.154
 3291SOL     OW10192   2.632   5.054   0.301
 3291SOL    HW110193   2.586   4.967   0.318
 3291SOL    HW210194   2.723   5.051   0.342
 3292SOL     OW10195   2.480   5.291   1.284
 3292SOL    HW110196   2.475   5.373   1.341
 3292SOL    HW210197   2.569   5.288   1.239
 3293SOL     OW10198   3.214   3.776   0.168
 3293SOL    HW110199   3.249   3.735   0.084
 3293SOL    HW210200   3.124   3.738   0.188
 3294SOL     OW10201   3.162   4.177   0.691
 3294SOL    HW110202   3.103   4.257   0.695
 3294SOL    HW210203   3.177   4.142   0.784
 3295SOL     OW10204   3.455   3.945   0.882
 3295SOL    HW110205   3.371   3.944   0.936
 3295SOL    HW210206   3.457   4.028   0.826
 3296SOL     OW10207   1.901   4.801   0.300
 3296SOL    HW110208   2.000   4.790   0.291
 3296SOL    HW210209   1.861   4.715   0.332
 3297SOL     OW10210   2.737   5.370   0.337
 3297SOL    HW110211   2.660   5.335   0.283
 3297SOL    HW210212   2.705   5.441   0.399
 3298SOL     OW10213   2.092   4.352   1.975
 3298SOL    HW110214   1.999   4.350   2.012
 3298SOL    HW210215   2.093   4.313   1.883
 3299SOL     OW10216   2.087   3.999   2.858
 3299SOL    HW110217   2.122   3.982   2.950
 3299SOL    HW210218   1.999   3.954   2.846
 3300SOL     OW10219   1.881   4.092   2.509
 3300SOL    HW110220   1.799   4.135   2.548
 3300SOL    HW210221   1.853   4.019   2.446
 3301SOL     OW10222   2.431   4.999   3.027
 3301SOL    HW110223   2.338   4.992   2.990
 3301SOL    HW210224   2.442   5.088   3.071
 3302SOL     OW10225   3.417   5.235   2.565
 3302SOL    HW110226   3.360   5.219   2.646
 3302SOL    HW210227   3.358   5.245   2.485
 3303SOL     OW10228   2.997   4.427   2.579
 3303SOL    HW110229   3.054   4.505   2.554
 3303SOL    HW210230   2.937   4.453   2.655
 3304SOL     OW10231   3.617   4.331   2.093
 3304SOL    HW110232   3.605   4.318   1.994
 3304SOL    HW210233   3.587   4.250   2.142
 3305SOL     OW10234   2.630   4.868   2.885
 3305SOL    HW110235   2.552   4.885   2.945
 3305SOL    HW210236   2.664   4.955   2.849
 3306SOL     OW10237   2.712   4.522   3.685
 3306SOL    HW110238   2.708   4.598   3.750
 3306SOL    HW210239   2.734   4.558   3.594
 3307SOL     OW10240   2.547   4.736   2.527
 3307SOL    HW110241   2.616   4.720   2.597
 3307SOL    HW210242   2.474   4.793   2.565
 3308SOL     OW10243   2.548   4.885   3.665
 3308SOL    HW110244   2.608   4.964   3.679
 3308SOL    HW210245   2.462   4.916   3.624
 3309SOL     OW10246   2.197   5.159   2.923
 3309SOL    HW110247   2.119   5.128   2.870
 3309SOL    HW210248   2.255   5.217   2.866
 3310SOL     OW10249   3.322   5.229   3.201
 3310SOL    HW110250   3.346   5.323   3.227
 3310SOL    HW210251   3.306   5.175   3.283
 3311SOL     OW10252   2.300   4.116   3.361
 3311SOL    HW110253   2.382   4.060   3.370
 3311SOL    HW210254   2.219   4.058   3.365
 3312SOL     OW10255   3.465   4.171   2.599
 3312SOL    HW110256   3.391   4.217   2.549
 3312SOL    HW210257   3.516   4.239   2.652
 3313SOL     OW10258   2.093   5.437   2.345
 3313SOL    HW110259   2.127   5.514   2.399
 3313SOL    HW210260   2.137   5.437   2.255
 3314SOL     OW10261   2.989   5.065   3.552
 3314SOL    HW110262   3.036   5.065   3.640
 3314SOL    HW210263   2.941   4.978   3.541
 3315SOL     OW10264   2.092   5.158   2.400
 3315SOL    HW110265   2.066   5.254   2.400
 3315SOL    HW210266   2.021   5.104   2.445
 3316SOL     OW10267   2.102   4.815   2.748
 3316SOL    HW110268   2.116   4.731   2.800
 3316SOL    HW210269   2.047   4.879   2.803
 3317SOL     OW10270   2.482   5.510   3.301
 3317SOL    HW110271   2.390   5.493   3.336
 3317SOL    HW210272   2.510   5.602   3.327
 3318SOL     OW10273   2.468   4.688   1.985
 3318SOL    HW110274   2.475   4.772   1.931
 3318SOL    HW210275   2.514   4.701   2.073
 3319SOL     OW10276   3.456   3.838   3.342
 3319SOL    HW110277   3.438   3.905   3.270
 3319SOL    HW210278   3.453   3.884   3.431
 3320SOL     OW10279   1.984   4.367   2.425
 3320SOL    HW110280   1.939   4.279   2.442
 3320SOL    HW210281   1.983   4.421   2.509
 3321SOL     OW10282   3.704   5.491   2.221
 3321SOL    HW110283   3.758   5.462   2.301
 3321SOL    HW210284   3.734   5.581   2.192
 3322SOL     OW10285   1.889   5.320   1.979
 3322SOL    HW110286   1.870   5.224   2.000
 3322SOL    HW210287   1.856   5.378   2.054
 3323SOL     OW10288   3.551   4.646   2.474
 3323SOL    HW110289   3.646   4.617   2.482
 3323SOL    HW210290   3.543   4.711   2.399
 3324SOL     OW10291   3.503   4.832   2.294
 3324SOL    HW110292   3.589   4.834   2.242
 3324SOL    HW210293   3.517   4.879   2.382
 3325SOL     OW10294   1.975   4.461   3.459
 3325SOL    HW110295   2.063   4.448   3.504
 3325SOL    HW210296   1.962   4.558   3.437
 3326SOL     OW10297   2.475   5.089   2.588
 3326SOL    HW110298   2.426   5.002   2.597
 3326SOL    HW210299   2.452   5.132   2.501
 3327SOL     OW10300   3.155   4.952   3.285
 3327SOL    HW110301   3.192   4.879   3.227
 3327SOL    HW210302   3.207   4.957   3.370
 3328SOL     OW10303   2.671   3.728   2.364
 3328SOL    HW110304   2.711   3.819   2.355
 3328SOL    HW210305   2.571   3.736   2.370
 3329SOL     OW10306   2.059   4.700   3.126
 3329SOL    HW110307   2.148   4.655   3.112
 3329SOL    HW210308   1.986   4.635   3.107
 3330SOL     OW10309   3.387   4.723   2.052
 3330SOL    HW110310   3.324   4.647   2.065
 3330SOL    HW210311   3.435   4.741   2.138
 3331SOL     OW10312   3.049   5.516   3.478
 3331SOL    HW110313   3.073   5.576   3.402
 3331SOL    HW210314   3.056   5.421   3.448
 3332SOL     OW10315   2.179   3.975   3.663
 3332SOL    HW110316   2.250   4.046   3.669
 3332SOL    HW210317   2.091   4.014   3.691
 3333SOL     OW10318   3.328   5.141   2.815
 3333SOL    HW110319   3.269   5.147   2.895
 3333SOL    HW210320   3.313   5.053   2.769
 3334SOL     OW10321   3.529   5.438   2.434
 3334SOL    HW110322   3.488   5.415   2.346
 3334SOL    HW210323   3.511   5.364   2.499
 3335SOL     OW10324   2.460   4.453   2.132
 3335SOL    HW110325   2.484   4.522   2.064
 3335SOL    HW210326   2.382   4.486   2.186
 3336SOL     OW10327   3.143   4.069   2.806
 3336SOL    HW110328   3.057   4.019   2.793
 3336SOL    HW210329   3.205   4.015   2.862
 3337SOL     OW10330   3.438   5.386   2.169
 3337SOL    HW110331   3.527   5.432   2.172
 3337SOL    HW210332   3.417   5.362   2.074
 3338SOL     OW10333   2.669   4.329   3.327
 3338SOL    HW110334   2.622   4.326   3.416
 3338SOL    HW210335   2.618   4.274   3.261
 3339SOL     OW10336   3.256   4.193   3.536
 3339SOL    HW110337   3.236   4.236   3.624
 3339SOL    HW210338   3.334   4.131   3.545
 3340SOL     OW10339   2.835   4.614   3.434
 3340SOL    HW110340   2.881   4.530   3.405
 3340SOL    HW210341   2.779   4.648   3.359
 3341SOL     OW10342   2.853   4.134   3.104
 3341SOL    HW110343   2.776   4.168   3.158
 3341SOL    HW210344   2.819   4.083   3.025
 3342SOL     OW10345   2.903   4.425   2.291
 3342SOL    HW110346   2.929   4.421   2.387
 3342SOL    HW210347   2.818   4.374   2.277
 3343SOL     OW10348   1.938   4.535   2.651
 3343SOL    HW110349   2.037   4.523   2.660
 3343SOL    HW210350   1.914   4.630   2.672
 3344SOL     OW10351   1.992   5.545   3.433
 3344SOL    HW110352   1.982   5.530   3.532
 3344SOL    HW210353   1.906   5.581   3.397
 3345SOL     OW10354   2.727   4.072   2.057
 3345SOL    HW110355   2.786   4.135   2.008
 3345SOL    HW210356   2.746   3.978   2.028
 3346SOL     OW10357   3.581   4.309   3.693
 3346SOL    HW110358   3.555   4.398   3.657
 3346SOL    HW210359   3.579   4.241   3.620
 3347SOL     OW10360   3.224   4.868   2.407
 3347SOL    HW110361   3.307   4.839   2.359
 3347SOL    HW210362   3.175   4.935   2.351
 3348SOL     OW10363   2.412   3.920   2.747
 3348SOL    HW110364   2.407   3.915   2.847
 3348SOL    HW210365   2.414   4.016   2.718
 3349SOL     OW10366   2.870   5.180   2.339
 3349SOL    HW110367   2.824   5.252   2.287
 3349SOL    HW210368   2.866   5.200   2.437
 3350SOL     OW10369   2.213   5.525   2.715
 3350SOL    HW110370   2.263   5.439   2.721
 3350SOL    HW210371   2.278   5.602   2.712
 3351SOL     OW10372   3.657   4.790   2.735
 3351SOL    HW110373   3.595   4.775   2.659
 3351SOL    HW210374   3.605   4.801   2.820
 3352SOL     OW10375   3.089   5.274   3.368
 3352SOL    HW110376   3.095   5.197   3.432
 3352SOL    HW210377   3.037   5.248   3.288
 3353SOL     OW10378   2.183   4.667   2.104
 3353SOL    HW110379   2.265   4.706   2.062
 3353SOL    HW210380   2.156   4.585   2.055
 3354SOL     OW10381   3.320   4.459   2.590
 3354SOL    HW110382   3.315   4.394   2.665
 3354SOL    HW210383   3.400   4.518   2.603
 3355SOL     OW10384   2.323   4.990   3.589
 3355SOL    HW110385   2.273   4.991   3.503
 3355SOL    HW210386   2.260   4.972   3.665
 3356SOL     OW10387   2.973   5.500   2.099
 3356SOL    HW110388   2.913   5.438   2.149
 3356SOL    HW210389   3.004   5.456   2.014
 3357SOL     OW10390   2.064   4.009   3.360
 3357SOL    HW110391   1.984   4.069   3.347
 3357SOL    HW210392   2.054   3.960   3.446
 3358SOL     OW10393   3.494   5.101   1.943
 3358SOL    HW110394   3.462   5.195   1.933
 3358SOL    HW210395   3.418   5.038   1.931
 3359SOL     OW10396   2.326   5.467   2.185
 3359SOL    HW110397   2.359   5.506   2.271
 3359SOL    HW210398   2.402   5.460   2.120
 3360SOL     OW10399   3.262   3.831   2.288
 3360SOL    HW110400   3.238   3.794   2.198
 3360SOL    HW210401   3.361   3.847   2.292
 3361SOL     OW10402   2.111   5.509   3.103
 3361SOL    HW110403   2.168   5.444   3.153
 3361SOL    HW210404   2.095   5.476   3.010
 3362SOL     OW10405   2.802   5.422   2.766
 3362SOL    HW110406   2.882   5.365   2.787
 3362SOL    HW210407   2.753   5.382   2.689
 3363SOL     OW10408   2.244   4.424   2.342
 3363SOL    HW110409   2.289   4.334   2.339
 3363SOL    HW210410   2.150   4.413   2.375
 3364SOL     OW10411   3.409   3.946   3.591
 3364SOL    HW110412   3.404   3.983   3.683
 3364SOL    HW210413   3.337   3.877   3.579
 3365SOL     OW10414   2.476   3.846   1.979
 3365SOL    HW110415   2.574   3.824   1.986
 3365SOL    HW210416   2.445   3.829   1.886
 3366SOL     OW10417   2.643   3.988   3.611
 3366SOL    HW110418   2.710   3.927   3.654
 3366SOL    HW210419   2.570   4.007   3.676
 3367SOL     OW10420   2.750   5.238   3.057
 3367SOL    HW110421   2.727   5.213   2.963
 3367SOL    HW210422   2.811   5.169   3.096
 3368SOL     OW10423   3.213   4.314   3.295
 3368SOL    HW110424   3.241   4.271   3.380
 3368SOL    HW210425   3.238   4.410   3.296
 3369SOL     OW10426   2.665   5.126   2.786
 3369SOL    HW110427   2.755   5.140   2.744
 3369SOL    HW210428   2.594   5.128   2.715
 3370SOL     OW10429   2.784   4.227   2.761
 3370SOL    HW110430   2.759   4.218   2.665
 3370SOL    HW210431   2.832   4.145   2.792
 3371SOL     OW10432   2.401   3.788   2.374
 3371SOL    HW110433   2.320   3.789   2.432
 3371SOL    HW210434   2.404   3.871   2.319
 3372SOL     OW10435   3.296   4.912   1.903
 3372SOL    HW110436   3.328   4.836   1.960
 3372SOL    HW210437   3.204   4.939   1.933
 3373SOL     OW10438   2.159   3.759   2.033
 3373SOL    HW110439   2.208   3.843   2.012
 3373SOL    HW210440   2.221   3.694   2.078
 3374SOL     OW10441   2.797   3.960   2.342
 3374SOL    HW110442   2.749   4.001   2.264
 3374SOL    HW210443   2.896   3.958   2.323
 3375SOL     OW10444   2.938   4.407   3.326
 3375SOL    HW110445   2.858   4.346   3.329
 3375SOL    HW210446   3.019   4.354   3.302
 3376SOL     OW10447   3.089   5.294   2.655
 3376SOL    HW110448   3.110   5.368   2.590
 3376SOL    HW210449   3.157   5.294   2.728
 3377SOL     OW10450   2.321   4.876   2.603
 3377SOL    HW110451   2.250   4.849   2.668
 3377SOL    HW210452   2.295   4.848   2.510
 3378SOL     OW10453   3.133   5.521   2.453
 3378SOL    HW110454   3.177   5.585   2.389
 3378SOL    HW210455   3.083   5.573   2.523
 3379SOL     OW10456   2.894   4.273   1.878
 3379SOL    HW110457   2.853   4.355   1.839
 3379SOL    HW210458   2.958   4.299   1.951
 3380SOL     OW10459   1.940   4.280   3.248
 3380SOL    HW110460   2.032   4.279   3.207
 3380SOL    HW210461   1.934   4.354   3.315
 3381SOL     OW10462   2.423   3.946   3.009
 3381SOL    HW110463   2.461   3.862   3.046
 3381SOL    HW210464   2.335   3.965   3.053
 3382SOL     OW10465   2.728   4.178   2.504
 3382SOL    HW110466   2.696   4.250   2.442
 3382SOL    HW210467   2.752   4.097   2.451
 3383SOL     OW10468   2.879   3.763   2.615
 3383SOL    HW110469   2.807   3.768   2.546
 3383SOL    HW210470   2.855   3.694   2.684
 3384SOL     OW10471   3.291   4.897   2.729
 3384SOL    HW110472   3.236   4.813   2.722
 3384SOL    HW210473   3.317   4.926   2.637
 3385SOL     OW10474   3.328   4.314   2.854
 3385SOL    HW110475   3.298   4.219   2.861
 3385SOL    HW210476   3.401   4.330   2.920
 3386SOL     OW10477   3.719   4.557   2.239
 3386SOL    HW110478   3.761   4.493   2.303
 3386SOL    HW210479   3.681   4.506   2.161
 3387SOL     OW10480   2.350   5.109   2.036
 3387SOL    HW110481   2.263   5.094   2.083
 3387SOL    HW210482   2.333   5.135   1.941
 3388SOL     OW10483   3.526   5.004   2.519
 3388SOL    HW110484   3.625   5.012   2.533
 3388SOL    HW210485   3.481   5.088   2.550
 3389SOL     OW10486   3.252   4.299   1.940
 3389SOL    HW110487   3.198   4.278   2.021
 3389SOL    HW210488   3.343   4.258   1.949
 3390SOL     OW10489   2.389   3.980   2.190
 3390SOL    HW110490   2.416   3.921   2.115
 3390SOL    HW210491   2.389   4.075   2.159
 3391SOL     OW10492   3.616   4.947   3.450
 3391SOL    HW110493   3.707   4.908   3.437
 3391SOL    HW210494   3.624   5.043   3.474
 3392SOL     OW10495   2.926   5.071   3.202
 3392SOL    HW110496   2.846   5.048   3.257
 3392SOL    HW210497   3.009   5.045   3.251
 3393SOL     OW10498   3.454   5.353   3.487
 3393SOL    HW110499   3.481   5.387   3.397
 3393SOL    HW210500   3.533   5.315   3.533
 3394SOL     OW10501   2.973   4.919   2.962
 3394SOL    HW110502   2.933   4.963   3.043
 3394SOL    HW210503   2.932   4.956   2.879
 3395SOL     OW10504   3.500   4.823   2.941
 3395SOL    HW110505   3.505   4.904   3.000
 3395SOL    HW210506   3.414   4.825   2.890
 3396SOL     OW10507   2.777   3.813   3.264
 3396SOL    HW110508   2.802   3.793   3.169
 3396SOL    HW210509   2.849   3.869   3.306
 3397SOL     OW10510   2.842   4.840   3.581
 3397SOL    HW110511   2.743   4.846   3.591
 3397SOL    HW210512   2.865   4.760   3.525
 3398SOL     OW10513   2.567   4.774   2.230
 3398SOL    HW110514   2.553   4.781   2.329
 3398SOL    HW210515   2.651   4.723   2.212
 3399SOL     OW10516   2.272   4.537   3.113
 3399SOL    HW110517   2.358   4.549   3.163
 3399SOL    HW210518   2.230   4.450   3.140
 3400SOL     OW10519   3.136   4.110   3.124
 3400SOL    HW110520   3.157   4.184   3.188
 3400SOL    HW210521   3.047   4.127   3.081
 3401SOL     OW10522   1.926   5.288   3.193
 3401SOL    HW110523   1.880   5.370   3.159
 3401SOL    HW210524   2.024   5.307   3.202
 3402SOL     OW10525   2.229   4.824   2.363
 3402SOL    HW110526   2.222   4.907   2.307
 3402SOL    HW210527   2.233   4.744   2.303
 3403SOL     OW10528   2.428   4.261   2.727
 3403SOL    HW110529   2.440   4.327   2.653
 3403SOL    HW210530   2.474   4.295   2.810
 3404SOL     OW10531   3.114   5.072   2.250
 3404SOL    HW110532   3.164   5.149   2.290
 3404SOL    HW210533   3.019   5.074   2.282
 3405SOL     OW10534   3.134   5.169   3.004
 3405SOL    HW110535   3.181   5.182   3.091
 3405SOL    HW210536   3.068   5.095   3.013
 3406SOL     OW10537   3.444   4.363   2.334
 3406SOL    HW110538   3.413   4.424   2.407
 3406SOL    HW210539   3.494   4.415   2.265
 3407SOL     OW10540   2.216   5.234   3.191
 3407SOL    HW110541   2.195   5.190   3.104
 3407SOL    HW210542   2.313   5.260   3.194
 3408SOL     OW10543   2.264   4.475   3.460
 3408SOL    HW110544   2.332   4.530   3.413
 3408SOL    HW210545   2.304   4.387   3.487
 3409SOL     OW10546   3.449   4.503   3.532
 3409SOL    HW110547   3.357   4.541   3.527
 3409SOL    HW210548   3.509   4.550   3.467
 3410SOL     OW10549   2.875   3.829   3.632
 3410SOL    HW110550   2.881   3.914   3.580
 3410SOL    HW210551   2.907   3.753   3.575
 3411SOL     OW10552   2.366   3.774   3.602
 3411SOL    HW110553   2.324   3.717   3.532
 3411SOL    HW210554   2.300   3.843   3.634
 3412SOL     OW10555   2.435   4.594   2.891
 3412SOL    HW110556   2.479   4.683   2.882
 3412SOL    HW210557   2.372   4.594   2.968
 3413SOL     OW10558   3.222   4.586   2.907
 3413SOL    HW110559   3.147   4.586   2.841
 3413SOL    HW210560   3.259   4.494   2.916
 3414SOL     OW10561   3.071   4.249   2.137
 3414SOL    HW110562   3.084   4.165   2.191
 3414SOL    HW210563   3.042   4.323   2.197
 3415SOL     OW10564   2.169   3.937   3.093
 3415SOL    HW110565   2.146   3.974   3.183
 3415SOL    HW210566   2.139   3.842   3.087
 3416SOL     OW10567   1.899   5.034   3.144
 3416SOL    HW110568   1.952   4.985   3.212
 3416SOL    HW210569   1.921   5.132   3.149
 3417SOL     OW10570   2.594   4.358   2.926
 3417SOL    HW110571   2.653   4.332   2.850
 3417SOL    HW210572   2.566   4.454   2.915
 3418SOL     OW10573   3.590   4.659   3.716
 3418SOL    HW110574   3.544   4.652   3.627
 3418SOL    HW210575   3.528   4.703   3.782
 3419SOL     OW10576   2.169   3.787   2.480
 3419SOL    HW110577   2.158   3.881   2.513
 3419SOL    HW210578   2.164   3.724   2.557
 3420SOL     OW10579   3.484   4.091   2.236
 3420SOL    HW110580   3.486   4.015   2.300
 3420SOL    HW210581   3.436   4.168   2.276
 3421SOL     OW10582   2.885   4.490   2.828
 3421SOL    HW110583   2.900   4.511   2.924
 3421SOL    HW210584   2.855   4.395   2.819
 3422SOL     OW10585   2.842   5.297   3.562
 3422SOL    HW110586   2.822   5.341   3.474
 3422SOL    HW210587   2.881   5.206   3.546
 3423SOL     OW10588   3.721   5.242   3.467
 3423SOL    HW110589   3.735   5.269   3.372
 3423SOL    HW210590   3.804   5.264   3.520
 3424SOL     OW10591   2.212   4.622   3.666
 3424SOL    HW110592   2.288   4.666   3.714
 3424SOL    HW210593   2.247   4.575   3.584
 3425SOL     OW10594   3.402   3.998   1.987
 3425SOL    HW110595   3.341   3.923   2.010
 3425SOL    HW210596   3.424   4.050   2.070
 3426SOL     OW10597   3.165   4.562   1.904
 3426SOL    HW110598   3.199   4.469   1.919
 3426SOL    HW210599   3.183   4.589   1.809
 3427SOL     OW10600   2.930   5.057   2.711
 3427SOL    HW110601   2.937   4.973   2.656
 3427SOL    HW210602   2.992   5.126   2.675
 3428SOL     OW10603   2.181   4.534   2.811
 3428SOL    HW110604   2.274   4.570   2.816
 3428SOL    HW210605   2.175   4.449   2.863
 3429SOL     OW10606   2.201   4.233   2.868
 3429SOL    HW110607   2.149   4.150   2.851
 3429SOL    HW210608   2.278   4.238   2.804
 3430SOL     OW10609   3.000   4.104   3.540
 3430SOL    HW110610   2.955   4.167   3.604
 3430SOL    HW210611   3.093   4.135   3.523
 3431SOL     OW10612   3.022   3.931   3.339
 3431SOL    HW110613   3.022   3.995   3.416
 3431SOL    HW210614   3.050   3.979   3.256
 3432SOL     OW10615   1.870   5.050   2.062
 3432SOL    HW110616   1.777   5.071   2.031
 3432SOL    HW210617   1.880   4.951   2.075
 3433SOL     OW10618   1.950   5.525   2.789
 3433SOL    HW110619   1.908   5.439   2.762
 3433SOL    HW210620   2.044   5.528   2.755
 3434SOL     OW10621   2.366   5.292   2.772
 3434SOL    HW110622   2.432   5.366   2.781
 3434SOL    HW210623   2.410   5.213   2.730
 3435SOL     OW10624   2.864   4.520   3.100
 3435SOL    HW110625   2.905   4.488   3.186
 3435SOL    HW210626   2.768   4.493   3.097
 3436SOL     OW10627   1.902   4.268   2.976
 3436SOL    HW110628   1.987   4.235   2.935
 3436SOL    HW210629   1.915   4.283   3.074
 3437SOL     OW10630   2.051   4.244   3.584
 3437SOL    HW110631   2.110   4.204   3.514
 3437SOL    HW210632   1.993   4.315   3.543
 3438SOL     OW10633   3.231   4.674   3.522
 3438SOL    HW110634   3.270   4.763   3.542
 3438SOL    HW210635   3.241   4.654   3.425
 3439SOL     OW10636   2.677   4.296   2.187
 3439SOL    HW110637   2.684   4.207   2.141
 3439SOL    HW210638   2.583   4.330   2.179
 3440SOL     OW10639   3.519   4.328   3.068
 3440SOL    HW110640   3.481   4.259   3.130
 3440SOL    HW210641   3.601   4.292   3.024
 3441SOL     OW10642   2.114   5.288   3.606
 3441SOL    HW110643   2.084   5.345   3.682
 3441SOL    HW210644   2.107   5.191   3.632
 3442SOL     OW10645   2.533   4.188   3.131
 3442SOL    HW110646   2.499   4.099   3.101
 3442SOL    HW210647   2.559   4.242   3.051
 3443SOL     OW10648   2.792   5.402   3.327
 3443SOL    HW110649   2.768   5.384   3.232
 3443SOL    HW210650   2.822   5.496   3.337
 3444SOL     OW10651   2.335   4.224   2.053
 3444SOL    HW110652   2.396   4.304   2.057
 3444SOL    HW210653   2.240   4.255   2.060
 3445SOL     OW10654   2.021   4.861   3.328
 3445SOL    HW110655   2.043   4.800   3.404
 3445SOL    HW210656   2.031   4.812   3.242
 3446SOL     OW10657   3.209   4.783   3.096
 3446SOL    HW110658   3.233   4.720   3.022
 3446SOL    HW210659   3.119   4.823   3.078
 3447SOL     OW10660   3.164   4.579   2.171
 3447SOL    HW110661   3.078   4.548   2.213
 3447SOL    HW210662   3.160   4.565   2.072
 3448SOL     OW10663   3.621   5.471   3.016
 3448SOL    HW110664   3.682   5.501   2.943
 3448SOL    HW210665   3.583   5.382   2.994
 3449SOL     OW10666   3.114   5.455   2.990
 3449SOL    HW110667   3.198   5.460   2.936
 3449SOL    HW210668   3.091   5.359   3.008
 3450SOL     OW10669   1.945   4.982   2.884
 3450SOL    HW110670   1.940   4.981   2.984
 3450SOL    HW210671   1.862   4.941   2.846
 3451SOL     OW10672   2.550   5.386   3.578
 3451SOL    HW110673   2.494   5.467   3.587
 3451SOL    HW210674   2.602   5.390   3.492
 3452SOL     OW10675   3.588   3.859   2.385
 3452SOL    HW110676   3.661   3.842   2.318
 3452SOL    HW210677   3.557   3.772   2.423
 3453SOL     OW10678   3.250   5.297   2.339
 3453SOL    HW110679   3.317   5.309   2.265
 3453SOL    HW210680   3.210   5.386   2.362
 3454SOL     OW10681   1.992   5.518   3.713
 3454SOL    HW110682   1.951   5.444   3.766
 3454SOL    HW210683   2.056   5.569   3.771
 3455SOL     OW10684   3.142   4.651   2.534
 3455SOL    HW110685   3.202   4.570   2.536
 3455SOL    HW210686   3.182   4.720   2.474
 3456SOL     OW10687   2.692   4.997   3.284
 3456SOL    HW110688   2.687   5.030   3.379
 3456SOL    HW210689   2.606   5.016   3.238
 3457SOL     OW10690   2.534   5.340   2.016
 3457SOL    HW110691   2.543   5.350   1.917
 3457SOL    HW210692   2.494   5.251   2.037
 3458SOL     OW10693   3.512   5.444   3.256
 3458SOL    HW110694   3.565   5.454   3.172
 3458SOL    HW210695   3.485   5.534   3.290
 3459SOL     OW10696   3.703   3.899   2.825
 3459SOL    HW110697   3.742   3.814   2.789
 3459SOL    HW210698   3.605   3.901   2.806
 3460SOL     OW10699   2.125   4.050   2.582
 3460SOL    HW110700   2.046   4.101   2.548
 3460SOL    HW210701   2.116   4.035   2.680
 3461SOL     OW10702   3.056   5.336   1.893
 3461SOL    HW110703   3.062   5.243   1.930
 3461SOL    HW210704   2.997   5.336   1.813
 3462SOL     OW10705   2.684   4.726   3.234
 3462SOL    HW110706   2.724   4.725   3.142
 3462SOL    HW210707   2.694   4.818   3.274
 3463SOL     OW10708   2.778   4.634   2.153
 3463SOL    HW110709   2.841   4.672   2.085
 3463SOL    HW210710   2.818   4.551   2.192
 3464SOL     OW10711   3.366   5.331   1.906
 3464SOL    HW110712   3.274   5.368   1.913
 3464SOL    HW210713   3.404   5.351   1.816
 3465SOL     OW10714   2.234   5.012   3.352
 3465SOL    HW110715   2.221   5.105   3.318
 3465SOL    HW210716   2.150   4.960   3.339
 3466SOL     OW10717   3.476   5.016   3.151
 3466SOL    HW110718   3.536   5.019   3.231
 3466SOL    HW210719   3.401   5.080   3.164
 3467SOL     OW10720   2.901   4.822   2.558
 3467SOL    HW110721   2.831   4.775   2.612
 3467SOL    HW210722   2.960   4.754   2.515
 3468SOL     OW10723   2.876   3.960   2.833
 3468SOL    HW110724   2.868   3.924   2.740
 3468SOL    HW210725   2.874   3.884   2.898
 3469SOL     OW10726   2.452   5.211   2.353
 3469SOL    HW110727   2.494   5.153   2.283
 3469SOL    HW210728   2.408   5.290   2.309
 3470SOL     OW10729   3.571   4.109   3.243
 3470SOL    HW110730   3.644   4.178   3.247
 3470SOL    HW210731   3.599   4.034   3.184
 3471SOL     OW10732   2.117   5.072   2.152
 3471SOL    HW110733   2.021   5.073   2.125
 3471SOL    HW210734   2.129   5.125   2.236
 3472SOL     OW10735   1.967   4.737   3.588
 3472SOL    HW110736   1.890   4.704   3.642
 3472SOL    HW210737   2.052   4.707   3.630
 3473SOL     OW10738   2.534   3.927   3.351
 3473SOL    HW110739   2.624   3.911   3.311
 3473SOL    HW210740   2.542   3.932   3.450
 3474SOL     OW10741   1.937   4.069   1.895
 3474SOL    HW110742   1.845   4.041   1.866
 3474SOL    HW210743   1.968   4.146   1.839
 3475SOL     OW10744   3.302   4.580   3.260
 3475SOL    HW110745   3.245   4.632   3.197
 3475SOL    HW210746   3.398   4.592   3.236
 3476SOL     OW10747   1.934   3.890   2.180
 3476SOL    HW110748   1.917   3.973   2.126
 3476SOL    HW210749   2.024   3.853   2.158
 3477SOL     OW10750   3.045   5.059   1.981
 3477SOL    HW110751   2.946   5.048   1.983
 3477SOL    HW210752   3.079   5.074   2.074
 3478SOL     OW10753   2.475   4.566   3.293
 3478SOL    HW110754   2.531   4.647   3.276
 3478SOL    HW210755   2.534   4.486   3.296
 3479SOL     OW10756   3.355   5.491   2.821
 3479SOL    HW110757   3.388   5.555   2.752
 3479SOL    HW210758   3.421   5.485   2.896
 3480SOL     OW10759   2.578   4.289   3.570
 3480SOL    HW110760   2.597   4.354   3.644
 3480SOL    HW210761   2.638   4.209   3.579
 3481SOL     OW10762   3.312   4.944   3.495
 3481SOL    HW110763   3.303   4.934   3.594
 3481SOL    HW210764   3.408   4.937   3.469
 3482SOL     OW10765   2.252   5.465   3.422
 3482SOL    HW110766   2.161   5.506   3.420
 3482SOL    HW210767   2.245   5.371   3.454
 3483SOL     OW10768   3.536   4.607   3.116
 3483SOL    HW110769   3.509   4.518   3.079
 3483SOL    HW210770   3.537   4.675   3.043
 3484SOL     OW10771   3.087   4.049   2.311
 3484SOL    HW110772   3.152   3.975   2.300
 3484SOL    HW210773   3.107   4.099   2.395
 3485SOL     OW10774   2.456   4.469   2.514
 3485SOL    HW110775   2.506   4.554   2.495
 3485SOL    HW210776   2.368   4.471   2.466
 3486SOL     OW10777   3.639   4.066   3.504
 3486SOL    HW110778   3.622   4.097   3.410
 3486SOL    HW210779   3.555   4.029   3.542
 3487SOL     OW10780   3.592   4.658   3.379
 3487SOL    HW110781   3.630   4.749   3.394
 3487SOL    HW210782   3.584   4.641   3.280
 3488SOL     OW10783   2.721   5.098   1.878
 3488SOL    HW110784   2.675   5.113   1.966
 3488SOL    HW210785   2.765   5.183   1.848
 3489SOL     OW10786   2.523   5.514   2.815
 3489SOL    HW110787   2.477   5.602   2.802
 3489SOL    HW210788   2.622   5.526   2.808
 3490SOL     OW10789   2.721   4.680   2.723
 3490SOL    HW110790   2.775   4.611   2.771
 3490SOL    HW210791   2.689   4.749   2.789
 3491SOL     OW10792   2.945   4.708   1.949
 3491SOL    HW110793   2.922   4.761   1.867
 3491SOL    HW210794   3.026   4.652   1.930
 3492SOL     OW10795   3.723   5.293   2.713
 3492SOL    HW110796   3.652   5.281   2.643
 3492SOL    HW210797   3.724   5.214   2.773
 3493SOL     OW10798   2.083   5.038   3.706
 3493SOL    HW110799   2.018   4.965   3.685
 3493SOL    HW210800   2.087   5.052   3.804
 3494SOL     OW10801   1.941   4.964   2.515
 3494SOL    HW110802   1.940   4.917   2.603
 3494SOL    HW210803   2.023   4.936   2.464
 3495SOL     OW10804   2.534   5.115   3.486
 3495SOL    HW110805   2.456   5.065   3.524
 3495SOL    HW210806   2.531   5.210   3.517
 3496SOL     OW10807   3.686   3.916   3.089
 3496SOL    HW110808   3.682   3.826   3.133
 3496SOL    HW210809   3.689   3.905   2.990
 3497SOL     OW10810   2.290   4.148   2.382
 3497SOL    HW110811   2.320   4.076   2.320
 3497SOL    HW210812   2.251   4.108   2.465
 3498SOL     OW10813   3.567   5.211   2.966
 3498SOL    HW110814   3.474   5.186   2.939
 3498SOL    HW210815   3.593   5.161   3.048
 3499SOL     OW10816   2.179   4.271   3.142
 3499SOL    HW110817   2.217   4.212   3.214
 3499SOL    HW210818   2.219   4.245   3.054
 3500SOL     OW10819   2.674   5.310   2.549
 3500SOL    HW110820   2.706   5.320   2.455
 3500SOL    HW210821   2.595   5.248   2.551
 3501SOL     OW10822   3.286   3.938   2.974
 3501SOL    HW110823   3.338   3.873   3.029
 3501SOL    HW210824   3.237   4.001   3.035
 3502SOL     OW10825   2.863   3.758   3.016
 3502SOL    HW110826   2.800   3.686   2.985
 3502SOL    HW210827   2.956   3.722   3.016
 3503SOL     OW10828   2.632   5.054   2.163
 3503SOL    HW110829   2.586   4.967   2.180
 3503SOL    HW210830   2.723   5.051   2.204
 3504SOL     OW10831   2.480   5.291   3.146
 3504SOL    HW110832   2.475   5.373   3.203
 3504SOL    HW210833   2.569   5.288   3.101
 3505SOL     OW10834   3.214   3.776   2.030
 3505SOL    HW110835   3.249   3.735   1.946
 3505SOL    HW210836   3.124   3.738   2.050
 3506SOL     OW10837   3.162   4.177   2.553
 3506SOL    HW110838   3.103   4.257   2.557
 3506SOL    HW210839   3.177   4.142   2.646
 3507SOL     OW10840   3.455   3.945   2.744
 3507SOL    HW110841   3.371   3.944   2.798
 3507SOL    HW210842   3.457   4.028   2.688
 3508SOL     OW10843   1.901   4.801   2.162
 3508SOL    HW110844   2.000   4.790   2.153
 3508SOL    HW210845   1.861   4.715   2.194
 3509SOL     OW10846   2.737   5.370   2.199
 3509SOL    HW110847   2.660   5.335   2.145
 3509SOL    HW210848   2.705   5.441   2.261
 3510SOL     OW10849   2.092   4.352   3.837
 3510SOL    HW110850   1.999   4.350   3.874
 3510SOL    HW210851   2.093   4.313   3.745
 3511SOL     OW10852   2.087   3.999   4.720
 3511SOL    HW110853   2.122   3.982   4.812
 3511SOL    HW210854   1.999   3.954   4.708
 3512SOL     OW10855   1.881   4.092   4.371
 3512SOL    HW110856   1.799   4.135   4.410
 3512SOL    HW210857   1.853   4.019   4.308
 3513SOL     OW10858   2.431   4.999   4.889
 3513SOL    HW110859   2.338   4.992   4.852
 3513SOL    HW210860   2.442   5.088   4.933
 3514SOL     OW10861   3.417   5.235   4.427
 3514SOL    HW110862   3.360   5.219   4.508
 3514SOL    HW210863   3.358   5.245   4.347
 3515SOL     OW10864   2.997   4.427   4.441
 3515SOL    HW110865   3.054   4.505   4.416
 3515SOL    HW210866   2.937   4.453   4.517
 3516SOL     OW10867   3.617   4.331   3.955
 3516SOL    HW110868   3.605   4.318   3.856
 3516SOL    HW210869   3.587   4.250   4.004
 3517SOL     OW10870   2.630   4.868   4.747
 3517SOL    HW110871   2.552   4.885   4.807
 3517SOL    HW210872   2.664   4.955   4.711
 3518SOL     OW10873   2.712   4.522   5.547
 3518SOL    HW110874   2.708   4.598   5.612
 3518SOL    HW210875   2.734   4.558   5.456
 3519SOL     OW10876   2.547   4.736   4.389
 3519SOL    HW110877   2.616   4.720   4.459
 3519SOL    HW210878   2.474   4.793   4.427
 3520SOL     OW10879   2.548   4.885   5.527
 3520SOL    HW110880   2.608   4.964   5.541
 3520SOL    HW210881   2.462   4.916   5.486
 3521SOL     OW10882   2.197   5.159   4.785
 3521SOL    HW110883   2.119   5.128   4.732
 3521SOL    HW210884   2.255   5.217   4.728
 3522SOL     OW10885   3.322   5.229   5.063
 3522SOL    HW110886   3.346   5.323   5.089
 3522SOL    HW210887   3.306   5.175   5.145
 3523SOL     OW10888   2.300   4.116   5.223
 3523SOL    HW110889   2.382   4.060   5.232
 3523SOL    HW210890   2.219   4.058   5.227
 3524SOL     OW10891   3.465   4.171   4.461
 3524SOL    HW110892   3.391   4.217   4.411
 3524SOL    HW210893   3.516   4.239   4.514
 3525SOL     OW10894   2.093   5.437   4.207
 3525SOL    HW110895   2.127   5.514   4.261
 3525SOL    HW210896   2.137   5.437   4.117
 3526SOL     OW10897   2.989   5.065   5.414
 3526SOL    HW110898   3.036   5.065   5.502
 3526SOL    HW210899   2.941   4.978   5.403
 3527SOL     OW10900   2.092   5.158   4.262
 3527SOL    HW110901   2.066   5.254   4.262
 3527SOL    HW210902   2.021   5.104   4.307
 3528SOL     OW10903   2.102   4.815   4.610
 3528SOL    HW110904   2.116   4.731   4.662
 3528SOL    HW210905   2.047   4.879   4.665
 3529SOL     OW10906   2.482   5.510   5.163
 3529SOL    HW110907   2.390   5.493   5.198
 3529SOL    HW210908   2.510   5.602   5.189
 3530SOL     OW10909   2.468   4.688   3.847
 3530SOL    HW110910   2.475   4.772   3.793
 3530SOL    HW210911   2.514   4.701   3.935
 3531SOL     OW10912   3.456   3.838   5.204
 3531SOL    HW110913   3.438   3.905   5.132
 3531SOL    HW210914   3.453   3.884   5.293
 3532SOL     OW10915   1.984   4.367   4.287
 3532SOL    HW110916   1.939   4.279   4.304
 3532SOL    HW210917   1.983   4.421   4.371
 3533SOL     OW10918   3.704   5.491   4.083
 3533SOL    HW110919   3.758   5.462   4.163
 3533SOL    HW210920   3.734   5.581   4.054
 3534SOL     OW10921   1.889   5.320   3.841
 3534SOL    HW110922   1.870   5.224   3.862
 3534SOL    HW210923   1.856   5.378   3.916
 3535SOL     OW10924   3.551   4.646   4.336
 3535SOL    HW110925   3.646   4.617   4.344
 3535SOL    HW210926   3.543   4.711   4.261
 3536SOL     OW10927   3.503   4.832   4.156
 3536SOL    HW110928   3.589   4.834   4.104
 3536SOL    HW210929   3.517   4.879   4.244
 3537SOL     OW10930   1.975   4.461   5.321
 3537SOL    HW110931   2.063   4.448   5.366
 3537SOL    HW210932   1.962   4.558   5.299
 3538SOL     OW10933   2.475   5.089   4.450
 3538SOL    HW110934   2.426   5.002   4.459
 3538SOL    HW210935   2.452   5.132   4.363
 3539SOL     OW10936   3.155   4.952   5.147
 3539SOL    HW110937   3.192   4.879   5.089
 3539SOL    HW210938   3.207   4.957   5.232
 3540SOL     OW10939   2.671   3.728   4.226
 3540SOL    HW110940   2.711   3.819   4.217
 3540SOL    HW210941   2.571   3.736   4.232
 3541SOL     OW10942   2.059   4.700   4.988
 3541SOL    HW110943   2.148   4.655   4.974
 3541SOL    HW210944   1.986   4.635   4.969
 3542SOL     OW10945   3.387   4.723   3.914
 3542SOL    HW110946   3.324   4.647   3.927
 3542SOL    HW210947   3.435   4.741   4.000
 3543SOL     OW10948   3.049   5.516   5.340
 3543SOL    HW110949   3.073   5.576   5.264
 3543SOL    HW210950   3.056   5.421   5.310
 3544SOL     OW10951   2.179   3.975   5.525
 3544SOL    HW110952   2.250   4.046   5.531
 3544SOL    HW210953   2.091   4.014   5.553
 3545SOL     OW10954   3.328   5.141   4.677
 3545SOL    HW110955   3.269   5.147   4.757
 3545SOL    HW210956   3.313   5.053   4.631
 3546SOL     OW10957   3.529   5.438   4.296
 3546SOL    HW110958   3.488   5.415   4.208
 3546SOL    HW210959   3.511   5.364   4.361
 3547SOL     OW10960   2.460   4.453   3.994
 3547SOL    HW110961   2.484   4.522   3.926
 3547SOL    HW210962   2.382   4.486   4.048
 3548SOL     OW10963   3.143   4.069   4.668
 3548SOL    HW110964   3.057   4.019   4.655
 3548SOL    HW210965   3.205   4.015   4.724
 3549SOL     OW10966   3.438   5.386   4.031
 3549SOL    HW110967   3.527   5.432   4.034
 3549SOL    HW210968   3.417   5.362   3.936
 3550SOL     OW10969   2.669   4.329   5.189
 3550SOL    HW110970   2.622   4.326   5.278
 3550SOL    HW210971   2.618   4.274   5.123
 3551SOL     OW10972   3.256   4.193   5.398
 3551SOL    HW110973   3.236   4.236   5.486
 3551SOL    HW210974   3.334   4.131   5.407
 3552SOL     OW10975   2.835   4.614   5.296
 3552SOL    HW110976   2.881   4.530   5.267
 3552SOL    HW210977   2.779   4.648   5.221
 3553SOL     OW10978   2.853   4.134   4.966
 3553SOL    HW110979   2.776   4.168   5.020
 3553SOL    HW210980   2.819   4.083   4.887
 3554SOL     OW10981   2.903   4.425   4.153
 3554SOL    HW110982   2.929   4.421   4.249
 3554SOL    HW210983   2.818   4.374   4.139
 3555SOL     OW10984   1.938   4.535   4.513
 3555SOL    HW110985   2.037   4.523   4.522
 3555SOL    HW210986   1.914   4.630   4.534
 3556SOL     OW10987   1.992   5.545   5.295
 3556SOL    HW110988   1.982   5.530   5.394
 3556SOL    HW210989   1.906   5.581   5.259
 3557SOL     OW10990   2.727   4.072   3.919
 3557SOL    HW110991   2.786   4.135   3.870
 3557SOL    HW210992   2.746   3.978   3.890
 3558SOL     OW10993   3.581   4.309   5.555
 3558SOL    HW110994   3.555   4.398   5.519
 3558SOL    HW210995   3.579   4.241   5.482
 3559SOL     OW10996   3.224   4.868   4.269
 3559SOL    HW110997   3.307   4.839   4.221
 3559SOL    HW210998   3.175   4.935   4.213
 3560SOL     OW10999   2.412   3.920   4.609
 3560SOL    HW111000   2.407   3.915   4.709
 3560SOL    HW211001   2.414   4.016   4.580
 3561SOL     OW11002   2.870   5.180   4.201
 3561SOL    HW111003   2.824   5.252   4.149
 3561SOL    HW211004   2.866   5.200   4.299
 3562SOL     OW11005   2.213   5.525   4.577
 3562SOL    HW111006   2.263   5.439   4.583
 3562SOL    HW211007   2.278   5.602   4.574
 3563SOL     OW11008   3.657   4.790   4.597
 3563SOL    HW111009   3.595   4.775   4.521
 3563SOL    HW211010   3.605   4.801   4.682
 3564SOL     OW11011   3.089   5.274   5.230
 3564SOL    HW111012   3.095   5.197   5.294
 3564SOL    HW211013   3.037   5.248   5.150
 3565SOL     OW11014   2.183   4.667   3.966
 3565SOL    HW111015   2.265   4.706   3.924
 3565SOL    HW211016   2.156   4.585   3.917
 3566SOL     OW11017   3.320   4.459   4.452
 3566SOL    HW111018   3.315   4.394   4.527
 3566SOL    HW211019   3.400   4.518   4.465
 3567SOL     OW11020   2.323   4.990   5.451
 3567SOL    HW111021   2.273   4.991   5.365
 3567SOL    HW211022   2.260   4.972   5.527
 3568SOL     OW11023   2.973   5.500   3.961
 3568SOL    HW111024   2.913   5.438   4.011
 3568SOL    HW211025   3.004   5.456   3.876
 3569SOL     OW11026   2.064   4.009   5.222
 3569SOL    HW111027   1.984   4.069   5.209
 3569SOL    HW211028   2.054   3.960   5.308
 3570SOL     OW11029   3.494   5.101   3.805
 3570SOL    HW111030   3.462   5.195   3.795
 3570SOL    HW211031   3.418   5.038   3.793
 3571SOL     OW11032   2.326   5.467   4.047
 3571SOL    HW111033   2.359   5.506   4.133
 3571SOL    HW211034   2.402   5.460   3.982
 3572SOL     OW11035   3.262   3.831   4.150
 3572SOL    HW111036   3.238   3.794   4.060
 3572SOL    HW211037   3.361   3.847   4.154
 3573SOL     OW11038   2.111   5.509   4.965
 3573SOL    HW111039   2.168   5.444   5.015
 3573SOL    HW211040   2.095   5.476   4.872
 3574SOL     OW11041   2.802   5.422   4.628
 3574SOL    HW111042   2.882   5.365   4.649
 3574SOL    HW211043   2.753   5.382   4.551
 3575SOL     OW11044   2.244   4.424   4.204
 3575SOL    HW111045   2.289   4.334   4.201
 3575SOL    HW211046   2.150   4.413   4.237
 3576SOL     OW11047   3.409   3.946   5.453
 3576SOL    HW111048   3.404   3.983   5.545
 3576SOL    HW211049   3.337   3.877   5.441
 3577SOL     OW11050   2.476   3.846   3.841
 3577SOL    HW111051   2.574   3.824   3.848
 3577SOL    HW211052   2.445   3.829   3.748
 3578SOL     OW11053   2.643   3.988   5.473
 3578SOL    HW111054   2.710   3.927   5.516
 3578SOL    HW211055   2.570   4.007   5.538
 3579SOL     OW11056   2.750   5.238   4.919
 3579SOL    HW111057   2.727   5.213   4.825
 3579SOL    HW211058   2.811   5.169   4.958
 3580SOL     OW11059   3.213   4.314   5.157
 3580SOL    HW111060   3.241   4.271   5.242
 3580SOL    HW211061   3.238   4.410   5.158
 3581SOL     OW11062   2.665   5.126   4.648
 3581SOL    HW111063   2.755   5.140   4.606
 3581SOL    HW211064   2.594   5.128   4.577
 3582SOL     OW11065   2.784   4.227   4.623
 3582SOL    HW111066   2.759   4.218   4.527
 3582SOL    HW211067   2.832   4.145   4.654
 3583SOL     OW11068   2.401   3.788   4.236
 3583SOL    HW111069   2.320   3.789   4.294
 3583SOL    HW211070   2.404   3.871   4.181
 3584SOL     OW11071   3.296   4.912   3.765
 3584SOL    HW111072   3.328   4.836   3.822
 3584SOL    HW211073   3.204   4.939   3.795
 3585SOL     OW11074   2.159   3.759   3.895
 3585SOL    HW111075   2.208   3.843   3.874
 3585SOL    HW211076   2.221   3.694   3.940
 3586SOL     OW11077   2.797   3.960   4.204
 3586SOL    HW111078   2.749   4.001   4.126
 3586SOL    HW211079   2.896   3.958   4.185
 3587SOL     OW11080   2.938   4.407   5.188
 3587SOL    HW111081   2.858   4.346   5.191
 3587SOL    HW211082   3.019   4.354   5.164
 3588SOL     OW11083   3.089   5.294   4.517
 3588SOL    HW111084   3.110   5.368   4.452
 3588SOL    HW211085   3.157   5.294   4.590
 3589SOL     OW11086   2.321   4.876   4.465
 3589SOL    HW111087   2.250   4.849   4.530
 3589SOL    HW211088   2.295   4.848   4.372
 3590SOL     OW11089   3.133   5.521   4.315
 3590SOL    HW111090   3.177   5.585   4.251
 3590SOL    HW211091   3.083   5.573   4.385
 3591SOL     OW11092   2.894   4.273   3.740
 3591SOL    HW111093   2.853   4.355   3.701
 3591SOL    HW211094   2.958   4.299   3.813
 3592SOL     OW11095   1.940   4.280   5.110
 3592SOL    HW111096   2.032   4.279   5.069
 3592SOL    HW211097   1.934   4.354   5.177
 3593SOL     OW11098   2.423   3.946   4.871
 3593SOL    HW111099   2.461   3.862   4.908
 3593SOL    HW211100   2.335   3.965   4.915
 3594SOL     OW11101   2.728   4.178   4.366
 3594SOL    HW111102   2.696   4.250   4.304
 3594SOL    HW211103   2.752   4.097   4.313
 3595SOL     OW11104   2.879   3.763   4.477
 3595SOL    HW111105   2.807   3.768   4.408
 3595SOL    HW211106   2.855   3.694   4.546
 3596SOL     OW11107   3.291   4.897   4.591
 3596SOL    HW111108   3.236   4.813   4.584
 3596SOL    HW211109   3.317   4.926   4.499
 3597SOL     OW11110   3.328   4.314   4.716
 3597SOL    HW111111   3.298   4.219   4.723
 3597SOL    HW211112   3.401   4.330   4.782
 3598SOL     OW11113   3.719   4.557   4.101
 3598SOL    HW111114   3.761   4.493   4.165
 3598SOL    HW211115   3.681   4.506   4.023
 3599SOL     OW11116   2.350   5.109   3.898
 3599SOL    HW111117   2.263   5.094   3.945
 3599SOL    HW211118   2.333   5.135   3.803
 3600SOL     OW11119   3.526   5.004   4.381
 3600SOL    HW111120   3.625   5.012   4.395
 3600SOL    HW211121   3.481   5.088   4.412
 3601SOL     OW11122   3.252   4.299   3.802
 3601SOL    HW111123   3.198   4.278   3.883
 3601SOL    HW211124   3.343   4.258   3.811
 3602SOL     OW11125   2.389   3.980   4.052
 3602SOL    HW111126   2.416   3.921   3.977
 3602SOL    HW211127   2.389   4.075   4.021
 3603SOL     OW11128   3.616   4.947   5.312
 3603SOL    HW111129   3.707   4.908   5.299
 3603SOL    HW211130   3.624   5.043   5.336
 3604SOL     OW11131   2.926   5.071   5.064
 3604SOL    HW111132   2.846   5.048   5.119
 3604SOL    HW211133   3.009   5.045   5.113
 3605SOL     OW11134   3.454   5.353   5.349
 3605SOL    HW111135   3.481   5.387   5.259
 3605SOL    HW211136   3.533   5.315   5.395
 3606SOL     OW11137   2.973   4.919   4.824
 3606SOL    HW111138   2.933   4.963   4.905
 3606SOL    HW211139   2.932   4.956   4.741
 3607SOL     OW11140   3.500   4.823   4.803
 3607SOL    HW111141   3.505   4.904   4.862
 3607SOL    HW211142   3.414   4.825   4.752
 3608SOL     OW11143   2.777   3.813   5.126
 3608SOL    HW111144   2.802   3.793   5.031
 3608SOL    HW211145   2.849   3.869   5.168
 3609SOL     OW11146   2.842   4.840   5.443
 3609SOL    HW111147   2.743   4.846   5.453
 3609SOL    HW211148   2.865   4.760   5.387
 3610SOL     OW11149   2.567   4.774   4.092
 3610SOL    HW111150   2.553   4.781   4.191
 3610SOL    HW211151   2.651   4.723   4.074
 3611SOL     OW11152   2.272   4.537   4.975
 3611SOL    HW111153   2.358   4.549   5.025
 3611SOL    HW211154   2.230   4.450   5.002
 3612SOL     OW11155   3.136   4.110   4.986
 3612SOL    HW111156   3.157   4.184   5.050
 3612SOL    HW211157   3.047   4.127   4.943
 3613SOL     OW11158   1.926   5.288   5.055
 3613SOL    HW111159   1.880   5.370   5.021
 3613SOL    HW211160   2.024   5.307   5.064
 3614SOL     OW11161   2.229   4.824   4.225
 3614SOL    HW111162   2.222   4.907   4.169
 3614SOL    HW211163   2.233   4.744   4.165
 3615SOL     OW11164   2.428   4.261   4.589
 3615SOL    HW111165   2.440   4.327   4.515
 3615SOL    HW211166   2.474   4.295   4.672
 3616SOL     OW11167   3.114   5.072   4.112
 3616SOL    HW111168   3.164   5.149   4.152
 3616SOL    HW211169   3.019   5.074   4.144
 3617SOL     OW11170   3.134   5.169   4.866
 3617SOL    HW111171   3.181   5.182   4.953
 3617SOL    HW211172   3.068   5.095   4.875
 3618SOL     OW11173   3.444   4.363   4.196
 3618SOL    HW111174   3.413   4.424   4.269
 3618SOL    HW211175   3.494   4.415   4.127
 3619SOL     OW11176   2.216   5.234   5.053
 3619SOL    HW111177   2.195   5.190   4.966
 3619SOL    HW211178   2.313   5.260   5.056
 3620SOL     OW11179   2.264   4.475   5.322
 3620SOL    HW111180   2.332   4.530   5.275
 3620SOL    HW211181   2.304   4.387   5.349
 3621SOL     OW11182   3.449   4.503   5.394
 3621SOL    HW111183   3.357   4.541   5.389
 3621SOL    HW211184   3.509   4.550   5.329
 3622SOL     OW11185   2.875   3.829   5.494
 3622SOL    HW111186   2.881   3.914   5.442
 3622SOL    HW211187   2.907   3.753   5.437
 3623SOL     OW11188   2.366   3.774   5.464
 3623SOL    HW111189   2.324   3.717   5.394
 3623SOL    HW211190   2.300   3.843   5.496
 3624SOL     OW11191   2.435   4.594   4.753
 3624SOL    HW111192   2.479   4.683   4.744
 3624SOL    HW211193   2.372   4.594   4.830
 3625SOL     OW11194   3.222   4.586   4.769
 3625SOL    HW111195   3.147   4.586   4.703
 3625SOL    HW211196   3.259   4.494   4.778
 3626SOL     OW11197   3.071   4.249   3.999
 3626SOL    HW111198   3.084   4.165   4.053
 3626SOL    HW211199   3.042   4.323   4.059
 3627SOL     OW11200   2.169   3.937   4.955
 3627SOL    HW111201   2.146   3.974   5.045
 3627SOL    HW211202   2.139   3.842   4.949
 3628SOL     OW11203   1.899   5.034   5.006
 3628SOL    HW111204   1.952   4.985   5.074
 3628SOL    HW211205   1.921   5.132   5.011
 3629SOL     OW11206   2.594   4.358   4.788
 3629SOL    HW111207   2.653   4.332   4.712
 3629SOL    HW211208   2.566   4.454   4.777
 3630SOL     OW11209   3.590   4.659   5.578
 3630SOL    HW111210   3.544   4.652   5.489
 3630SOL    HW211211   3.528   4.703   5.644
 3631SOL     OW11212   2.169   3.787   4.342
 3631SOL    HW111213   2.158   3.881   4.375
 3631SOL    HW211214   2.164   3.724   4.419
 3632SOL     OW11215   3.484   4.091   4.098
 3632SOL    HW111216   3.486   4.015   4.162
 3632SOL    HW211217   3.436   4.168   4.138
 3633SOL     OW11218   2.885   4.490   4.690
 3633SOL    HW111219   2.900   4.511   4.786
 3633SOL    HW211220   2.855   4.395   4.681
 3634SOL     OW11221   2.842   5.297   5.424
 3634SOL    HW111222   2.822   5.341   5.336
 3634SOL    HW211223   2.881   5.206   5.408
 3635SOL     OW11224   3.721   5.242   5.329
 3635SOL    HW111225   3.735   5.269   5.234
 3635SOL    HW211226   3.804   5.264   5.382
 3636SOL     OW11227   2.212   4.622   5.528
 3636SOL    HW111228   2.288   4.666   5.576
 3636SOL    HW211229   2.247   4.575   5.446
 3637SOL     OW11230   3.402   3.998   3.849
 3637SOL    HW111231   3.341   3.923   3.872
 3637SOL    HW211232   3.424   4.050   3.932
 3638SOL     OW11233   3.165   4.562   3.766
 3638SOL    HW111234   3.199   4.469   3.781
 3638SOL    HW211235   3.183   4.589   3.671
 3639SOL     OW11236   2.930   5.057   4.573
 3639SOL    HW111237   2.937   4.973   4.518
 3639SOL    HW211238   2.992   5.126   4.537
 3640SOL     OW11239   2.181   4.534   4.673
 3640SOL    HW111240   2.274   4.570   4.678
 3640SOL    HW211241   2.175   4.449   4.725
 3641SOL     OW11242   2.201   4.233   4.730
 3641SOL    HW111243   2.149   4.150   4.713
 3641SOL    HW211244   2.278   4.238   4.666
 3642SOL     OW11245   3.000   4.104   5.402
 3642SOL    HW111246   2.955   4.167   5.466
 3642SOL    HW211247   3.093   4.135   5.385
 3643SOL     OW11248   3.022   3.931   5.201
 3643SOL    HW111249   3.022   3.995   5.278
 3643SOL    HW211250   3.050   3.979   5.118
 3644SOL     OW11251   1.870   5.050   3.924
 3644SOL    HW111252   1.777   5.071   3.893
 3644SOL    HW211253   1.880   4.951   3.937
 3645SOL     OW11254   1.950   5.525   4.651
 3645SOL    HW111255   1.908   5.439   4.624
 3645SOL    HW211256   2.044   5.528   4.617
 3646SOL     OW11257   2.366   5.292   4.634
 3646SOL    HW111258   2.432   5.366   4.643
 3646SOL    HW211259   2.410   5.213   4.592
 3647SOL     OW11260   2.864   4.520   4.962
 3647SOL    HW111261   2.905   4.488   5.048
 3647SOL    HW211262   2.768   4.493   4.959
 3648SOL     OW11263   1.902   4.268   4.838
 3648SOL    HW111264   1.987   4.235   4.797
 3648SOL    HW211265   1.915   4.283   4.936
 3649SOL     OW11266   2.051   4.244   5.446
 3649SOL    HW111267   2.110   4.204   5.376
 3649SOL    HW211268   1.993   4.315   5.405
 3650SOL     OW11269   3.231   4.674   5.384
 3650SOL    HW111270   3.270   4.763   5.404
 3650SOL    HW211271   3.241   4.654   5.287
 3651SOL     OW11272   2.677   4.296   4.049
 3651SOL    HW111273   2.684   4.207   4.003
 3651SOL    HW211274   2.583   4.330   4.041
 3652SOL     OW11275   3.519   4.328   4.930
 3652SOL    HW111276   3.481   4.259   4.992
 3652SOL    HW211277   3.601   4.292   4.886
 3653SOL     OW11278   2.114   5.288   5.468
 3653SOL    HW111279   2.084   5.345   5.544
 3653SOL    HW211280   2.107   5.191   5.494
 3654SOL     OW11281   2.533   4.188   4.993
 3654SOL    HW111282   2.499   4.099   4.963
 3654SOL    HW211283   2.559   4.242   4.913
 3655SOL     OW11284   2.792   5.402   5.189
 3655SOL    HW111285   2.768   5.384   5.094
 3655SOL    HW211286   2.822   5.496   5.199
 3656SOL     OW11287   2.335   4.224   3.915
 3656SOL    HW111288   2.396   4.304   3.919
 3656SOL    HW211289   2.240   4.255   3.922
 3657SOL     OW11290   2.021   4.861   5.190
 3657SOL    HW111291   2.043   4.800   5.266
 3657SOL    HW211292   2.031   4.812   5.104
 3658SOL     OW11293   3.209   4.783   4.958
 3658SOL    HW111294   3.233   4.720   4.884
 3658SOL    HW211295   3.119   4.823   4.940
 3659SOL     OW11296   3.164   4.579   4.033
 3659SOL    HW111297   3.078   4.548   4.075
 3659SOL    HW211298   3.160   4.565   3.934
 3660SOL     OW11299   3.621   5.471   4.878
 3660SOL    HW111300   3.682   5.501   4.805
 3660SOL    HW211301   3.583   5.382   4.856
 3661SOL     OW11302   3.114   5.455   4.852
 3661SOL    HW111303   3.198   5.460   4.798
 3661SOL    HW211304   3.091   5.359   4.870
 3662SOL     OW11305   1.945   4.982   4.746
 3662SOL    HW111306   1.940   4.981   4.846
 3662SOL    HW211307   1.862   4.941   4.708
 3663SOL     OW11308   2.550   5.386   5.440
 3663SOL    HW111309   2.494   5.467   5.449
 3663SOL    HW211310   2.602   5.390   5.354
 3664SOL     OW11311   3.588   3.859   4.247
 3664SOL    HW111312   3.661   3.842   4.180
 3664SOL    HW211313   3.557   3.772   4.285
 3665SOL     OW11314   3.250   5.297   4.201
 3665SOL    HW111315   3.317   5.309   4.127
 3665SOL    HW211316   3.210   5.386   4.224
 3666SOL     OW11317   1.992   5.518   5.575
 3666SOL    HW111318   1.951   5.444   5.628
 3666SOL    HW211319   2.056   5.569   5.633
 3667SOL     OW11320   3.142   4.651   4.396
 3667SOL    HW111321   3.202   4.570   4.398
 3667SOL    HW211322   3.182   4.720   4.336
 3668SOL     OW11323   2.692   4.997   5.146
 3668SOL    HW111324   2.687   5.030   5.241
 3668SOL    HW211325   2.606   5.016   5.100
 3669SOL     OW11326   2.534   5.340   3.878
 3669SOL    HW111327   2.543   5.350   3.779
 3669SOL    HW211328   2.494   5.251   3.899
 3670SOL     OW11329   3.512   5.444   5.118
 3670SOL    HW111330   3.565   5.454   5.034
 3670SOL    HW211331   3.485   5.534   5.152
 3671SOL     OW11332   3.703   3.899   4.687
 3671SOL    HW111333   3.742   3.814   4.651
 3671SOL    HW211334   3.605   3.901   4.668
 3672SOL     OW11335   2.125   4.050   4.444
 3672SOL    HW111336   2.046   4.101   4.410
 3672SOL    HW211337   2.116   4.035   4.542
 3673SOL     OW11338   3.056   5.336   3.755
 3673SOL    HW111339   3.062   5.243   3.792
 3673SOL    HW211340   2.997   5.336   3.675
 3674SOL     OW11341   2.684   4.726   5.096
 3674SOL    HW111342   2.724   4.725   5.004
 3674SOL    HW211343   2.694   4.818   5.136
 3675SOL     OW11344   2.778   4.634   4.015
 3675SOL    HW111345   2.841   4.672   3.947
 3675SOL    HW211346   2.818   4.551   4.054
 3676SOL     OW11347   3.366   5.331   3.768
 3676SOL    HW111348   3.274   5.368   3.775
 3676SOL    HW211349   3.404   5.351   3.678
 3677SOL     OW11350   2.234   5.012   5.214
 3677SOL    HW111351   2.221   5.105   5.180
 3677SOL    HW211352   2.150   4.960   5.201
 3678SOL     OW11353   3.476   5.016   5.013
 3678SOL    HW111354   3.536   5.019   5.093
 3678SOL    HW211355   3.401   5.080   5.026
 3679SOL     OW11356   2.901   4.822   4.420
 3679SOL    HW111357   2.831   4.775   4.474
 3679SOL    HW211358   2.960   4.754   4.377
 3680SOL     OW11359   2.876   3.960   4.695
 3680SOL    HW111360   2.868   3.924   4.602
 3680SOL    HW211361   2.874   3.884   4.760
 3681SOL     OW11362   2.452   5.211   4.215
 3681SOL    HW111363   2.494   5.153   4.145
 3681SOL    HW211364   2.408   5.290   4.171
 3682SOL     OW11365   3.571   4.109   5.105
 3682SOL    HW111366   3.644   4.178   5.109
 3682SOL    HW211367   3.599   4.034   5.046
 3683SOL     OW11368   2.117   5.072   4.014
 3683SOL    HW111369   2.021   5.073   3.987
 3683SOL    HW211370   2.129   5.125   4.098
 3684SOL     OW11371   1.967   4.737   5.450
 3684SOL    HW111372   1.890   4.704   5.504
 3684SOL    HW211373   2.052   4.707   5.492
 3685SOL     OW11374   2.534   3.927   5.213
 3685SOL    HW111375   2.624   3.911   5.173
 3685SOL    HW211376   2.542   3.932   5.312
 3686SOL     OW11377   1.937   4.069   3.757
 3686SOL    HW111378   1.845   4.041   3.728
 3686SOL    HW211379   1.968   4.146   3.701
 3687SOL     OW11380   3.302   4.580   5.122
 3687SOL    HW111381   3.245   4.632   5.059
 3687SOL    HW211382   3.398   4.592   5.098
 3688SOL     OW11383   1.934   3.890   4.042
 3688SOL    HW111384   1.917   3.973   3.988
 3688SOL    HW211385   2.024   3.853   4.020
 3689SOL     OW11386   3.045   5.059   3.843
 3689SOL    HW111387   2.946   5.048   3.845
 3689SOL    HW211388   3.079   5.074   3.936
 3690SOL     OW11389   2.475   4.566   5.155
 3690SOL    HW111390   2.531   4.647   5.138
 3690SOL    HW211391   2.534   4.486   5.158
 3691SOL     OW11392   3.355   5.491   4.683
 3691SOL    HW111393   3.388   5.555   4.614
 3691SOL    HW211394   3.421   5.485   4.758
 3692SOL     OW11395   2.578   4.289   5.432
 3692SOL    HW111396   2.597   4.354   5.506
 3692SOL    HW211397   2.638   4.209   5.441
 3693SOL     OW11398   3.312   4.944   5.357
 3693SOL    HW111399   3.303   4.934   5.456
 3693SOL    HW211400   3.408   4.937   5.331
 3694SOL     OW11401   2.252   5.465   5.284
 3694SOL    HW111402   2.161   5.506   5.282
 3694SOL    HW211403   2.245   5.371   5.316
 3695SOL     OW11404   3.536   4.607   4.978
 3695SOL    HW111405   3.509   4.518   4.941
 3695SOL    HW211406   3.537   4.675   4.905
 3696SOL     OW11407   3.087   4.049   4.173
 3696SOL    HW111408   3.152   3.975   4.162
 3696SOL    HW211409   3.107   4.099   4.257
 3697SOL     OW11410   2.456   4.469   4.376
 3697SOL    HW111411   2.506   4.554   4.357
 3697SOL    HW211412   2.368   4.471   4.328
 3698SOL     OW11413   3.639   4.066   5.366
 3698SOL    HW111414   3.622   4.097   5.272
 3698SOL    HW211415   3.555   4.029   5.404
 3699SOL     OW11416   3.592   4.658   5.241
 3699SOL    HW111417   3.630   4.749   5.256
 3699SOL    HW211418   3.584   4.641   5.142
 3700SOL     OW11419   2.721   5.098   3.740
 3700SOL    HW111420   2.675   5.113   3.828
 3700SOL    HW211421   2.765   5.183   3.710
 3701SOL     OW11422   2.523   5.514   4.677
 3701SOL    HW111423   2.477   5.602   4.664
 3701SOL    HW211424   2.622   5.526   4.670
 3702SOL     OW11425   2.721   4.680   4.585
 3702SOL    HW111426   2.775   4.611   4.633
 3702SOL    HW211427   2.689   4.749   4.651
 3703SOL     OW11428   2.945   4.708   3.811
 3703SOL    HW111429   2.922   4.761   3.729
 3703SOL    HW211430   3.026   4.652   3.792
 3704SOL     OW11431   3.723   5.293   4.575
 3704SOL    HW111432   3.652   5.281   4.505
 3704SOL    HW211433   3.724   5.214   4.635
 3705SOL     OW11434   2.083   5.038   5.568
 3705SOL    HW111435   2.018   4.965   5.547
 3705SOL    HW211436   2.087   5.052   5.666
 3706SOL     OW11437   1.941   4.964   4.377
 3706SOL    HW111438   1.940   4.917   4.465
 3706SOL    HW211439   2.023   4.936   4.326
 3707SOL     OW11440   2.534   5.115   5.348
 3707SOL    HW111441   2.456   5.065   5.386
 3707SOL    HW211442   2.531   5.210   5.379
 3708SOL     OW11443   3.686   3.916   4.951
 3708SOL    HW111444   3.682   3.826   4.995
 3708SOL    HW211445   3.689   3.905   4.852
 3709SOL     OW11446   2.290   4.148   4.244
 3709SOL    HW111447   2.320   4.076   4.182
 3709SOL    HW211448   2.251   4.108   4.327
 3710SOL     OW11449   3.567   5.211   4.828
 3710SOL    HW111450   3.474   5.186   4.801
 3710SOL    HW211451   3.593   5.161   4.910
 3711SOL     OW11452   2.179   4.271   5.004
 3711SOL    HW111453   2.217   4.212   5.076
 3711SOL    HW211454   2.219   4.245   4.916
 3712SOL     OW11455   2.674   5.310   4.411
 3712SOL    HW111456   2.706   5.320   4.317
 3712SOL    HW211457   2.595   5.248   4.413
 3713SOL     OW11458   3.286   3.938   4.836
 3713SOL    HW111459   3.338   3.873   4.891
 3713SOL    HW211460   3.237   4.001   4.897
 3714SOL     OW11461   2.863   3.758   4.878
 3714SOL    HW111462   2.800   3.686   4.847
 3714SOL    HW211463   2.956   3.722   4.878
 3715SOL     OW11464   2.632   5.054   4.025
 3715SOL    HW111465   2.586   4.967   4.042
 3715SOL    HW211466   2.723   5.051   4.066
 3716SOL     OW11467   2.480   5.291   5.008
 3716SOL    HW111468   2.475   5.373   5.065
 3716SOL    HW211469   2.569   5.288   4.963
 3717SOL     OW11470   3.214   3.776   3.892
 3717SOL    HW111471   3.249   3.735   3.808
 3717SOL    HW211472   3.124   3.738   3.912
 3718SOL     OW11473   3.162   4.177   4.415
 3718SOL    HW111474   3.103   4.257   4.419
 3718SOL    HW211475   3.177   4.142   4.508
 3719SOL     OW11476   3.455   3.945   4.606
 3719SOL    HW111477   3.371   3.944   4.660
 3719SOL    HW211478   3.457   4.028   4.550
 3720SOL     OW11479   1.901   4.801   4.024
 3720SOL    HW111480   2.000   4.790   4.015
 3720SOL    HW211481   1.861   4.715   4.056
 3721SOL     OW11482   2.737   5.370   4.061
 3721SOL    HW111483   2.660   5.335   4.007
 3721SOL    HW211484   2.705   5.441   4.123
 3722SOL     OW11485   3.954   0.628   0.113
 3722SOL    HW111486   3.861   0.626   0.150
 3722SOL    HW211487   3.955   0.589   0.021
 3723SOL     OW11488   3.949   0.275   0.996
 3723SOL    HW111489   3.984   0.258   1.088
 3723SOL    HW211490   3.861   0.230   0.984
 3724SOL     OW11491   3.743   0.368   0.647
 3724SOL    HW111492   3.661   0.411   0.686
 3724SOL    HW211493   3.715   0.295   0.584
 3725SOL     OW11494   4.293   1.275   1.165
 3725SOL    HW111495   4.200   1.268   1.128
 3725SOL    HW211496   4.304   1.364   1.209
 3726SOL     OW11497   5.279   1.511   0.703
 3726SOL    HW111498   5.222   1.495   0.784
 3726SOL    HW211499   5.220   1.521   0.623
 3727SOL     OW11500   4.859   0.703   0.717
 3727SOL    HW111501   4.916   0.781   0.692
 3727SOL    HW211502   4.799   0.729   0.793
 3728SOL     OW11503   5.479   0.607   0.231
 3728SOL    HW111504   5.467   0.594   0.132
 3728SOL    HW211505   5.449   0.526   0.280
 3729SOL     OW11506   4.492   1.144   1.023
 3729SOL    HW111507   4.414   1.161   1.083
 3729SOL    HW211508   4.526   1.231   0.987
 3730SOL     OW11509   4.574   0.798   1.823
 3730SOL    HW111510   4.570   0.874   1.888
 3730SOL    HW211511   4.596   0.834   1.732
 3731SOL     OW11512   4.409   1.012   0.665
 3731SOL    HW111513   4.478   0.996   0.735
 3731SOL    HW211514   4.336   1.069   0.703
 3732SOL     OW11515   4.410   1.161   1.803
 3732SOL    HW111516   4.470   1.240   1.817
 3732SOL    HW211517   4.324   1.192   1.762
 3733SOL     OW11518   4.059   1.435   1.061
 3733SOL    HW111519   3.981   1.404   1.008
 3733SOL    HW211520   4.117   1.493   1.004
 3734SOL     OW11521   5.184   1.505   1.339
 3734SOL    HW111522   5.208   1.599   1.365
 3734SOL    HW211523   5.168   1.451   1.421
 3735SOL     OW11524   4.162   0.392   1.499
 3735SOL    HW111525   4.244   0.336   1.508
 3735SOL    HW211526   4.081   0.334   1.503
 3736SOL     OW11527   5.327   0.447   0.737
 3736SOL    HW111528   5.253   0.493   0.687
 3736SOL    HW211529   5.378   0.515   0.790
 3737SOL     OW11530   3.955   1.713   0.483
 3737SOL    HW111531   3.989   1.790   0.537
 3737SOL    HW211532   3.999   1.713   0.393
 3738SOL     OW11533   4.851   1.341   1.690
 3738SOL    HW111534   4.898   1.341   1.778
 3738SOL    HW211535   4.803   1.254   1.679
 3739SOL     OW11536   3.954   1.434   0.538
 3739SOL    HW111537   3.928   1.530   0.538
 3739SOL    HW211538   3.883   1.380   0.583
 3740SOL     OW11539   3.964   1.091   0.886
 3740SOL    HW111540   3.978   1.007   0.938
 3740SOL    HW211541   3.909   1.155   0.941
 3741SOL     OW11542   4.344   1.786   1.439
 3741SOL    HW111543   4.252   1.769   1.474
 3741SOL    HW211544   4.372   1.878   1.465
 3742SOL     OW11545   4.330   0.964   0.123
 3742SOL    HW111546   4.337   1.048   0.069
 3742SOL    HW211547   4.376   0.977   0.211
 3743SOL     OW11548   5.318   0.114   1.480
 3743SOL    HW111549   5.300   0.181   1.408
 3743SOL    HW211550   5.315   0.160   1.569
 3744SOL     OW11551   3.846   0.643   0.563
 3744SOL    HW111552   3.801   0.555   0.580
 3744SOL    HW211553   3.845   0.697   0.647
 3745SOL     OW11554   5.566   1.767   0.359
 3745SOL    HW111555   5.620   1.738   0.439
 3745SOL    HW211556   5.596   1.857   0.330
 3746SOL     OW11557   3.751   1.596   0.117
 3746SOL    HW111558   3.732   1.500   0.138
 3746SOL    HW211559   3.718   1.654   0.192
 3747SOL     OW11560   5.413   0.922   0.612
 3747SOL    HW111561   5.508   0.893   0.620
 3747SOL    HW211562   5.405   0.987   0.537
 3748SOL     OW11563   5.365   1.108   0.432
 3748SOL    HW111564   5.451   1.110   0.380
 3748SOL    HW211565   5.379   1.155   0.520
 3749SOL     OW11566   3.837   0.737   1.597
 3749SOL    HW111567   3.925   0.724   1.642
 3749SOL    HW211568   3.824   0.834   1.575
 3750SOL     OW11569   4.337   1.365   0.726
 3750SOL    HW111570   4.288   1.278   0.735
 3750SOL    HW211571   4.314   1.408   0.639
 3751SOL     OW11572   5.017   1.228   1.423
 3751SOL    HW111573   5.054   1.155   1.365
 3751SOL    HW211574   5.069   1.233   1.508
 3752SOL     OW11575   4.533   0.004   0.502
 3752SOL    HW111576   4.573   0.095   0.493
 3752SOL    HW211577   4.433   0.012   0.508
 3753SOL     OW11578   3.921   0.976   1.264
 3753SOL    HW111579   4.010   0.931   1.250
 3753SOL    HW211580   3.848   0.911   1.245
 3754SOL     OW11581   5.249   0.999   0.190
 3754SOL    HW111582   5.186   0.923   0.203
 3754SOL    HW211583   5.297   1.017   0.276
 3755SOL     OW11584   4.911   1.792   1.616
 3755SOL    HW111585   4.935   1.852   1.540
 3755SOL    HW211586   4.918   1.697   1.586
 3756SOL     OW11587   4.041   0.251   1.801
 3756SOL    HW111588   4.112   0.322   1.807
 3756SOL    HW211589   3.953   0.290   1.829
 3757SOL     OW11590   5.190   1.417   0.953
 3757SOL    HW111591   5.131   1.423   1.033
 3757SOL    HW211592   5.175   1.329   0.907
 3758SOL     OW11593   5.391   1.714   0.572
 3758SOL    HW111594   5.350   1.691   0.484
 3758SOL    HW211595   5.373   1.640   0.637
 3759SOL     OW11596   4.322   0.729   0.270
 3759SOL    HW111597   4.346   0.798   0.202
 3759SOL    HW211598   4.244   0.762   0.324
 3760SOL     OW11599   5.005   0.345   0.944
 3760SOL    HW111600   4.919   0.295   0.931
 3760SOL    HW211601   5.067   0.291   1.000
 3761SOL     OW11602   5.300   1.662   0.307
 3761SOL    HW111603   5.389   1.708   0.310
 3761SOL    HW211604   5.279   1.638   0.212
 3762SOL     OW11605   4.531   0.605   1.465
 3762SOL    HW111606   4.484   0.602   1.554
 3762SOL    HW211607   4.480   0.550   1.399
 3763SOL     OW11608   5.118   0.469   1.674
 3763SOL    HW111609   5.098   0.512   1.762
 3763SOL    HW211610   5.196   0.407   1.683
 3764SOL     OW11611   4.697   0.890   1.572
 3764SOL    HW111612   4.743   0.806   1.543
 3764SOL    HW211613   4.641   0.924   1.497
 3765SOL     OW11614   4.715   0.410   1.242
 3765SOL    HW111615   4.638   0.444   1.296
 3765SOL    HW211616   4.681   0.359   1.163
 3766SOL     OW11617   4.765   0.701   0.429
 3766SOL    HW111618   4.791   0.697   0.525
 3766SOL    HW211619   4.680   0.650   0.415
 3767SOL     OW11620   3.800   0.811   0.789
 3767SOL    HW111621   3.899   0.799   0.798
 3767SOL    HW211622   3.776   0.906   0.810
 3768SOL     OW11623   3.854   1.821   1.571
 3768SOL    HW111624   3.844   1.806   1.670
 3768SOL    HW211625   3.768   1.857   1.535
 3769SOL     OW11626   4.589   0.348   0.195
 3769SOL    HW111627   4.648   0.411   0.146
 3769SOL    HW211628   4.608   0.254   0.166
 3770SOL     OW11629   5.443   0.585   1.831
 3770SOL    HW111630   5.417   0.674   1.795
 3770SOL    HW211631   5.441   0.517   1.758
 3771SOL     OW11632   5.086   1.144   0.545
 3771SOL    HW111633   5.169   1.115   0.497
 3771SOL    HW211634   5.037   1.211   0.489
 3772SOL     OW11635   4.274   0.196   0.885
 3772SOL    HW111636   4.269   0.191   0.985
 3772SOL    HW211637   4.276   0.292   0.856
 3773SOL     OW11638   4.732   1.456   0.477
 3773SOL    HW111639   4.686   1.528   0.425
 3773SOL    HW211640   4.728   1.476   0.575
 3774SOL     OW11641   4.075   1.801   0.853
 3774SOL    HW111642   4.125   1.715   0.859
 3774SOL    HW211643   4.140   1.878   0.850
 3775SOL     OW11644   5.519   1.066   0.873
 3775SOL    HW111645   5.457   1.051   0.797
 3775SOL    HW211646   5.467   1.077   0.958
 3776SOL     OW11647   4.951   1.550   1.506
 3776SOL    HW111648   4.957   1.473   1.570
 3776SOL    HW211649   4.899   1.524   1.426
 3777SOL     OW11650   4.045   0.943   0.242
 3777SOL    HW111651   4.127   0.982   0.200
 3777SOL    HW211652   4.018   0.861   0.193
 3778SOL     OW11653   5.182   0.735   0.728
 3778SOL    HW111654   5.177   0.670   0.803
 3778SOL    HW211655   5.262   0.794   0.741
 3779SOL     OW11656   4.185   1.266   1.727
 3779SOL    HW111657   4.135   1.267   1.641
 3779SOL    HW211658   4.122   1.248   1.803
 3780SOL     OW11659   4.835   1.776   0.237
 3780SOL    HW111660   4.775   1.714   0.287
 3780SOL    HW211661   4.866   1.732   0.152
 3781SOL     OW11662   3.926   0.285   1.498
 3781SOL    HW111663   3.846   0.345   1.485
 3781SOL    HW211664   3.916   0.236   1.584
 3782SOL     OW11665   5.356   1.377   0.081
 3782SOL    HW111666   5.324   1.471   0.071
 3782SOL    HW211667   5.280   1.314   0.069
 3783SOL     OW11668   4.188   1.743   0.323
 3783SOL    HW111669   4.221   1.782   0.409
 3783SOL    HW211670   4.264   1.736   0.258
 3784SOL     OW11671   5.124   0.107   0.426
 3784SOL    HW111672   5.100   0.070   0.336
 3784SOL    HW211673   5.223   0.123   0.430
 3785SOL     OW11674   3.973   1.785   1.241
 3785SOL    HW111675   4.030   1.720   1.291
 3785SOL    HW211676   3.957   1.752   1.148
 3786SOL     OW11677   4.664   1.698   0.904
 3786SOL    HW111678   4.744   1.641   0.925
 3786SOL    HW211679   4.615   1.658   0.827
 3787SOL     OW11680   4.106   0.700   0.480
 3787SOL    HW111681   4.151   0.610   0.477
 3787SOL    HW211682   4.012   0.689   0.513
 3788SOL     OW11683   5.271   0.222   1.729
 3788SOL    HW111684   5.266   0.259   1.821
 3788SOL    HW211685   5.199   0.153   1.717
 3789SOL     OW11686   4.338   0.122   0.117
 3789SOL    HW111687   4.436   0.100   0.124
 3789SOL    HW211688   4.307   0.105   0.024
 3790SOL     OW11689   4.505   0.264   1.749
 3790SOL    HW111690   4.572   0.203   1.792
 3790SOL    HW211691   4.432   0.283   1.814
 3791SOL     OW11692   4.612   1.514   1.195
 3791SOL    HW111693   4.589   1.489   1.101
 3791SOL    HW211694   4.673   1.445   1.234
 3792SOL     OW11695   5.075   0.590   1.433
 3792SOL    HW111696   5.103   0.547   1.518
 3792SOL    HW211697   5.100   0.686   1.434
 3793SOL     OW11698   4.527   1.402   0.924
 3793SOL    HW111699   4.617   1.416   0.882
 3793SOL    HW211700   4.456   1.404   0.853
 3794SOL     OW11701   4.646   0.503   0.899
 3794SOL    HW111702   4.621   0.494   0.803
 3794SOL    HW211703   4.694   0.421   0.930
 3795SOL     OW11704   4.263   0.064   0.512
 3795SOL    HW111705   4.182   0.065   0.570
 3795SOL    HW211706   4.266   0.147   0.457
 3796SOL     OW11707   5.158   1.188   0.041
 3796SOL    HW111708   5.190   1.112   0.098
 3796SOL    HW211709   5.066   1.215   0.071
 3797SOL     OW11710   4.021   0.035   0.171
 3797SOL    HW111711   4.070   0.119   0.150
 3797SOL    HW211712   4.083  -0.030   0.216
 3798SOL     OW11713   4.659   0.236   0.480
 3798SOL    HW111714   4.611   0.277   0.402
 3798SOL    HW211715   4.758   0.234   0.461
 3799SOL     OW11716   4.800   0.683   1.464
 3799SOL    HW111717   4.720   0.622   1.467
 3799SOL    HW211718   4.881   0.630   1.440
 3800SOL     OW11719   4.951   1.570   0.793
 3800SOL    HW111720   4.972   1.644   0.728
 3800SOL    HW211721   5.019   1.570   0.866
 3801SOL     OW11722   4.183   1.152   0.741
 3801SOL    HW111723   4.112   1.125   0.806
 3801SOL    HW211724   4.157   1.124   0.648
 3802SOL     OW11725   4.995   1.797   0.591
 3802SOL    HW111726   5.039   1.861   0.527
 3802SOL    HW211727   4.945   1.849   0.661
 3803SOL     OW11728   4.756   0.549   0.016
 3803SOL    HW111729   4.715   0.631  -0.023
 3803SOL    HW211730   4.820   0.575   0.089
 3804SOL     OW11731   3.802   0.556   1.386
 3804SOL    HW111732   3.894   0.555   1.345
 3804SOL    HW211733   3.796   0.630   1.453
 3805SOL     OW11734   4.285   0.222   1.147
 3805SOL    HW111735   4.323   0.138   1.184
 3805SOL    HW211736   4.197   0.241   1.191
 3806SOL     OW11737   4.590   0.454   0.642
 3806SOL    HW111738   4.558   0.526   0.580
 3806SOL    HW211739   4.614   0.373   0.589
 3807SOL     OW11740   4.741   0.039   0.753
 3807SOL    HW111741   4.669   0.044   0.684
 3807SOL    HW211742   4.717  -0.030   0.822
 3808SOL     OW11743   5.153   1.173   0.867
 3808SOL    HW111744   5.098   1.089   0.860
 3808SOL    HW211745   5.179   1.202   0.775
 3809SOL     OW11746   5.190   0.590   0.992
 3809SOL    HW111747   5.160   0.495   0.999
 3809SOL    HW211748   5.263   0.606   1.058
 3810SOL     OW11749   5.581   0.833   0.377
 3810SOL    HW111750   5.623   0.769   0.441
 3810SOL    HW211751   5.543   0.782   0.299
 3811SOL     OW11752   4.212   1.385   0.174
 3811SOL    HW111753   4.125   1.370   0.221
 3811SOL    HW211754   4.195   1.411   0.079
 3812SOL     OW11755   5.388   1.280   0.657
 3812SOL    HW111756   5.487   1.288   0.671
 3812SOL    HW211757   5.343   1.364   0.688
 3813SOL     OW11758   5.114   0.575   0.078
 3813SOL    HW111759   5.060   0.554   0.159
 3813SOL    HW211760   5.205   0.534   0.087
 3814SOL     OW11761   4.251   0.256   0.328
 3814SOL    HW111762   4.278   0.197   0.253
 3814SOL    HW211763   4.251   0.351   0.297
 3815SOL     OW11764   5.478   1.223   1.588
 3815SOL    HW111765   5.569   1.184   1.575
 3815SOL    HW211766   5.486   1.319   1.612
 3816SOL     OW11767   4.788   1.347   1.340
 3816SOL    HW111768   4.708   1.324   1.395
 3816SOL    HW211769   4.871   1.321   1.389
 3817SOL     OW11770   5.316   1.629   1.625
 3817SOL    HW111771   5.343   1.663   1.535
 3817SOL    HW211772   5.395   1.591   1.671
 3818SOL     OW11773   4.835   1.195   1.100
 3818SOL    HW111774   4.795   1.239   1.181
 3818SOL    HW211775   4.794   1.232   1.017
 3819SOL     OW11776   5.362   1.099   1.079
 3819SOL    HW111777   5.367   1.180   1.138
 3819SOL    HW211778   5.276   1.101   1.028
 3820SOL     OW11779   4.639   0.089   1.402
 3820SOL    HW111780   4.664   0.069   1.307
 3820SOL    HW211781   4.711   0.145   1.444
 3821SOL     OW11782   4.704   1.116   1.719
 3821SOL    HW111783   4.605   1.122   1.729
 3821SOL    HW211784   4.727   1.036   1.663
 3822SOL     OW11785   4.429   1.050   0.368
 3822SOL    HW111786   4.415   1.057   0.467
 3822SOL    HW211787   4.513   0.999   0.350
 3823SOL     OW11788   4.134   0.813   1.251
 3823SOL    HW111789   4.220   0.825   1.301
 3823SOL    HW211790   4.092   0.726   1.278
 3824SOL     OW11791   4.998   0.386   1.262
 3824SOL    HW111792   5.019   0.460   1.326
 3824SOL    HW211793   4.909   0.403   1.219
 3825SOL     OW11794   3.788   1.564   1.331
 3825SOL    HW111795   3.742   1.646   1.297
 3825SOL    HW211796   3.886   1.583   1.340
 3826SOL     OW11797   4.091   1.100   0.501
 3826SOL    HW111798   4.084   1.183   0.445
 3826SOL    HW211799   4.095   1.020   0.441
 3827SOL     OW11800   4.290   0.537   0.865
 3827SOL    HW111801   4.302   0.603   0.791
 3827SOL    HW211802   4.336   0.571   0.948
 3828SOL     OW11803   4.976   1.348   0.388
 3828SOL    HW111804   5.026   1.425   0.428
 3828SOL    HW211805   4.881   1.350   0.420
 3829SOL     OW11806   4.996   1.445   1.142
 3829SOL    HW111807   5.043   1.458   1.229
 3829SOL    HW211808   4.930   1.371   1.151
 3830SOL     OW11809   5.306   0.639   0.472
 3830SOL    HW111810   5.275   0.700   0.545
 3830SOL    HW211811   5.356   0.691   0.403
 3831SOL     OW11812   4.078   1.510   1.329
 3831SOL    HW111813   4.057   1.466   1.242
 3831SOL    HW211814   4.175   1.536   1.332
 3832SOL     OW11815   4.126   0.751   1.598
 3832SOL    HW111816   4.194   0.806   1.551
 3832SOL    HW211817   4.166   0.663   1.625
 3833SOL     OW11818   5.311   0.779   1.670
 3833SOL    HW111819   5.219   0.817   1.665
 3833SOL    HW211820   5.371   0.826   1.605
 3834SOL     OW11821   4.737   0.105   1.770
 3834SOL    HW111822   4.743   0.190   1.718
 3834SOL    HW211823   4.769   0.029   1.713
 3835SOL     OW11824   4.228   0.050   1.740
 3835SOL    HW111825   4.186  -0.007   1.670
 3835SOL    HW211826   4.162   0.119   1.772
 3836SOL     OW11827   4.297   0.870   1.029
 3836SOL    HW111828   4.341   0.959   1.020
 3836SOL    HW211829   4.234   0.870   1.106
 3837SOL     OW11830   5.084   0.862   1.045
 3837SOL    HW111831   5.009   0.862   0.979
 3837SOL    HW211832   5.121   0.770   1.054
 3838SOL     OW11833   4.933   0.525   0.275
 3838SOL    HW111834   4.946   0.441   0.329
 3838SOL    HW211835   4.904   0.599   0.335
 3839SOL     OW11836   4.031   0.213   1.231
 3839SOL    HW111837   4.008   0.250   1.321
 3839SOL    HW211838   4.001   0.118   1.225
 3840SOL     OW11839   3.761   1.310   1.282
 3840SOL    HW111840   3.814   1.261   1.350
 3840SOL    HW211841   3.783   1.408   1.287
 3841SOL     OW11842   4.456   0.634   1.064
 3841SOL    HW111843   4.515   0.608   0.988
 3841SOL    HW211844   4.428   0.730   1.053
 3842SOL     OW11845   5.452   0.935   1.854
 3842SOL    HW111846   5.406   0.928   1.765
 3842SOL    HW211847   5.390   0.979   1.920
 3843SOL     OW11848   4.031   0.063   0.618
 3843SOL    HW111849   4.020   0.157   0.651
 3843SOL    HW211850   4.026   0.000   0.695
 3844SOL     OW11851   5.346   0.367   0.374
 3844SOL    HW111852   5.348   0.291   0.438
 3844SOL    HW211853   5.298   0.444   0.414
 3845SOL     OW11854   4.747   0.766   0.966
 3845SOL    HW111855   4.762   0.787   1.062
 3845SOL    HW211856   4.717   0.671   0.957
 3846SOL     OW11857   4.704   1.573   1.700
 3846SOL    HW111858   4.684   1.617   1.612
 3846SOL    HW211859   4.743   1.482   1.684
 3847SOL     OW11860   5.583   1.518   1.605
 3847SOL    HW111861   5.597   1.545   1.510
 3847SOL    HW211862   5.666   1.540   1.658
 3848SOL     OW11863   4.074   0.898   1.804
 3848SOL    HW111864   4.150   0.942   1.852
 3848SOL    HW211865   4.109   0.851   1.722
 3849SOL     OW11866   5.264   0.274   0.125
 3849SOL    HW111867   5.203   0.199   0.148
 3849SOL    HW211868   5.286   0.326   0.208
 3850SOL     OW11869   5.027   0.838   0.042
 3850SOL    HW111870   5.061   0.745   0.057
 3850SOL    HW211871   5.045   0.865  -0.053
 3851SOL     OW11872   4.792   1.333   0.849
 3851SOL    HW111873   4.799   1.249   0.794
 3851SOL    HW211874   4.854   1.402   0.813
 3852SOL     OW11875   4.043   0.810   0.949
 3852SOL    HW111876   4.136   0.846   0.954
 3852SOL    HW211877   4.037   0.725   1.001
 3853SOL     OW11878   4.063   0.509   1.006
 3853SOL    HW111879   4.011   0.426   0.989
 3853SOL    HW211880   4.140   0.514   0.942
 3854SOL     OW11881   4.862   0.380   1.678
 3854SOL    HW111882   4.817   0.443   1.742
 3854SOL    HW211883   4.955   0.411   1.661
 3855SOL     OW11884   4.884   0.207   1.477
 3855SOL    HW111885   4.884   0.271   1.554
 3855SOL    HW211886   4.912   0.255   1.394
 3856SOL     OW11887   3.732   1.326   0.200
 3856SOL    HW111888   3.639   1.347   0.169
 3856SOL    HW211889   3.742   1.227   0.213
 3857SOL     OW11890   3.812   1.801   0.927
 3857SOL    HW111891   3.770   1.715   0.900
 3857SOL    HW211892   3.906   1.804   0.893
 3858SOL     OW11893   4.228   1.568   0.910
 3858SOL    HW111894   4.294   1.642   0.919
 3858SOL    HW211895   4.272   1.489   0.868
 3859SOL     OW11896   4.726   0.796   1.238
 3859SOL    HW111897   4.767   0.764   1.324
 3859SOL    HW211898   4.630   0.769   1.235
 3860SOL     OW11899   3.764   0.544   1.114
 3860SOL    HW111900   3.849   0.511   1.073
 3860SOL    HW211901   3.777   0.559   1.212
 3861SOL     OW11902   3.913   0.520   1.722
 3861SOL    HW111903   3.972   0.480   1.652
 3861SOL    HW211904   3.855   0.591   1.681
 3862SOL     OW11905   5.093   0.950   1.660
 3862SOL    HW111906   5.132   1.039   1.680
 3862SOL    HW211907   5.103   0.930   1.563
 3863SOL     OW11908   4.539   0.572   0.325
 3863SOL    HW111909   4.546   0.483   0.279
 3863SOL    HW211910   4.445   0.606   0.317
 3864SOL     OW11911   5.381   0.604   1.206
 3864SOL    HW111912   5.343   0.535   1.268
 3864SOL    HW211913   5.463   0.568   1.162
 3865SOL     OW11914   3.976   1.564   1.744
 3865SOL    HW111915   3.946   1.621   1.820
 3865SOL    HW211916   3.969   1.467   1.770
 3866SOL     OW11917   4.395   0.464   1.269
 3866SOL    HW111918   4.361   0.375   1.239
 3866SOL    HW211919   4.421   0.518   1.189
 3867SOL     OW11920   4.654   1.678   1.465
 3867SOL    HW111921   4.630   1.660   1.370
 3867SOL    HW211922   4.684   1.772   1.475
 3868SOL     OW11923   4.197   0.500   0.191
 3868SOL    HW111924   4.258   0.580   0.195
 3868SOL    HW211925   4.102   0.531   0.198
 3869SOL     OW11926   3.883   1.137   1.466
 3869SOL    HW111927   3.905   1.076   1.542
 3869SOL    HW211928   3.893   1.088   1.380
 3870SOL     OW11929   5.071   1.059   1.234
 3870SOL    HW111930   5.095   0.996   1.160
 3870SOL    HW211931   4.981   1.099   1.216
 3871SOL     OW11932   5.026   0.855   0.309
 3871SOL    HW111933   4.940   0.824   0.351
 3871SOL    HW211934   5.022   0.841   0.210
 3872SOL     OW11935   5.483   1.747   1.154
 3872SOL    HW111936   5.544   1.777   1.081
 3872SOL    HW211937   5.445   1.658   1.132
 3873SOL     OW11938   4.976   1.731   1.128
 3873SOL    HW111939   5.060   1.736   1.074
 3873SOL    HW211940   4.953   1.635   1.146
 3874SOL     OW11941   3.807   1.258   1.022
 3874SOL    HW111942   3.802   1.257   1.122
 3874SOL    HW211943   3.724   1.217   0.984
 3875SOL     OW11944   4.412   1.662   1.716
 3875SOL    HW111945   4.356   1.743   1.725
 3875SOL    HW211946   4.464   1.666   1.630
 3876SOL     OW11947   4.627   0.086   0.133
 3876SOL    HW111948   4.678   0.087   0.047
 3876SOL    HW211949   4.683   0.044   0.204
 3877SOL     OW11950   5.450   0.135   0.523
 3877SOL    HW111951   5.523   0.118   0.456
 3877SOL    HW211952   5.419   0.048   0.561
 3878SOL     OW11953   5.112   1.573   0.477
 3878SOL    HW111954   5.179   1.585   0.403
 3878SOL    HW211955   5.072   1.662   0.500
 3879SOL     OW11956   3.854   1.794   1.851
 3879SOL    HW111957   3.813   1.720   1.904
 3879SOL    HW211958   3.918   1.845   1.909
 3880SOL     OW11959   5.004   0.927   0.672
 3880SOL    HW111960   5.064   0.846   0.674
 3880SOL    HW211961   5.044   0.996   0.612
 3881SOL     OW11962   4.554   1.273   1.422
 3881SOL    HW111963   4.549   1.306   1.517
 3881SOL    HW211964   4.468   1.292   1.376
 3882SOL     OW11965   4.396   1.616   0.154
 3882SOL    HW111966   4.405   1.626   0.055
 3882SOL    HW211967   4.356   1.527   0.175
 3883SOL     OW11968   5.374   1.720   1.394
 3883SOL    HW111969   5.427   1.730   1.310
 3883SOL    HW211970   5.347   1.810   1.428
 3884SOL     OW11971   5.565   0.175   0.963
 3884SOL    HW111972   5.604   0.090   0.927
 3884SOL    HW211973   5.467   0.177   0.944
 3885SOL     OW11974   3.987   0.326   0.720
 3885SOL    HW111975   3.908   0.377   0.686
 3885SOL    HW211976   3.978   0.311   0.818
 3886SOL     OW11977   4.918   1.612   0.031
 3886SOL    HW111978   4.924   1.519   0.068
 3886SOL    HW211979   4.859   1.612  -0.049
 3887SOL     OW11980   4.546   1.002   1.372
 3887SOL    HW111981   4.586   1.001   1.280
 3887SOL    HW211982   4.556   1.094   1.412
 3888SOL     OW11983   4.640   0.910   0.291
 3888SOL    HW111984   4.703   0.948   0.223
 3888SOL    HW211985   4.680   0.827   0.330
 3889SOL     OW11986   5.228   1.607   0.044
 3889SOL    HW111987   5.136   1.644   0.051
 3889SOL    HW211988   5.266   1.627  -0.046
 3890SOL     OW11989   4.096   1.288   1.490
 3890SOL    HW111990   4.083   1.381   1.456
 3890SOL    HW211991   4.012   1.236   1.477
 3891SOL     OW11992   5.338   1.292   1.289
 3891SOL    HW111993   5.398   1.295   1.369
 3891SOL    HW211994   5.263   1.356   1.302
 3892SOL     OW11995   4.763   1.098   0.696
 3892SOL    HW111996   4.693   1.051   0.750
 3892SOL    HW211997   4.822   1.030   0.653
 3893SOL     OW11998   4.738   0.236   0.971
 3893SOL    HW111999   4.730   0.200   0.878
 3893SOL    HW212000   4.736   0.160   1.036
 3894SOL     OW12001   4.314   1.487   0.491
 3894SOL    HW112002   4.356   1.429   0.421
 3894SOL    HW212003   4.270   1.566   0.447
 3895SOL     OW12004   5.433   0.385   1.381
 3895SOL    HW112005   5.506   0.454   1.385
 3895SOL    HW212006   5.461   0.310   1.322
 3896SOL     OW12007   3.979   1.348   0.290
 3896SOL    HW112008   3.883   1.349   0.263
 3896SOL    HW212009   3.991   1.401   0.374
 3897SOL     OW12010   3.829   1.013   1.726
 3897SOL    HW112011   3.752   0.980   1.780
 3897SOL    HW212012   3.914   0.983   1.768
 3898SOL     OW12013   4.396   0.203   1.489
 3898SOL    HW112014   4.486   0.187   1.449
 3898SOL    HW212015   4.404   0.208   1.588
 3899SOL     OW12016   3.799   0.345   0.033
 3899SOL    HW112017   3.707   0.317   0.004
 3899SOL    HW212018   3.830   0.422  -0.023
 3900SOL     OW12019   5.164   0.856   1.398
 3900SOL    HW112020   5.107   0.908   1.335
 3900SOL    HW212021   5.260   0.868   1.374
 3901SOL     OW12022   3.796   0.166   0.318
 3901SOL    HW112023   3.779   0.249   0.264
 3901SOL    HW212024   3.886   0.129   0.296
 3902SOL     OW12025   4.907   1.335   0.119
 3902SOL    HW112026   4.808   1.324   0.121
 3902SOL    HW212027   4.941   1.350   0.212
 3903SOL     OW12028   4.337   0.842   1.431
 3903SOL    HW112029   4.393   0.923   1.414
 3903SOL    HW212030   4.396   0.762   1.434
 3904SOL     OW12031   5.217   1.767   0.959
 3904SOL    HW112032   5.250   1.831   0.890
 3904SOL    HW212033   5.283   1.761   1.034
 3905SOL     OW12034   4.440   0.565   1.708
 3905SOL    HW112035   4.459   0.630   1.782
 3905SOL    HW212036   4.500   0.485   1.717
 3906SOL     OW12037   5.174   1.220   1.633
 3906SOL    HW112038   5.165   1.210   1.732
 3906SOL    HW212039   5.270   1.213   1.607
 3907SOL     OW12040   4.114   1.741   1.560
 3907SOL    HW112041   4.023   1.782   1.558
 3907SOL    HW212042   4.107   1.647   1.592
 3908SOL     OW12043   5.398   0.883   1.254
 3908SOL    HW112044   5.371   0.794   1.217
 3908SOL    HW212045   5.399   0.951   1.181
 3909SOL     OW12046   4.949   0.325   0.449
 3909SOL    HW112047   5.014   0.251   0.438
 3909SOL    HW212048   4.969   0.375   0.533
 3910SOL     OW12049   4.318   0.745   0.652
 3910SOL    HW112050   4.368   0.830   0.633
 3910SOL    HW212051   4.230   0.747   0.604
 3911SOL     OW12052   5.501   0.342   1.642
 3911SOL    HW112053   5.484   0.373   1.548
 3911SOL    HW212054   5.417   0.305   1.680
 3912SOL     OW12055   5.454   0.934   1.517
 3912SOL    HW112056   5.492   1.025   1.532
 3912SOL    HW212057   5.446   0.917   1.418
 3913SOL     OW12058   4.583   1.374   0.016
 3913SOL    HW112059   4.537   1.389   0.104
 3913SOL    HW212060   4.627   1.459  -0.014
 3914SOL     OW12061   4.385   1.790   0.953
 3914SOL    HW112062   4.339   1.878   0.940
 3914SOL    HW212063   4.484   1.802   0.946
 3915SOL     OW12064   4.583   0.956   0.861
 3915SOL    HW112065   4.637   0.887   0.909
 3915SOL    HW212066   4.551   1.025   0.927
 3916SOL     OW12067   4.807   0.984   0.087
 3916SOL    HW112068   4.784   1.037   0.005
 3916SOL    HW212069   4.888   0.928   0.068
 3917SOL     OW12070   5.585   1.569   0.851
 3917SOL    HW112071   5.514   1.557   0.781
 3917SOL    HW212072   5.586   1.490   0.911
 3918SOL     OW12073   3.945   1.314   1.844
 3918SOL    HW112074   3.880   1.241   1.823
 3918SOL    HW212075   3.949   1.328   1.942
 3919SOL     OW12076   3.803   1.240   0.653
 3919SOL    HW112077   3.802   1.193   0.741
 3919SOL    HW212078   3.885   1.212   0.602
 3920SOL     OW12079   4.396   1.391   1.624
 3920SOL    HW112080   4.318   1.341   1.662
 3920SOL    HW212081   4.393   1.486   1.655
 3921SOL     OW12082   5.548   0.192   1.227
 3921SOL    HW112083   5.544   0.102   1.271
 3921SOL    HW212084   5.551   0.181   1.128
 3922SOL     OW12085   4.152   0.424   0.520
 3922SOL    HW112086   4.182   0.352   0.458
 3922SOL    HW212087   4.113   0.384   0.603
 3923SOL     OW12088   5.429   1.487   1.104
 3923SOL    HW112089   5.336   1.462   1.077
 3923SOL    HW212090   5.455   1.437   1.186
 3924SOL     OW12091   4.041   0.547   1.280
 3924SOL    HW112092   4.079   0.488   1.352
 3924SOL    HW212093   4.081   0.521   1.192
 3925SOL     OW12094   4.536   1.586   0.687
 3925SOL    HW112095   4.568   1.596   0.593
 3925SOL    HW212096   4.457   1.524   0.689
 3926SOL     OW12097   5.148   0.214   1.112
 3926SOL    HW112098   5.200   0.149   1.167
 3926SOL    HW212099   5.099   0.277   1.173
 3927SOL     OW12100   4.725   0.034   1.154
 3927SOL    HW112101   4.662  -0.038   1.123
 3927SOL    HW212102   4.818  -0.002   1.154
 3928SOL     OW12103   4.494   1.330   0.301
 3928SOL    HW112104   4.448   1.243   0.318
 3928SOL    HW212105   4.585   1.327   0.342
 3929SOL     OW12106   4.342   1.567   1.284
 3929SOL    HW112107   4.337   1.649   1.341
 3929SOL    HW212108   4.431   1.564   1.239
 3930SOL     OW12109   5.076   0.052   0.168
 3930SOL    HW112110   5.111   0.011   0.084
 3930SOL    HW212111   4.986   0.014   0.188
 3931SOL     OW12112   5.024   0.453   0.691
 3931SOL    HW112113   4.965   0.533   0.695
 3931SOL    HW212114   5.039   0.418   0.784
 3932SOL     OW12115   5.317   0.221   0.882
 3932SOL    HW112116   5.233   0.220   0.936
 3932SOL    HW212117   5.319   0.304   0.826
 3933SOL     OW12118   3.763   1.077   0.300
 3933SOL    HW112119   3.862   1.066   0.291
 3933SOL    HW212120   3.723   0.991   0.332
 3934SOL     OW12121   4.599   1.646   0.337
 3934SOL    HW112122   4.522   1.611   0.283
 3934SOL    HW212123   4.567   1.717   0.399
 3935SOL     OW12124   3.954   0.628   1.975
 3935SOL    HW112125   3.861   0.626   2.012
 3935SOL    HW212126   3.955   0.589   1.883
 3936SOL     OW12127   3.949   0.275   2.858
 3936SOL    HW112128   3.984   0.258   2.950
 3936SOL    HW212129   3.861   0.230   2.846
 3937SOL     OW12130   3.743   0.368   2.509
 3937SOL    HW112131   3.661   0.411   2.548
 3937SOL    HW212132   3.715   0.295   2.446
 3938SOL     OW12133   4.293   1.275   3.027
 3938SOL    HW112134   4.200   1.268   2.990
 3938SOL    HW212135   4.304   1.364   3.071
 3939SOL     OW12136   5.279   1.511   2.565
 3939SOL    HW112137   5.222   1.495   2.646
 3939SOL    HW212138   5.220   1.521   2.485
 3940SOL     OW12139   4.859   0.703   2.579
 3940SOL    HW112140   4.916   0.781   2.554
 3940SOL    HW212141   4.799   0.729   2.655
 3941SOL     OW12142   5.479   0.607   2.093
 3941SOL    HW112143   5.467   0.594   1.994
 3941SOL    HW212144   5.449   0.526   2.142
 3942SOL     OW12145   4.492   1.144   2.885
 3942SOL    HW112146   4.414   1.161   2.945
 3942SOL    HW212147   4.526   1.231   2.849
 3943SOL     OW12148   4.574   0.798   3.685
 3943SOL    HW112149   4.570   0.874   3.750
 3943SOL    HW212150   4.596   0.834   3.594
 3944SOL     OW12151   4.409   1.012   2.527
 3944SOL    HW112152   4.478   0.996   2.597
 3944SOL    HW212153   4.336   1.069   2.565
 3945SOL     OW12154   4.410   1.161   3.665
 3945SOL    HW112155   4.470   1.240   3.679
 3945SOL    HW212156   4.324   1.192   3.624
 3946SOL     OW12157   4.059   1.435   2.923
 3946SOL    HW112158   3.981   1.404   2.870
 3946SOL    HW212159   4.117   1.493   2.866
 3947SOL     OW12160   5.184   1.505   3.201
 3947SOL    HW112161   5.208   1.599   3.227
 3947SOL    HW212162   5.168   1.451   3.283
 3948SOL     OW12163   4.162   0.392   3.361
 3948SOL    HW112164   4.244   0.336   3.370
 3948SOL    HW212165   4.081   0.334   3.365
 3949SOL     OW12166   5.327   0.447   2.599
 3949SOL    HW112167   5.253   0.493   2.549
 3949SOL    HW212168   5.378   0.515   2.652
 3950SOL     OW12169   3.955   1.713   2.345
 3950SOL    HW112170   3.989   1.790   2.399
 3950SOL    HW212171   3.999   1.713   2.255
 3951SOL     OW12172   4.851   1.341   3.552
 3951SOL    HW112173   4.898   1.341   3.640
 3951SOL    HW212174   4.803   1.254   3.541
 3952SOL     OW12175   3.954   1.434   2.400
 3952SOL    HW112176   3.928   1.530   2.400
 3952SOL    HW212177   3.883   1.380   2.445
 3953SOL     OW12178   3.964   1.091   2.748
 3953SOL    HW112179   3.978   1.007   2.800
 3953SOL    HW212180   3.909   1.155   2.803
 3954SOL     OW12181   4.344   1.786   3.301
 3954SOL    HW112182   4.252   1.769   3.336
 3954SOL    HW212183   4.372   1.878   3.327
 3955SOL     OW12184   4.330   0.964   1.985
 3955SOL    HW112185   4.337   1.048   1.931
 3955SOL    HW212186   4.376   0.977   2.073
 3956SOL     OW12187   5.318   0.114   3.342
 3956SOL    HW112188   5.300   0.181   3.270
 3956SOL    HW212189   5.315   0.160   3.431
 3957SOL     OW12190   3.846   0.643   2.425
 3957SOL    HW112191   3.801   0.555   2.442
 3957SOL    HW212192   3.845   0.697   2.509
 3958SOL     OW12193   5.566   1.767   2.221
 3958SOL    HW112194   5.620   1.738   2.301
 3958SOL    HW212195   5.596   1.857   2.192
 3959SOL     OW12196   3.751   1.596   1.979
 3959SOL    HW112197   3.732   1.500   2.000
 3959SOL    HW212198   3.718   1.654   2.054
 3960SOL     OW12199   5.413   0.922   2.474
 3960SOL    HW112200   5.508   0.893   2.482
 3960SOL    HW212201   5.405   0.987   2.399
 3961SOL     OW12202   5.365   1.108   2.294
 3961SOL    HW112203   5.451   1.110   2.242
 3961SOL    HW212204   5.379   1.155   2.382
 3962SOL     OW12205   3.837   0.737   3.459
 3962SOL    HW112206   3.925   0.724   3.504
 3962SOL    HW212207   3.824   0.834   3.437
 3963SOL     OW12208   4.337   1.365   2.588
 3963SOL    HW112209   4.288   1.278   2.597
 3963SOL    HW212210   4.314   1.408   2.501
 3964SOL     OW12211   5.017   1.228   3.285
 3964SOL    HW112212   5.054   1.155   3.227
 3964SOL    HW212213   5.069   1.233   3.370
 3965SOL     OW12214   4.533   0.004   2.364
 3965SOL    HW112215   4.573   0.095   2.355
 3965SOL    HW212216   4.433   0.012   2.370
 3966SOL     OW12217   3.921   0.976   3.126
 3966SOL    HW112218   4.010   0.931   3.112
 3966SOL    HW212219   3.848   0.911   3.107
 3967SOL     OW12220   5.249   0.999   2.052
 3967SOL    HW112221   5.186   0.923   2.065
 3967SOL    HW212222   5.297   1.017   2.138
 3968SOL     OW12223   4.911   1.792   3.478
 3968SOL    HW112224   4.935   1.852   3.402
 3968SOL    HW212225   4.918   1.697   3.448
 3969SOL     OW12226   4.041   0.251   3.663
 3969SOL    HW112227   4.112   0.322   3.669
 3969SOL    HW212228   3.953   0.290   3.691
 3970SOL     OW12229   5.190   1.417   2.815
 3970SOL    HW112230   5.131   1.423   2.895
 3970SOL    HW212231   5.175   1.329   2.769
 3971SOL     OW12232   5.391   1.714   2.434
 3971SOL    HW112233   5.350   1.691   2.346
 3971SOL    HW212234   5.373   1.640   2.499
 3972SOL     OW12235   4.322   0.729   2.132
 3972SOL    HW112236   4.346   0.798   2.064
 3972SOL    HW212237   4.244   0.762   2.186
 3973SOL     OW12238   5.005   0.345   2.806
 3973SOL    HW112239   4.919   0.295   2.793
 3973SOL    HW212240   5.067   0.291   2.862
 3974SOL     OW12241   5.300   1.662   2.169
 3974SOL    HW112242   5.389   1.708   2.172
 3974SOL    HW212243   5.279   1.638   2.074
 3975SOL     OW12244   4.531   0.605   3.327
 3975SOL    HW112245   4.484   0.602   3.416
 3975SOL    HW212246   4.480   0.550   3.261
 3976SOL     OW12247   5.118   0.469   3.536
 3976SOL    HW112248   5.098   0.512   3.624
 3976SOL    HW212249   5.196   0.407   3.545
 3977SOL     OW12250   4.697   0.890   3.434
 3977SOL    HW112251   4.743   0.806   3.405
 3977SOL    HW212252   4.641   0.924   3.359
 3978SOL     OW12253   4.715   0.410   3.104
 3978SOL    HW112254   4.638   0.444   3.158
 3978SOL    HW212255   4.681   0.359   3.025
 3979SOL     OW12256   4.765   0.701   2.291
 3979SOL    HW112257   4.791   0.697   2.387
 3979SOL    HW212258   4.680   0.650   2.277
 3980SOL     OW12259   3.800   0.811   2.651
 3980SOL    HW112260   3.899   0.799   2.660
 3980SOL    HW212261   3.776   0.906   2.672
 3981SOL     OW12262   3.854   1.821   3.433
 3981SOL    HW112263   3.844   1.806   3.532
 3981SOL    HW212264   3.768   1.857   3.397
 3982SOL     OW12265   4.589   0.348   2.057
 3982SOL    HW112266   4.648   0.411   2.008
 3982SOL    HW212267   4.608   0.254   2.028
 3983SOL     OW12268   5.443   0.585   3.693
 3983SOL    HW112269   5.417   0.674   3.657
 3983SOL    HW212270   5.441   0.517   3.620
 3984SOL     OW12271   5.086   1.144   2.407
 3984SOL    HW112272   5.169   1.115   2.359
 3984SOL    HW212273   5.037   1.211   2.351
 3985SOL     OW12274   4.274   0.196   2.747
 3985SOL    HW112275   4.269   0.191   2.847
 3985SOL    HW212276   4.276   0.292   2.718
 3986SOL     OW12277   4.732   1.456   2.339
 3986SOL    HW112278   4.686   1.528   2.287
 3986SOL    HW212279   4.728   1.476   2.437
 3987SOL     OW12280   4.075   1.801   2.715
 3987SOL    HW112281   4.125   1.715   2.721
 3987SOL    HW212282   4.140   1.878   2.712
 3988SOL     OW12283   5.519   1.066   2.735
 3988SOL    HW112284   5.457   1.051   2.659
 3988SOL    HW212285   5.467   1.077   2.820
 3989SOL     OW12286   4.951   1.550   3.368
 3989SOL    HW112287   4.957   1.473   3.432
 3989SOL    HW212288   4.899   1.524   3.288
 3990SOL     OW12289   4.045   0.943   2.104
 3990SOL    HW112290   4.127   0.982   2.062
 3990SOL    HW212291   4.018   0.861   2.055
 3991SOL     OW12292   5.182   0.735   2.590
 3991SOL    HW112293   5.177   0.670   2.665
 3991SOL    HW212294   5.262   0.794   2.603
 3992SOL     OW12295   4.185   1.266   3.589
 3992SOL    HW112296   4.135   1.267   3.503
 3992SOL    HW212297   4.122   1.248   3.665
 3993SOL     OW12298   4.835   1.776   2.099
 3993SOL    HW112299   4.775   1.714   2.149
 3993SOL    HW212300   4.866   1.732   2.014
 3994SOL     OW12301   3.926   0.285   3.360
 3994SOL    HW112302   3.846   0.345   3.347
 3994SOL    HW212303   3.916   0.236   3.446
 3995SOL     OW12304   5.356   1.377   1.943
 3995SOL    HW112305   5.324   1.471   1.933
 3995SOL    HW212306   5.280   1.314   1.931
 3996SOL     OW12307   4.188   1.743   2.185
 3996SOL    HW112308   4.221   1.782   2.271
 3996SOL    HW212309   4.264   1.736   2.120
 3997SOL     OW12310   5.124   0.107   2.288
 3997SOL    HW112311   5.100   0.070   2.198
 3997SOL    HW212312   5.223   0.123   2.292
 3998SOL     OW12313   3.973   1.785   3.103
 3998SOL    HW112314   4.030   1.720   3.153
 3998SOL    HW212315   3.957   1.752   3.010
 3999SOL     OW12316   4.664   1.698   2.766
 3999SOL    HW112317   4.744   1.641   2.787
 3999SOL    HW212318   4.615   1.658   2.689
 4000SOL     OW12319   4.106   0.700   2.342
 4000SOL    HW112320   4.151   0.610   2.339
 4000SOL    HW212321   4.012   0.689   2.375
 4001SOL     OW12322   5.271   0.222   3.591
 4001SOL    HW112323   5.266   0.259   3.683
 4001SOL    HW212324   5.199   0.153   3.579
 4002SOL     OW12325   4.338   0.122   1.979
 4002SOL    HW112326   4.436   0.100   1.986
 4002SOL    HW212327   4.307   0.105   1.886
 4003SOL     OW12328   4.505   0.264   3.611
 4003SOL    HW112329   4.572   0.203   3.654
 4003SOL    HW212330   4.432   0.283   3.676
 4004SOL     OW12331   4.612   1.514   3.057
 4004SOL    HW112332   4.589   1.489   2.963
 4004SOL    HW212333   4.673   1.445   3.096
 4005SOL     OW12334   5.075   0.590   3.295
 4005SOL    HW112335   5.103   0.547   3.380
 4005SOL    HW212336   5.100   0.686   3.296
 4006SOL     OW12337   4.527   1.402   2.786
 4006SOL    HW112338   4.617   1.416   2.744
 4006SOL    HW212339   4.456   1.404   2.715
 4007SOL     OW12340   4.646   0.503   2.761
 4007SOL    HW112341   4.621   0.494   2.665
 4007SOL    HW212342   4.694   0.421   2.792
 4008SOL     OW12343   4.263   0.064   2.374
 4008SOL    HW112344   4.182   0.065   2.432
 4008SOL    HW212345   4.266   0.147   2.319
 4009SOL     OW12346   5.158   1.188   1.903
 4009SOL    HW112347   5.190   1.112   1.960
 4009SOL    HW212348   5.066   1.215   1.933
 4010SOL     OW12349   4.021   0.035   2.033
 4010SOL    HW112350   4.070   0.119   2.012
 4010SOL    HW212351   4.083  -0.030   2.078
 4011SOL     OW12352   4.659   0.236   2.342
 4011SOL    HW112353   4.611   0.277   2.264
 4011SOL    HW212354   4.758   0.234   2.323
 4012SOL     OW12355   4.800   0.683   3.326
 4012SOL    HW112356   4.720   0.622   3.329
 4012SOL    HW212357   4.881   0.630   3.302
 4013SOL     OW12358   4.951   1.570   2.655
 4013SOL    HW112359   4.972   1.644   2.590
 4013SOL    HW212360   5.019   1.570   2.728
 4014SOL     OW12361   4.183   1.152   2.603
 4014SOL    HW112362   4.112   1.125   2.668
 4014SOL    HW212363   4.157   1.124   2.510
 4015SOL     OW12364   4.995   1.797   2.453
 4015SOL    HW112365   5.039   1.861   2.389
 4015SOL    HW212366   4.945   1.849   2.523
 4016SOL     OW12367   4.756   0.549   1.878
 4016SOL    HW112368   4.715   0.631   1.839
 4016SOL    HW212369   4.820   0.575   1.951
 4017SOL     OW12370   3.802   0.556   3.248
 4017SOL    HW112371   3.894   0.555   3.207
 4017SOL    HW212372   3.796   0.630   3.315
 4018SOL     OW12373   4.285   0.222   3.009
 4018SOL    HW112374   4.323   0.138   3.046
 4018SOL    HW212375   4.197   0.241   3.053
 4019SOL     OW12376   4.590   0.454   2.504
 4019SOL    HW112377   4.558   0.526   2.442
 4019SOL    HW212378   4.614   0.373   2.451
 4020SOL     OW12379   4.741   0.039   2.615
 4020SOL    HW112380   4.669   0.044   2.546
 4020SOL    HW212381   4.717  -0.030   2.684
 4021SOL     OW12382   5.153   1.173   2.729
 4021SOL    HW112383   5.098   1.089   2.722
 4021SOL    HW212384   5.179   1.202   2.637
 4022SOL     OW12385   5.190   0.590   2.854
 4022SOL    HW112386   5.160   0.495   2.861
 4022SOL    HW212387   5.263   0.606   2.920
 4023SOL     OW12388   5.581   0.833   2.239
 4023SOL    HW112389   5.623   0.769   2.303
 4023SOL    HW212390   5.543   0.782   2.161
 4024SOL     OW12391   4.212   1.385   2.036
 4024SOL    HW112392   4.125   1.370   2.083
 4024SOL    HW212393   4.195   1.411   1.941
 4025SOL     OW12394   5.388   1.280   2.519
 4025SOL    HW112395   5.487   1.288   2.533
 4025SOL    HW212396   5.343   1.364   2.550
 4026SOL     OW12397   5.114   0.575   1.940
 4026SOL    HW112398   5.060   0.554   2.021
 4026SOL    HW212399   5.205   0.534   1.949
 4027SOL     OW12400   4.251   0.256   2.190
 4027SOL    HW112401   4.278   0.197   2.115
 4027SOL    HW212402   4.251   0.351   2.159
 4028SOL     OW12403   5.478   1.223   3.450
 4028SOL    HW112404   5.569   1.184   3.437
 4028SOL    HW212405   5.486   1.319   3.474
 4029SOL     OW12406   4.788   1.347   3.202
 4029SOL    HW112407   4.708   1.324   3.257
 4029SOL    HW212408   4.871   1.321   3.251
 4030SOL     OW12409   5.316   1.629   3.487
 4030SOL    HW112410   5.343   1.663   3.397
 4030SOL    HW212411   5.395   1.591   3.533
 4031SOL     OW12412   4.835   1.195   2.962
 4031SOL    HW112413   4.795   1.239   3.043
 4031SOL    HW212414   4.794   1.232   2.879
 4032SOL     OW12415   5.362   1.099   2.941
 4032SOL    HW112416   5.367   1.180   3.000
 4032SOL    HW212417   5.276   1.101   2.890
 4033SOL     OW12418   4.639   0.089   3.264
 4033SOL    HW112419   4.664   0.069   3.169
 4033SOL    HW212420   4.711   0.145   3.306
 4034SOL     OW12421   4.704   1.116   3.581
 4034SOL    HW112422   4.605   1.122   3.591
 4034SOL    HW212423   4.727   1.036   3.525
 4035SOL     OW12424   4.429   1.050   2.230
 4035SOL    HW112425   4.415   1.057   2.329
 4035SOL    HW212426   4.513   0.999   2.212
 4036SOL     OW12427   4.134   0.813   3.113
 4036SOL    HW112428   4.220   0.825   3.163
 4036SOL    HW212429   4.092   0.726   3.140
 4037SOL     OW12430   4.998   0.386   3.124
 4037SOL    HW112431   5.019   0.460   3.188
 4037SOL    HW212432   4.909   0.403   3.081
 4038SOL     OW12433   3.788   1.564   3.193
 4038SOL    HW112434   3.742   1.646   3.159
 4038SOL    HW212435   3.886   1.583   3.202
 4039SOL     OW12436   4.091   1.100   2.363
 4039SOL    HW112437   4.084   1.183   2.307
 4039SOL    HW212438   4.095   1.020   2.303
 4040SOL     OW12439   4.290   0.537   2.727
 4040SOL    HW112440   4.302   0.603   2.653
 4040SOL    HW212441   4.336   0.571   2.810
 4041SOL     OW12442   4.976   1.348   2.250
 4041SOL    HW112443   5.026   1.425   2.290
 4041SOL    HW212444   4.881   1.350   2.282
 4042SOL     OW12445   4.996   1.445   3.004
 4042SOL    HW112446   5.043   1.458   3.091
 4042SOL    HW212447   4.930   1.371   3.013
 4043SOL     OW12448   5.306   0.639   2.334
 4043SOL    HW112449   5.275   0.700   2.407
 4043SOL    HW212450   5.356   0.691   2.265
 4044SOL     OW12451   4.078   1.510   3.191
 4044SOL    HW112452   4.057   1.466   3.104
 4044SOL    HW212453   4.175   1.536   3.194
 4045SOL     OW12454   4.126   0.751   3.460
 4045SOL    HW112455   4.194   0.806   3.413
 4045SOL    HW212456   4.166   0.663   3.487
 4046SOL     OW12457   5.311   0.779   3.532
 4046SOL    HW112458   5.219   0.817   3.527
 4046SOL    HW212459   5.371   0.826   3.467
 4047SOL     OW12460   4.737   0.105   3.632
 4047SOL    HW112461   4.743   0.190   3.580
 4047SOL    HW212462   4.769   0.029   3.575
 4048SOL     OW12463   4.228   0.050   3.602
 4048SOL    HW112464   4.186  -0.007   3.532
 4048SOL    HW212465   4.162   0.119   3.634
 4049SOL     OW12466   4.297   0.870   2.891
 4049SOL    HW112467   4.341   0.959   2.882
 4049SOL    HW212468   4.234   0.870   2.968
 4050SOL     OW12469   5.084   0.862   2.907
 4050SOL    HW112470   5.009   0.862   2.841
 4050SOL    HW212471   5.121   0.770   2.916
 4051SOL     OW12472   4.933   0.525   2.137
 4051SOL    HW112473   4.946   0.441   2.191
 4051SOL    HW212474   4.904   0.599   2.197
 4052SOL     OW12475   4.031   0.213   3.093
 4052SOL    HW112476   4.008   0.250   3.183
 4052SOL    HW212477   4.001   0.118   3.087
 4053SOL     OW12478   3.761   1.310   3.144
 4053SOL    HW112479   3.814   1.261   3.212
 4053SOL    HW212480   3.783   1.408   3.149
 4054SOL     OW12481   4.456   0.634   2.926
 4054SOL    HW112482   4.515   0.608   2.850
 4054SOL    HW212483   4.428   0.730   2.915
 4055SOL     OW12484   5.452   0.935   3.716
 4055SOL    HW112485   5.406   0.928   3.627
 4055SOL    HW212486   5.390   0.979   3.782
 4056SOL     OW12487   4.031   0.063   2.480
 4056SOL    HW112488   4.020   0.157   2.513
 4056SOL    HW212489   4.026   0.000   2.557
 4057SOL     OW12490   5.346   0.367   2.236
 4057SOL    HW112491   5.348   0.291   2.300
 4057SOL    HW212492   5.298   0.444   2.276
 4058SOL     OW12493   4.747   0.766   2.828
 4058SOL    HW112494   4.762   0.787   2.924
 4058SOL    HW212495   4.717   0.671   2.819
 4059SOL     OW12496   4.704   1.573   3.562
 4059SOL    HW112497   4.684   1.617   3.474
 4059SOL    HW212498   4.743   1.482   3.546
 4060SOL     OW12499   5.583   1.518   3.467
 4060SOL    HW112500   5.597   1.545   3.372
 4060SOL    HW212501   5.666   1.540   3.520
 4061SOL     OW12502   4.074   0.898   3.666
 4061SOL    HW112503   4.150   0.942   3.714
 4061SOL    HW212504   4.109   0.851   3.584
 4062SOL     OW12505   5.264   0.274   1.987
 4062SOL    HW112506   5.203   0.199   2.010
 4062SOL    HW212507   5.286   0.326   2.070
 4063SOL     OW12508   5.027   0.838   1.904
 4063SOL    HW112509   5.061   0.745   1.919
 4063SOL    HW212510   5.045   0.865   1.809
 4064SOL     OW12511   4.792   1.333   2.711
 4064SOL    HW112512   4.799   1.249   2.656
 4064SOL    HW212513   4.854   1.402   2.675
 4065SOL     OW12514   4.043   0.810   2.811
 4065SOL    HW112515   4.136   0.846   2.816
 4065SOL    HW212516   4.037   0.725   2.863
 4066SOL     OW12517   4.063   0.509   2.868
 4066SOL    HW112518   4.011   0.426   2.851
 4066SOL    HW212519   4.140   0.514   2.804
 4067SOL     OW12520   4.862   0.380   3.540
 4067SOL    HW112521   4.817   0.443   3.604
 4067SOL    HW212522   4.955   0.411   3.523
 4068SOL     OW12523   4.884   0.207   3.339
 4068SOL    HW112524   4.884   0.271   3.416
 4068SOL    HW212525   4.912   0.255   3.256
 4069SOL     OW12526   3.732   1.326   2.062
 4069SOL    HW112527   3.639   1.347   2.031
 4069SOL    HW212528   3.742   1.227   2.075
 4070SOL     OW12529   3.812   1.801   2.789
 4070SOL    HW112530   3.770   1.715   2.762
 4070SOL    HW212531   3.906   1.804   2.755
 4071SOL     OW12532   4.228   1.568   2.772
 4071SOL    HW112533   4.294   1.642   2.781
 4071SOL    HW212534   4.272   1.489   2.730
 4072SOL     OW12535   4.726   0.796   3.100
 4072SOL    HW112536   4.767   0.764   3.186
 4072SOL    HW212537   4.630   0.769   3.097
 4073SOL     OW12538   3.764   0.544   2.976
 4073SOL    HW112539   3.849   0.511   2.935
 4073SOL    HW212540   3.777   0.559   3.074
 4074SOL     OW12541   3.913   0.520   3.584
 4074SOL    HW112542   3.972   0.480   3.514
 4074SOL    HW212543   3.855   0.591   3.543
 4075SOL     OW12544   5.093   0.950   3.522
 4075SOL    HW112545   5.132   1.039   3.542
 4075SOL    HW212546   5.103   0.930   3.425
 4076SOL     OW12547   4.539   0.572   2.187
 4076SOL    HW112548   4.546   0.483   2.141
 4076SOL    HW212549   4.445   0.606   2.179
 4077SOL     OW12550   5.381   0.604   3.068
 4077SOL    HW112551   5.343   0.535   3.130
 4077SOL    HW212552   5.463   0.568   3.024
 4078SOL     OW12553   3.976   1.564   3.606
 4078SOL    HW112554   3.946   1.621   3.682
 4078SOL    HW212555   3.969   1.467   3.632
 4079SOL     OW12556   4.395   0.464   3.131
 4079SOL    HW112557   4.361   0.375   3.101
 4079SOL    HW212558   4.421   0.518   3.051
 4080SOL     OW12559   4.654   1.678   3.327
 4080SOL    HW112560   4.630   1.660   3.232
 4080SOL    HW212561   4.684   1.772   3.337
 4081SOL     OW12562   4.197   0.500   2.053
 4081SOL    HW112563   4.258   0.580   2.057
 4081SOL    HW212564   4.102   0.531   2.060
 4082SOL     OW12565   3.883   1.137   3.328
 4082SOL    HW112566   3.905   1.076   3.404
 4082SOL    HW212567   3.893   1.088   3.242
 4083SOL     OW12568   5.071   1.059   3.096
 4083SOL    HW112569   5.095   0.996   3.022
 4083SOL    HW212570   4.981   1.099   3.078
 4084SOL     OW12571   5.026   0.855   2.171
 4084SOL    HW112572   4.940   0.824   2.213
 4084SOL    HW212573   5.022   0.841   2.072
 4085SOL     OW12574   5.483   1.747   3.016
 4085SOL    HW112575   5.544   1.777   2.943
 4085SOL    HW212576   5.445   1.658   2.994
 4086SOL     OW12577   4.976   1.731   2.990
 4086SOL    HW112578   5.060   1.736   2.936
 4086SOL    HW212579   4.953   1.635   3.008
 4087SOL     OW12580   3.807   1.258   2.884
 4087SOL    HW112581   3.802   1.257   2.984
 4087SOL    HW212582   3.724   1.217   2.846
 4088SOL     OW12583   4.412   1.662   3.578
 4088SOL    HW112584   4.356   1.743   3.587
 4088SOL    HW212585   4.464   1.666   3.492
 4089SOL     OW12586   5.450   0.135   2.385
 4089SOL    HW112587   5.523   0.118   2.318
 4089SOL    HW212588   5.419   0.048   2.423
 4090SOL     OW12589   5.112   1.573   2.339
 4090SOL    HW112590   5.179   1.585   2.265
 4090SOL    HW212591   5.072   1.662   2.362
 4091SOL     OW12592   3.854   1.794   3.713
 4091SOL    HW112593   3.813   1.720   3.766
 4091SOL    HW212594   3.918   1.845   3.771
 4092SOL     OW12595   5.004   0.927   2.534
 4092SOL    HW112596   5.064   0.846   2.536
 4092SOL    HW212597   5.044   0.996   2.474
 4093SOL     OW12598   4.554   1.273   3.284
 4093SOL    HW112599   4.549   1.306   3.379
 4093SOL    HW212600   4.468   1.292   3.238
 4094SOL     OW12601   4.396   1.616   2.016
 4094SOL    HW112602   4.405   1.626   1.917
 4094SOL    HW212603   4.356   1.527   2.037
 4095SOL     OW12604   5.374   1.720   3.256
 4095SOL    HW112605   5.427   1.730   3.172
 4095SOL    HW212606   5.347   1.810   3.290
 4096SOL     OW12607   5.565   0.175   2.825
 4096SOL    HW112608   5.604   0.090   2.789
 4096SOL    HW212609   5.467   0.177   2.806
 4097SOL     OW12610   3.987   0.326   2.582
 4097SOL    HW112611   3.908   0.377   2.548
 4097SOL    HW212612   3.978   0.311   2.680
 4098SOL     OW12613   4.918   1.612   1.893
 4098SOL    HW112614   4.924   1.519   1.930
 4098SOL    HW212615   4.859   1.612   1.813
 4099SOL     OW12616   4.546   1.002   3.234
 4099SOL    HW112617   4.586   1.001   3.142
 4099SOL    HW212618   4.556   1.094   3.274
 4100SOL     OW12619   4.640   0.910   2.153
 4100SOL    HW112620   4.703   0.948   2.085
 4100SOL    HW212621   4.680   0.827   2.192
 4101SOL     OW12622   5.228   1.607   1.906
 4101SOL    HW112623   5.136   1.644   1.913
 4101SOL    HW212624   5.266   1.627   1.816
 4102SOL     OW12625   4.096   1.288   3.352
 4102SOL    HW112626   4.083   1.381   3.318
 4102SOL    HW212627   4.012   1.236   3.339
 4103SOL     OW12628   5.338   1.292   3.151
 4103SOL    HW112629   5.398   1.295   3.231
 4103SOL    HW212630   5.263   1.356   3.164
 4104SOL     OW12631   4.763   1.098   2.558
 4104SOL    HW112632   4.693   1.051   2.612
 4104SOL    HW212633   4.822   1.030   2.515
 4105SOL     OW12634   4.738   0.236   2.833
 4105SOL    HW112635   4.730   0.200   2.740
 4105SOL    HW212636   4.736   0.160   2.898
 4106SOL     OW12637   4.314   1.487   2.353
 4106SOL    HW112638   4.356   1.429   2.283
 4106SOL    HW212639   4.270   1.566   2.309
 4107SOL     OW12640   5.433   0.385   3.243
 4107SOL    HW112641   5.506   0.454   3.247
 4107SOL    HW212642   5.461   0.310   3.184
 4108SOL     OW12643   3.979   1.348   2.152
 4108SOL    HW112644   3.883   1.349   2.125
 4108SOL    HW212645   3.991   1.401   2.236
 4109SOL     OW12646   3.829   1.013   3.588
 4109SOL    HW112647   3.752   0.980   3.642
 4109SOL    HW212648   3.914   0.983   3.630
 4110SOL     OW12649   4.396   0.203   3.351
 4110SOL    HW112650   4.486   0.187   3.311
 4110SOL    HW212651   4.404   0.208   3.450
 4111SOL     OW12652   3.799   0.345   1.895
 4111SOL    HW112653   3.707   0.317   1.866
 4111SOL    HW212654   3.830   0.422   1.839
 4112SOL     OW12655   5.164   0.856   3.260
 4112SOL    HW112656   5.107   0.908   3.197
 4112SOL    HW212657   5.260   0.868   3.236
 4113SOL     OW12658   3.796   0.166   2.180
 4113SOL    HW112659   3.779   0.249   2.126
 4113SOL    HW212660   3.886   0.129   2.158
 4114SOL     OW12661   4.907   1.335   1.981
 4114SOL    HW112662   4.808   1.324   1.983
 4114SOL    HW212663   4.941   1.350   2.074
 4115SOL     OW12664   4.337   0.842   3.293
 4115SOL    HW112665   4.393   0.923   3.276
 4115SOL    HW212666   4.396   0.762   3.296
 4116SOL     OW12667   5.217   1.767   2.821
 4116SOL    HW112668   5.250   1.831   2.752
 4116SOL    HW212669   5.283   1.761   2.896
 4117SOL     OW12670   4.440   0.565   3.570
 4117SOL    HW112671   4.459   0.630   3.644
 4117SOL    HW212672   4.500   0.485   3.579
 4118SOL     OW12673   5.174   1.220   3.495
 4118SOL    HW112674   5.165   1.210   3.594
 4118SOL    HW212675   5.270   1.213   3.469
 4119SOL     OW12676   4.114   1.741   3.422
 4119SOL    HW112677   4.023   1.782   3.420
 4119SOL    HW212678   4.107   1.647   3.454
 4120SOL     OW12679   5.398   0.883   3.116
 4120SOL    HW112680   5.371   0.794   3.079
 4120SOL    HW212681   5.399   0.951   3.043
 4121SOL     OW12682   4.949   0.325   2.311
 4121SOL    HW112683   5.014   0.251   2.300
 4121SOL    HW212684   4.969   0.375   2.395
 4122SOL     OW12685   4.318   0.745   2.514
 4122SOL    HW112686   4.368   0.830   2.495
 4122SOL    HW212687   4.230   0.747   2.466
 4123SOL     OW12688   5.501   0.342   3.504
 4123SOL    HW112689   5.484   0.373   3.410
 4123SOL    HW212690   5.417   0.305   3.542
 4124SOL     OW12691   5.454   0.934   3.379
 4124SOL    HW112692   5.492   1.025   3.394
 4124SOL    HW212693   5.446   0.917   3.280
 4125SOL     OW12694   4.583   1.374   1.878
 4125SOL    HW112695   4.537   1.389   1.966
 4125SOL    HW212696   4.627   1.459   1.848
 4126SOL     OW12697   4.385   1.790   2.815
 4126SOL    HW112698   4.339   1.878   2.802
 4126SOL    HW212699   4.484   1.802   2.808
 4127SOL     OW12700   4.583   0.956   2.723
 4127SOL    HW112701   4.637   0.887   2.771
 4127SOL    HW212702   4.551   1.025   2.789
 4128SOL     OW12703   4.807   0.984   1.949
 4128SOL    HW112704   4.784   1.037   1.867
 4128SOL    HW212705   4.888   0.928   1.930
 4129SOL     OW12706   5.585   1.569   2.713
 4129SOL    HW112707   5.514   1.557   2.643
 4129SOL    HW212708   5.586   1.490   2.773
 4130SOL     OW12709   3.945   1.314   3.706
 4130SOL    HW112710   3.880   1.241   3.685
 4130SOL    HW212711   3.949   1.328   3.804
 4131SOL     OW12712   3.803   1.240   2.515
 4131SOL    HW112713   3.802   1.193   2.603
 4131SOL    HW212714   3.885   1.212   2.464
 4132SOL     OW12715   4.396   1.391   3.486
 4132SOL    HW112716   4.318   1.341   3.524
 4132SOL    HW212717   4.393   1.486   3.517
 4133SOL     OW12718   5.548   0.192   3.089
 4133SOL    HW112719   5.544   0.102   3.133
 4133SOL    HW212720   5.551   0.181   2.990
 4134SOL     OW12721   4.152   0.424   2.382
 4134SOL    HW112722   4.182   0.352   2.320
 4134SOL    HW212723   4.113   0.384   2.465
 4135SOL     OW12724   5.429   1.487   2.966
 4135SOL    HW112725   5.336   1.462   2.939
 4135SOL    HW212726   5.455   1.437   3.048
 4136SOL     OW12727   4.041   0.547   3.142
 4136SOL    HW112728   4.079   0.488   3.214
 4136SOL    HW212729   4.081   0.521   3.054
 4137SOL     OW12730   4.536   1.586   2.549
 4137SOL    HW112731   4.568   1.596   2.455
 4137SOL    HW212732   4.457   1.524   2.551
 4138SOL     OW12733   5.148   0.214   2.974
 4138SOL    HW112734   5.200   0.149   3.029
 4138SOL    HW212735   5.099   0.277   3.035
 4139SOL     OW12736   4.725   0.034   3.016
 4139SOL    HW112737   4.662  -0.038   2.985
 4139SOL    HW212738   4.818  -0.002   3.016
 4140SOL     OW12739   4.494   1.330   2.163
 4140SOL    HW112740   4.448   1.243   2.180
 4140SOL    HW212741   4.585   1.327   2.204
 4141SOL     OW12742   4.342   1.567   3.146
 4141SOL    HW112743   4.337   1.649   3.203
 4141SOL    HW212744   4.431   1.564   3.101
 4142SOL     OW12745   5.076   0.052   2.030
 4142SOL    HW112746   5.111   0.011   1.946
 4142SOL    HW212747   4.986   0.014   2.050
 4143SOL     OW12748   5.024   0.453   2.553
 4143SOL    HW112749   4.965   0.533   2.557
 4143SOL    HW212750   5.039   0.418   2.646
 4144SOL     OW12751   5.317   0.221   2.744
 4144SOL    HW112752   5.233   0.220   2.798
 4144SOL    HW212753   5.319   0.304   2.688
 4145SOL     OW12754   3.763   1.077   2.162
 4145SOL    HW112755   3.862   1.066   2.153
 4145SOL    HW212756   3.723   0.991   2.194
 4146SOL     OW12757   4.599   1.646   2.199
 4146SOL    HW112758   4.522   1.611   2.145
 4146SOL    HW212759   4.567   1.717   2.261
 4147SOL     OW12760   3.954   0.628   3.837
 4147SOL    HW112761   3.861   0.626   3.874
 4147SOL    HW212762   3.955   0.589   3.745
 4148SOL     OW12763   3.949   0.275   4.720
 4148SOL    HW112764   3.984   0.258   4.812
 4148SOL    HW212765   3.861   0.230   4.708
 4149SOL     OW12766   3.743   0.368   4.371
 4149SOL    HW112767   3.661   0.411   4.410
 4149SOL    HW212768   3.715   0.295   4.308
 4150SOL     OW12769   4.293   1.275   4.889
 4150SOL    HW112770   4.200   1.268   4.852
 4150SOL    HW212771   4.304   1.364   4.933
 4151SOL     OW12772   5.279   1.511   4.427
 4151SOL    HW112773   5.222   1.495   4.508
 4151SOL    HW212774   5.220   1.521   4.347
 4152SOL     OW12775   4.859   0.703   4.441
 4152SOL    HW112776   4.916   0.781   4.416
 4152SOL    HW212777   4.799   0.729   4.517
 4153SOL     OW12778   5.479   0.607   3.955
 4153SOL    HW112779   5.467   0.594   3.856
 4153SOL    HW212780   5.449   0.526   4.004
 4154SOL     OW12781   4.492   1.144   4.747
 4154SOL    HW112782   4.414   1.161   4.807
 4154SOL    HW212783   4.526   1.231   4.711
 4155SOL     OW12784   4.574   0.798   5.547
 4155SOL    HW112785   4.570   0.874   5.612
 4155SOL    HW212786   4.596   0.834   5.456
 4156SOL     OW12787   4.409   1.012   4.389
 4156SOL    HW112788   4.478   0.996   4.459
 4156SOL    HW212789   4.336   1.069   4.427
 4157SOL     OW12790   4.410   1.161   5.527
 4157SOL    HW112791   4.470   1.240   5.541
 4157SOL    HW212792   4.324   1.192   5.486
 4158SOL     OW12793   4.059   1.435   4.785
 4158SOL    HW112794   3.981   1.404   4.732
 4158SOL    HW212795   4.117   1.493   4.728
 4159SOL     OW12796   5.184   1.505   5.063
 4159SOL    HW112797   5.208   1.599   5.089
 4159SOL    HW212798   5.168   1.451   5.145
 4160SOL     OW12799   4.162   0.392   5.223
 4160SOL    HW112800   4.244   0.336   5.232
 4160SOL    HW212801   4.081   0.334   5.227
 4161SOL     OW12802   5.327   0.447   4.461
 4161SOL    HW112803   5.253   0.493   4.411
 4161SOL    HW212804   5.378   0.515   4.514
 4162SOL     OW12805   3.955   1.713   4.207
 4162SOL    HW112806   3.989   1.790   4.261
 4162SOL    HW212807   3.999   1.713   4.117
 4163SOL     OW12808   4.851   1.341   5.414
 4163SOL    HW112809   4.898   1.341   5.502
 4163SOL    HW212810   4.803   1.254   5.403
 4164SOL     OW12811   3.954   1.434   4.262
 4164SOL    HW112812   3.928   1.530   4.262
 4164SOL    HW212813   3.883   1.380   4.307
 4165SOL     OW12814   3.964   1.091   4.610
 4165SOL    HW112815   3.978   1.007   4.662
 4165SOL    HW212816   3.909   1.155   4.665
 4166SOL     OW12817   4.344   1.786   5.163
 4166SOL    HW112818   4.252   1.769   5.198
 4166SOL    HW212819   4.372   1.878   5.189
 4167SOL     OW12820   4.330   0.964   3.847
 4167SOL    HW112821   4.337   1.048   3.793
 4167SOL    HW212822   4.376   0.977   3.935
 4168SOL     OW12823   5.318   0.114   5.204
 4168SOL    HW112824   5.300   0.181   5.132
 4168SOL    HW212825   5.315   0.160   5.293
 4169SOL     OW12826   3.846   0.643   4.287
 4169SOL    HW112827   3.801   0.555   4.304
 4169SOL    HW212828   3.845   0.697   4.371
 4170SOL     OW12829   5.566   1.767   4.083
 4170SOL    HW112830   5.620   1.738   4.163
 4170SOL    HW212831   5.596   1.857   4.054
 4171SOL     OW12832   3.751   1.596   3.841
 4171SOL    HW112833   3.732   1.500   3.862
 4171SOL    HW212834   3.718   1.654   3.916
 4172SOL     OW12835   5.413   0.922   4.336
 4172SOL    HW112836   5.508   0.893   4.344
 4172SOL    HW212837   5.405   0.987   4.261
 4173SOL     OW12838   5.365   1.108   4.156
 4173SOL    HW112839   5.451   1.110   4.104
 4173SOL    HW212840   5.379   1.155   4.244
 4174SOL     OW12841   3.837   0.737   5.321
 4174SOL    HW112842   3.925   0.724   5.366
 4174SOL    HW212843   3.824   0.834   5.299
 4175SOL     OW12844   4.337   1.365   4.450
 4175SOL    HW112845   4.288   1.278   4.459
 4175SOL    HW212846   4.314   1.408   4.363
 4176SOL     OW12847   5.017   1.228   5.147
 4176SOL    HW112848   5.054   1.155   5.089
 4176SOL    HW212849   5.069   1.233   5.232
 4177SOL     OW12850   4.533   0.004   4.226
 4177SOL    HW112851   4.573   0.095   4.217
 4177SOL    HW212852   4.433   0.012   4.232
 4178SOL     OW12853   3.921   0.976   4.988
 4178SOL    HW112854   4.010   0.931   4.974
 4178SOL    HW212855   3.848   0.911   4.969
 4179SOL     OW12856   5.249   0.999   3.914
 4179SOL    HW112857   5.186   0.923   3.927
 4179SOL    HW212858   5.297   1.017   4.000
 4180SOL     OW12859   4.911   1.792   5.340
 4180SOL    HW112860   4.935   1.852   5.264
 4180SOL    HW212861   4.918   1.697   5.310
 4181SOL     OW12862   4.041   0.251   5.525
 4181SOL    HW112863   4.112   0.322   5.531
 4181SOL    HW212864   3.953   0.290   5.553
 4182SOL     OW12865   5.190   1.417   4.677
 4182SOL    HW112866   5.131   1.423   4.757
 4182SOL    HW212867   5.175   1.329   4.631
 4183SOL     OW12868   5.391   1.714   4.296
 4183SOL    HW112869   5.350   1.691   4.208
 4183SOL    HW212870   5.373   1.640   4.361
 4184SOL     OW12871   4.322   0.729   3.994
 4184SOL    HW112872   4.346   0.798   3.926
 4184SOL    HW212873   4.244   0.762   4.048
 4185SOL     OW12874   5.005   0.345   4.668
 4185SOL    HW112875   4.919   0.295   4.655
 4185SOL    HW212876   5.067   0.291   4.724
 4186SOL     OW12877   5.300   1.662   4.031
 4186SOL    HW112878   5.389   1.708   4.034
 4186SOL    HW212879   5.279   1.638   3.936
 4187SOL     OW12880   4.531   0.605   5.189
 4187SOL    HW112881   4.484   0.602   5.278
 4187SOL    HW212882   4.480   0.550   5.123
 4188SOL     OW12883   5.118   0.469   5.398
 4188SOL    HW112884   5.098   0.512   5.486
 4188SOL    HW212885   5.196   0.407   5.407
 4189SOL     OW12886   4.697   0.890   5.296
 4189SOL    HW112887   4.743   0.806   5.267
 4189SOL    HW212888   4.641   0.924   5.221
 4190SOL     OW12889   4.715   0.410   4.966
 4190SOL    HW112890   4.638   0.444   5.020
 4190SOL    HW212891   4.681   0.359   4.887
 4191SOL     OW12892   4.765   0.701   4.153
 4191SOL    HW112893   4.791   0.697   4.249
 4191SOL    HW212894   4.680   0.650   4.139
 4192SOL     OW12895   3.800   0.811   4.513
 4192SOL    HW112896   3.899   0.799   4.522
 4192SOL    HW212897   3.776   0.906   4.534
 4193SOL     OW12898   3.854   1.821   5.295
 4193SOL    HW112899   3.844   1.806   5.394
 4193SOL    HW212900   3.768   1.857   5.259
 4194SOL     OW12901   4.589   0.348   3.919
 4194SOL    HW112902   4.648   0.411   3.870
 4194SOL    HW212903   4.608   0.254   3.890
 4195SOL     OW12904   5.443   0.585   5.555
 4195SOL    HW112905   5.417   0.674   5.519
 4195SOL    HW212906   5.441   0.517   5.482
 4196SOL     OW12907   5.086   1.144   4.269
 4196SOL    HW112908   5.169   1.115   4.221
 4196SOL    HW212909   5.037   1.211   4.213
 4197SOL     OW12910   4.274   0.196   4.609
 4197SOL    HW112911   4.269   0.191   4.709
 4197SOL    HW212912   4.276   0.292   4.580
 4198SOL     OW12913   4.732   1.456   4.201
 4198SOL    HW112914   4.686   1.528   4.149
 4198SOL    HW212915   4.728   1.476   4.299
 4199SOL     OW12916   4.075   1.801   4.577
 4199SOL    HW112917   4.125   1.715   4.583
 4199SOL    HW212918   4.140   1.878   4.574
 4200SOL     OW12919   5.519   1.066   4.597
 4200SOL    HW112920   5.457   1.051   4.521
 4200SOL    HW212921   5.467   1.077   4.682
 4201SOL     OW12922   4.951   1.550   5.230
 4201SOL    HW112923   4.957   1.473   5.294
 4201SOL    HW212924   4.899   1.524   5.150
 4202SOL     OW12925   4.045   0.943   3.966
 4202SOL    HW112926   4.127   0.982   3.924
 4202SOL    HW212927   4.018   0.861   3.917
 4203SOL     OW12928   5.182   0.735   4.452
 4203SOL    HW112929   5.177   0.670   4.527
 4203SOL    HW212930   5.262   0.794   4.465
 4204SOL     OW12931   4.185   1.266   5.451
 4204SOL    HW112932   4.135   1.267   5.365
 4204SOL    HW212933   4.122   1.248   5.527
 4205SOL     OW12934   4.835   1.776   3.961
 4205SOL    HW112935   4.775   1.714   4.011
 4205SOL    HW212936   4.866   1.732   3.876
 4206SOL     OW12937   3.926   0.285   5.222
 4206SOL    HW112938   3.846   0.345   5.209
 4206SOL    HW212939   3.916   0.236   5.308
 4207SOL     OW12940   5.356   1.377   3.805
 4207SOL    HW112941   5.324   1.471   3.795
 4207SOL    HW212942   5.280   1.314   3.793
 4208SOL     OW12943   4.188   1.743   4.047
 4208SOL    HW112944   4.221   1.782   4.133
 4208SOL    HW212945   4.264   1.736   3.982
 4209SOL     OW12946   5.124   0.107   4.150
 4209SOL    HW112947   5.100   0.070   4.060
 4209SOL    HW212948   5.223   0.123   4.154
 4210SOL     OW12949   3.973   1.785   4.965
 4210SOL    HW112950   4.030   1.720   5.015
 4210SOL    HW212951   3.957   1.752   4.872
 4211SOL     OW12952   4.664   1.698   4.628
 4211SOL    HW112953   4.744   1.641   4.649
 4211SOL    HW212954   4.615   1.658   4.551
 4212SOL     OW12955   4.106   0.700   4.204
 4212SOL    HW112956   4.151   0.610   4.201
 4212SOL    HW212957   4.012   0.689   4.237
 4213SOL     OW12958   5.271   0.222   5.453
 4213SOL    HW112959   5.266   0.259   5.545
 4213SOL    HW212960   5.199   0.153   5.441
 4214SOL     OW12961   4.338   0.122   3.841
 4214SOL    HW112962   4.436   0.100   3.848
 4214SOL    HW212963   4.307   0.105   3.748
 4215SOL     OW12964   4.505   0.264   5.473
 4215SOL    HW112965   4.572   0.203   5.516
 4215SOL    HW212966   4.432   0.283   5.538
 4216SOL     OW12967   4.612   1.514   4.919
 4216SOL    HW112968   4.589   1.489   4.825
 4216SOL    HW212969   4.673   1.445   4.958
 4217SOL     OW12970   5.075   0.590   5.157
 4217SOL    HW112971   5.103   0.547   5.242
 4217SOL    HW212972   5.100   0.686   5.158
 4218SOL     OW12973   4.527   1.402   4.648
 4218SOL    HW112974   4.617   1.416   4.606
 4218SOL    HW212975   4.456   1.404   4.577
 4219SOL     OW12976   4.646   0.503   4.623
 4219SOL    HW112977   4.621   0.494   4.527
 4219SOL    HW212978   4.694   0.421   4.654
 4220SOL     OW12979   4.263   0.064   4.236
 4220SOL    HW112980   4.182   0.065   4.294
 4220SOL    HW212981   4.266   0.147   4.181
 4221SOL     OW12982   5.158   1.188   3.765
 4221SOL    HW112983   5.190   1.112   3.822
 4221SOL    HW212984   5.066   1.215   3.795
 4222SOL     OW12985   4.021   0.035   3.895
 4222SOL    HW112986   4.070   0.119   3.874
 4222SOL    HW212987   4.083  -0.030   3.940
 4223SOL     OW12988   4.659   0.236   4.204
 4223SOL    HW112989   4.611   0.277   4.126
 4223SOL    HW212990   4.758   0.234   4.185
 4224SOL     OW12991   4.800   0.683   5.188
 4224SOL    HW112992   4.720   0.622   5.191
 4224SOL    HW212993   4.881   0.630   5.164
 4225SOL     OW12994   4.951   1.570   4.517
 4225SOL    HW112995   4.972   1.644   4.452
 4225SOL    HW212996   5.019   1.570   4.590
 4226SOL     OW12997   4.183   1.152   4.465
 4226SOL    HW112998   4.112   1.125   4.530
 4226SOL    HW212999   4.157   1.124   4.372
 4227SOL     OW13000   4.995   1.797   4.315
 4227SOL    HW113001   5.039   1.861   4.251
 4227SOL    HW213002   4.945   1.849   4.385
 4228SOL     OW13003   4.756   0.549   3.740
 4228SOL    HW113004   4.715   0.631   3.701
 4228SOL    HW213005   4.820   0.575   3.813
 4229SOL     OW13006   3.802   0.556   5.110
 4229SOL    HW113007   3.894   0.555   5.069
 4229SOL    HW213008   3.796   0.630   5.177
 4230SOL     OW13009   4.285   0.222   4.871
 4230SOL    HW113010   4.323   0.138   4.908
 4230SOL    HW213011   4.197   0.241   4.915
 4231SOL     OW13012   4.590   0.454   4.366
 4231SOL    HW113013   4.558   0.526   4.304
 4231SOL    HW213014   4.614   0.373   4.313
 4232SOL     OW13015   4.741   0.039   4.477
 4232SOL    HW113016   4.669   0.044   4.408
 4232SOL    HW213017   4.717  -0.030   4.546
 4233SOL     OW13018   5.153   1.173   4.591
 4233SOL    HW113019   5.098   1.089   4.584
 4233SOL    HW213020   5.179   1.202   4.499
 4234SOL     OW13021   5.190   0.590   4.716
 4234SOL    HW113022   5.160   0.495   4.723
 4234SOL    HW213023   5.263   0.606   4.782
 4235SOL     OW13024   5.581   0.833   4.101
 4235SOL    HW113025   5.623   0.769   4.165
 4235SOL    HW213026   5.543   0.782   4.023
 4236SOL     OW13027   4.212   1.385   3.898
 4236SOL    HW113028   4.125   1.370   3.945
 4236SOL    HW213029   4.195   1.411   3.803
 4237SOL     OW13030   5.388   1.280   4.381
 4237SOL    HW113031   5.487   1.288   4.395
 4237SOL    HW213032   5.343   1.364   4.412
 4238SOL     OW13033   5.114   0.575   3.802
 4238SOL    HW113034   5.060   0.554   3.883
 4238SOL    HW213035   5.205   0.534   3.811
 4239SOL     OW13036   4.251   0.256   4.052
 4239SOL    HW113037   4.278   0.197   3.977
 4239SOL    HW213038   4.251   0.351   4.021
 4240SOL     OW13039   5.478   1.223   5.312
 4240SOL    HW113040   5.569   1.184   5.299
 4240SOL    HW213041   5.486   1.319   5.336
 4241SOL     OW13042   4.788   1.347   5.064
 4241SOL    HW113043   4.708   1.324   5.119
 4241SOL    HW213044   4.871   1.321   5.113
 4242SOL     OW13045   5.316   1.629   5.349
 4242SOL    HW113046   5.343   1.663   5.259
 4242SOL    HW213047   5.395   1.591   5.395
 4243SOL     OW13048   4.835   1.195   4.824
 4243SOL    HW113049   4.795   1.239   4.905
 4243SOL    HW213050   4.794   1.232   4.741
 4244SOL     OW13051   5.362   1.099   4.803
 4244SOL    HW113052   5.367   1.180   4.862
 4244SOL    HW213053   5.276   1.101   4.752
 4245SOL     OW13054   4.639   0.089   5.126
 4245SOL    HW113055   4.664   0.069   5.031
 4245SOL    HW213056   4.711   0.145   5.168
 4246SOL     OW13057   4.704   1.116   5.443
 4246SOL    HW113058   4.605   1.122   5.453
 4246SOL    HW213059   4.727   1.036   5.387
 4247SOL     OW13060   4.429   1.050   4.092
 4247SOL    HW113061   4.415   1.057   4.191
 4247SOL    HW213062   4.513   0.999   4.074
 4248SOL     OW13063   4.134   0.813   4.975
 4248SOL    HW113064   4.220   0.825   5.025
 4248SOL    HW213065   4.092   0.726   5.002
 4249SOL     OW13066   4.998   0.386   4.986
 4249SOL    HW113067   5.019   0.460   5.050
 4249SOL    HW213068   4.909   0.403   4.943
 4250SOL     OW13069   3.788   1.564   5.055
 4250SOL    HW113070   3.742   1.646   5.021
 4250SOL    HW213071   3.886   1.583   5.064
 4251SOL     OW13072   4.091   1.100   4.225
 4251SOL    HW113073   4.084   1.183   4.169
 4251SOL    HW213074   4.095   1.020   4.165
 4252SOL     OW13075   4.290   0.537   4.589
 4252SOL    HW113076   4.302   0.603   4.515
 4252SOL    HW213077   4.336   0.571   4.672
 4253SOL     OW13078   4.976   1.348   4.112
 4253SOL    HW113079   5.026   1.425   4.152
 4253SOL    HW213080   4.881   1.350   4.144
 4254SOL     OW13081   4.996   1.445   4.866
 4254SOL    HW113082   5.043   1.458   4.953
 4254SOL    HW213083   4.930   1.371   4.875
 4255SOL     OW13084   5.306   0.639   4.196
 4255SOL    HW113085   5.275   0.700   4.269
 4255SOL    HW213086   5.356   0.691   4.127
 4256SOL     OW13087   4.078   1.510   5.053
 4256SOL    HW113088   4.057   1.466   4.966
 4256SOL    HW213089   4.175   1.536   5.056
 4257SOL     OW13090   4.126   0.751   5.322
 4257SOL    HW113091   4.194   0.806   5.275
 4257SOL    HW213092   4.166   0.663   5.349
 4258SOL     OW13093   5.311   0.779   5.394
 4258SOL    HW113094   5.219   0.817   5.389
 4258SOL    HW213095   5.371   0.826   5.329
 4259SOL     OW13096   4.737   0.105   5.494
 4259SOL    HW113097   4.743   0.190   5.442
 4259SOL    HW213098   4.769   0.029   5.437
 4260SOL     OW13099   4.228   0.050   5.464
 4260SOL    HW113100   4.186  -0.007   5.394
 4260SOL    HW213101   4.162   0.119   5.496
 4261SOL     OW13102   4.297   0.870   4.753
 4261SOL    HW113103   4.341   0.959   4.744
 4261SOL    HW213104   4.234   0.870   4.830
 4262SOL     OW13105   5.084   0.862   4.769
 4262SOL    HW113106   5.009   0.862   4.703
 4262SOL    HW213107   5.121   0.770   4.778
 4263SOL     OW13108   4.933   0.525   3.999
 4263SOL    HW113109   4.946   0.441   4.053
 4263SOL    HW213110   4.904   0.599   4.059
 4264SOL     OW13111   4.031   0.213   4.955
 4264SOL    HW113112   4.008   0.250   5.045
 4264SOL    HW213113   4.001   0.118   4.949
 4265SOL     OW13114   3.761   1.310   5.006
 4265SOL    HW113115   3.814   1.261   5.074
 4265SOL    HW213116   3.783   1.408   5.011
 4266SOL     OW13117   4.456   0.634   4.788
 4266SOL    HW113118   4.515   0.608   4.712
 4266SOL    HW213119   4.428   0.730   4.777
 4267SOL     OW13120   5.452   0.935   5.578
 4267SOL    HW113121   5.406   0.928   5.489
 4267SOL    HW213122   5.390   0.979   5.644
 4268SOL     OW13123   4.031   0.063   4.342
 4268SOL    HW113124   4.020   0.157   4.375
 4268SOL    HW213125   4.026   0.000   4.419
 4269SOL     OW13126   5.346   0.367   4.098
 4269SOL    HW113127   5.348   0.291   4.162
 4269SOL    HW213128   5.298   0.444   4.138
 4270SOL     OW13129   4.747   0.766   4.690
 4270SOL    HW113130   4.762   0.787   4.786
 4270SOL    HW213131   4.717   0.671   4.681
 4271SOL     OW13132   4.704   1.573   5.424
 4271SOL    HW113133   4.684   1.617   5.336
 4271SOL    HW213134   4.743   1.482   5.408
 4272SOL     OW13135   5.583   1.518   5.329
 4272SOL    HW113136   5.597   1.545   5.234
 4272SOL    HW213137   5.666   1.540   5.382
 4273SOL     OW13138   4.074   0.898   5.528
 4273SOL    HW113139   4.150   0.942   5.576
 4273SOL    HW213140   4.109   0.851   5.446
 4274SOL     OW13141   5.264   0.274   3.849
 4274SOL    HW113142   5.203   0.199   3.872
 4274SOL    HW213143   5.286   0.326   3.932
 4275SOL     OW13144   5.027   0.838   3.766
 4275SOL    HW113145   5.061   0.745   3.781
 4275SOL    HW213146   5.045   0.865   3.671
 4276SOL     OW13147   4.792   1.333   4.573
 4276SOL    HW113148   4.799   1.249   4.518
 4276SOL    HW213149   4.854   1.402   4.537
 4277SOL     OW13150   4.043   0.810   4.673
 4277SOL    HW113151   4.136   0.846   4.678
 4277SOL    HW213152   4.037   0.725   4.725
 4278SOL     OW13153   4.063   0.509   4.730
 4278SOL    HW113154   4.011   0.426   4.713
 4278SOL    HW213155   4.140   0.514   4.666
 4279SOL     OW13156   4.862   0.380   5.402
 4279SOL    HW113157   4.817   0.443   5.466
 4279SOL    HW213158   4.955   0.411   5.385
 4280SOL     OW13159   4.884   0.207   5.201
 4280SOL    HW113160   4.884   0.271   5.278
 4280SOL    HW213161   4.912   0.255   5.118
 4281SOL     OW13162   3.732   1.326   3.924
 4281SOL    HW113163   3.639   1.347   3.893
 4281SOL    HW213164   3.742   1.227   3.937
 4282SOL     OW13165   3.812   1.801   4.651
 4282SOL    HW113166   3.770   1.715   4.624
 4282SOL    HW213167   3.906   1.804   4.617
 4283SOL     OW13168   4.228   1.568   4.634
 4283SOL    HW113169   4.294   1.642   4.643
 4283SOL    HW213170   4.272   1.489   4.592
 4284SOL     OW13171   4.726   0.796   4.962
 4284SOL    HW113172   4.767   0.764   5.048
 4284SOL    HW213173   4.630   0.769   4.959
 4285SOL     OW13174   3.764   0.544   4.838
 4285SOL    HW113175   3.849   0.511   4.797
 4285SOL    HW213176   3.777   0.559   4.936
 4286SOL     OW13177   3.913   0.520   5.446
 4286SOL    HW113178   3.972   0.480   5.376
 4286SOL    HW213179   3.855   0.591   5.405
 4287SOL     OW13180   5.093   0.950   5.384
 4287SOL    HW113181   5.132   1.039   5.404
 4287SOL    HW213182   5.103   0.930   5.287
 4288SOL     OW13183   4.539   0.572   4.049
 4288SOL    HW113184   4.546   0.483   4.003
 4288SOL    HW213185   4.445   0.606   4.041
 4289SOL     OW13186   5.381   0.604   4.930
 4289SOL    HW113187   5.343   0.535   4.992
 4289SOL    HW213188   5.463   0.568   4.886
 4290SOL     OW13189   3.976   1.564   5.468
 4290SOL    HW113190   3.946   1.621   5.544
 4290SOL    HW213191   3.969   1.467   5.494
 4291SOL     OW13192   4.395   0.464   4.993
 4291SOL    HW113193   4.361   0.375   4.963
 4291SOL    HW213194   4.421   0.518   4.913
 4292SOL     OW13195   4.654   1.678   5.189
 4292SOL    HW113196   4.630   1.660   5.094
 4292SOL    HW213197   4.684   1.772   5.199
 4293SOL     OW13198   4.197   0.500   3.915
 4293SOL    HW113199   4.258   0.580   3.919
 4293SOL    HW213200   4.102   0.531   3.922
 4294SOL     OW13201   3.883   1.137   5.190
 4294SOL    HW113202   3.905   1.076   5.266
 4294SOL    HW213203   3.893   1.088   5.104
 4295SOL     OW13204   5.071   1.059   4.958
 4295SOL    HW113205   5.095   0.996   4.884
 4295SOL    HW213206   4.981   1.099   4.940
 4296SOL     OW13207   5.026   0.855   4.033
 4296SOL    HW113208   4.940   0.824   4.075
 4296SOL    HW213209   5.022   0.841   3.934
 4297SOL     OW13210   5.483   1.747   4.878
 4297SOL    HW113211   5.544   1.777   4.805
 4297SOL    HW213212   5.445   1.658   4.856
 4298SOL     OW13213   4.976   1.731   4.852
 4298SOL    HW113214   5.060   1.736   4.798
 4298SOL    HW213215   4.953   1.635   4.870
 4299SOL     OW13216   3.807   1.258   4.746
 4299SOL    HW113217   3.802   1.257   4.846
 4299SOL    HW213218   3.724   1.217   4.708
 4300SOL     OW13219   4.412   1.662   5.440
 4300SOL    HW113220   4.356   1.743   5.449
 4300SOL    HW213221   4.464   1.666   5.354
 4301SOL     OW13222   5.450   0.135   4.247
 4301SOL    HW113223   5.523   0.118   4.180
 4301SOL    HW213224   5.419   0.048   4.285
 4302SOL     OW13225   5.112   1.573   4.201
 4302SOL    HW113226   5.179   1.585   4.127
 4302SOL    HW213227   5.072   1.662   4.224
 4303SOL     OW13228   3.854   1.794   5.575
 4303SOL    HW113229   3.813   1.720   5.628
 4303SOL    HW213230   3.918   1.845   5.633
 4304SOL     OW13231   5.004   0.927   4.396
 4304SOL    HW113232   5.064   0.846   4.398
 4304SOL    HW213233   5.044   0.996   4.336
 4305SOL     OW13234   4.554   1.273   5.146
 4305SOL    HW113235   4.549   1.306   5.241
 4305SOL    HW213236   4.468   1.292   5.100
 4306SOL     OW13237   4.396   1.616   3.878
 4306SOL    HW113238   4.405   1.626   3.779
 4306SOL    HW213239   4.356   1.527   3.899
 4307SOL     OW13240   5.374   1.720   5.118
 4307SOL    HW113241   5.427   1.730   5.034
 4307SOL    HW213242   5.347   1.810   5.152
 4308SOL     OW13243   5.565   0.175   4.687
 4308SOL    HW113244   5.604   0.090   4.651
 4308SOL    HW213245   5.467   0.177   4.668
 4309SOL     OW13246   3.987   0.326   4.444
 4309SOL    HW113247   3.908   0.377   4.410
 4309SOL    HW213248   3.978   0.311   4.542
 4310SOL     OW13249   4.918   1.612   3.755
 4310SOL    HW113250   4.924   1.519   3.792
 4310SOL    HW213251   4.859   1.612   3.675
 4311SOL     OW13252   4.546   1.002   5.096
 4311SOL    HW113253   4.586   1.001   5.004
 4311SOL    HW213254   4.556   1.094   5.136
 4312SOL     OW13255   4.640   0.910   4.015
 4312SOL    HW113256   4.703   0.948   3.947
 4312SOL    HW213257   4.680   0.827   4.054
 4313SOL     OW13258   5.228   1.607   3.768
 4313SOL    HW113259   5.136   1.644   3.775
 4313SOL    HW213260   5.266   1.627   3.678
 4314SOL     OW13261   4.096   1.288   5.214
 4314SOL    HW113262   4.083   1.381   5.180
 4314SOL    HW213263   4.012   1.236   5.201
 4315SOL     OW13264   5.338   1.292   5.013
 4315SOL    HW113265   5.398   1.295   5.093
 4315SOL    HW213266   5.263   1.356   5.026
 4316SOL     OW13267   4.763   1.098   4.420
 4316SOL    HW113268   4.693   1.051   4.474
 4316SOL    HW213269   4.822   1.030   4.377
 4317SOL     OW13270   4.738   0.236   4.695
 4317SOL    HW113271   4.730   0.200   4.602
 4317SOL    HW213272   4.736   0.160   4.760
 4318SOL     OW13273   4.314   1.487   4.215
 4318SOL    HW113274   4.356   1.429   4.145
 4318SOL    HW213275   4.270   1.566   4.171
 4319SOL     OW13276   5.433   0.385   5.105
 4319SOL    HW113277   5.506   0.454   5.109
 4319SOL    HW213278   5.461   0.310   5.046
 4320SOL     OW13279   3.979   1.348   4.014
 4320SOL    HW113280   3.883   1.349   3.987
 4320SOL    HW213281   3.991   1.401   4.098
 4321SOL     OW13282   3.829   1.013   5.450
 4321SOL    HW113283   3.752   0.980   5.504
 4321SOL    HW213284   3.914   0.983   5.492
 4322SOL     OW13285   4.396   0.203   5.213
 4322SOL    HW113286   4.486   0.187   5.173
 4322SOL    HW213287   4.404   0.208   5.312
 4323SOL     OW13288   3.799   0.345   3.757
 4323SOL    HW113289   3.707   0.317   3.728
 4323SOL    HW213290   3.830   0.422   3.701
 4324SOL     OW13291   5.164   0.856   5.122
 4324SOL    HW113292   5.107   0.908   5.059
 4324SOL    HW213293   5.260   0.868   5.098
 4325SOL     OW13294   3.796   0.166   4.042
 4325SOL    HW113295   3.779   0.249   3.988
 4325SOL    HW213296   3.886   0.129   4.020
 4326SOL     OW13297   4.907   1.335   3.843
 4326SOL    HW113298   4.808   1.324   3.845
 4326SOL    HW213299   4.941   1.350   3.936
 4327SOL     OW13300   4.337   0.842   5.155
 4327SOL    HW113301   4.393   0.923   5.138
 4327SOL    HW213302   4.396   0.762   5.158
 4328SOL     OW13303   5.217   1.767   4.683
 4328SOL    HW113304   5.250   1.831   4.614
 4328SOL    HW213305   5.283   1.761   4.758
 4329SOL     OW13306   4.440   0.565   5.432
 4329SOL    HW113307   4.459   0.630   5.506
 4329SOL    HW213308   4.500   0.485   5.441
 4330SOL     OW13309   5.174   1.220   5.357
 4330SOL    HW113310   5.165   1.210   5.456
 4330SOL    HW213311   5.270   1.213   5.331
 4331SOL     OW13312   4.114   1.741   5.284
 4331SOL    HW113313   4.023   1.782   5.282
 4331SOL    HW213314   4.107   1.647   5.316
 4332SOL     OW13315   5.398   0.883   4.978
 4332SOL    HW113316   5.371   0.794   4.941
 4332SOL    HW213317   5.399   0.951   4.905
 4333SOL     OW13318   4.949   0.325   4.173
 4333SOL    HW113319   5.014   0.251   4.162
 4333SOL    HW213320   4.969   0.375   4.257
 4334SOL     OW13321   4.318   0.745   4.376
 4334SOL    HW113322   4.368   0.830   4.357
 4334SOL    HW213323   4.230   0.747   4.328
 4335SOL     OW13324   5.501   0.342   5.366
 4335SOL    HW113325   5.484   0.373   5.272
 4335SOL    HW213326   5.417   0.305   5.404
 4336SOL     OW13327   5.454   0.934   5.241
 4336SOL    HW113328   5.492   1.025   5.256
 4336SOL    HW213329   5.446   0.917   5.142
 4337SOL     OW13330   4.583   1.374   3.740
 4337SOL    HW113331   4.537   1.389   3.828
 4337SOL    HW213332   4.627   1.459   3.710
 4338SOL     OW13333   4.385   1.790   4.677
 4338SOL    HW113334   4.339   1.878   4.664
 4338SOL    HW213335   4.484   1.802   4.670
 4339SOL     OW13336   4.583   0.956   4.585
 4339SOL    HW113337   4.637   0.887   4.633
 4339SOL    HW213338   4.551   1.025   4.651
 4340SOL     OW13339   4.807   0.984   3.811
 4340SOL    HW113340   4.784   1.037   3.729
 4340SOL    HW213341   4.888   0.928   3.792
 4341SOL     OW13342   5.585   1.569   4.575
 4341SOL    HW113343   5.514   1.557   4.505
 4341SOL    HW213344   5.586   1.490   4.635
 4342SOL     OW13345   3.945   1.314   5.568
 4342SOL    HW113346   3.880   1.241   5.547
 4342SOL    HW213347   3.949   1.328   5.666
 4343SOL     OW13348   3.803   1.240   4.377
 4343SOL    HW113349   3.802   1.193   4.465
 4343SOL    HW213350   3.885   1.212   4.326
 4344SOL     OW13351   4.396   1.391   5.348
 4344SOL    HW113352   4.318   1.341   5.386
 4344SOL    HW213353   4.393   1.486   5.379
 4345SOL     OW13354   5.548   0.192   4.951
 4345SOL    HW113355   5.544   0.102   4.995
 4345SOL    HW213356   5.551   0.181   4.852
 4346SOL     OW13357   4.152   0.424   4.244
 4346SOL    HW113358   4.182   0.352   4.182
 4346SOL    HW213359   4.113   0.384   4.327
 4347SOL     OW13360   5.429   1.487   4.828
 4347SOL    HW113361   5.336   1.462   4.801
 4347SOL    HW213362   5.455   1.437   4.910
 4348SOL     OW13363   4.041   0.547   5.004
 4348SOL    HW113364   4.079   0.488   5.076
 4348SOL    HW213365   4.081   0.521   4.916
 4349SOL     OW13366   4.536   1.586   4.411
 4349SOL    HW113367   4.568   1.596   4.317
 4349SOL    HW213368   4.457   1.524   4.413
 4350SOL     OW13369   5.148   0.214   4.836
 4350SOL    HW113370   5.200   0.149   4.891
 4350SOL    HW213371   5.099   0.277   4.897
 4351SOL     OW13372   4.725   0.034   4.878
 4351SOL    HW113373   4.662  -0.038   4.847
 4351SOL    HW213374   4.818  -0.002   4.878
 4352SOL     OW13375   4.494   1.330   4.025
 4352SOL    HW113376   4.448   1.243   4.042
 4352SOL    HW213377   4.585   1.327   4.066
 4353SOL     OW13378   4.342   1.567   5.008
 4353SOL    HW113379   4.337   1.649   5.065
 4353SOL    HW213380   4.431   1.564   4.963
 4354SOL     OW13381   5.076   0.052   3.892
 4354SOL    HW113382   5.111   0.011   3.808
 4354SOL    HW213383   4.986   0.014   3.912
 4355SOL     OW13384   5.024   0.453   4.415
 4355SOL    HW113385   4.965   0.533   4.419
 4355SOL    HW213386   5.039   0.418   4.508
 4356SOL     OW13387   5.317   0.221   4.606
 4356SOL    HW113388   5.233   0.220   4.660
 4356SOL    HW213389   5.319   0.304   4.550
 4357SOL     OW13390   3.763   1.077   4.024
 4357SOL    HW113391   3.862   1.066   4.015
 4357SOL    HW213392   3.723   0.991   4.056
 4358SOL     OW13393   4.599   1.646   4.061
 4358SOL    HW113394   4.522   1.611   4.007
 4358SOL    HW213395   4.567   1.717   4.123
 4359SOL     OW13396   3.954   2.490   0.113
 4359SOL    HW113397   3.861   2.488   0.150
 4359SOL    HW213398   3.955   2.451   0.021
 4360SOL     OW13399   3.949   2.137   0.996
 4360SOL    HW113400   3.984   2.120   1.088
 4360SOL    HW213401   3.861   2.092   0.984
 4361SOL     OW13402   3.743   2.230   0.647
 4361SOL    HW113403   3.661   2.273   0.686
 4361SOL    HW213404   3.715   2.157   0.584
 4362SOL     OW13405   4.293   3.137   1.165
 4362SOL    HW113406   4.200   3.130   1.128
 4362SOL    HW213407   4.304   3.226   1.209
 4363SOL     OW13408   5.279   3.373   0.703
 4363SOL    HW113409   5.222   3.357   0.784
 4363SOL    HW213410   5.220   3.383   0.623
 4364SOL     OW13411   4.859   2.565   0.717
 4364SOL    HW113412   4.916   2.643   0.692
 4364SOL    HW213413   4.799   2.591   0.793
 4365SOL     OW13414   5.479   2.469   0.231
 4365SOL    HW113415   5.467   2.456   0.132
 4365SOL    HW213416   5.449   2.388   0.280
 4366SOL     OW13417   4.492   3.006   1.023
 4366SOL    HW113418   4.414   3.023   1.083
 4366SOL    HW213419   4.526   3.093   0.987
 4367SOL     OW13420   4.574   2.660   1.823
 4367SOL    HW113421   4.570   2.736   1.888
 4367SOL    HW213422   4.596   2.696   1.732
 4368SOL     OW13423   4.409   2.874   0.665
 4368SOL    HW113424   4.478   2.858   0.735
 4368SOL    HW213425   4.336   2.931   0.703
 4369SOL     OW13426   4.410   3.023   1.803
 4369SOL    HW113427   4.470   3.102   1.817
 4369SOL    HW213428   4.324   3.054   1.762
 4370SOL     OW13429   4.059   3.297   1.061
 4370SOL    HW113430   3.981   3.266   1.008
 4370SOL    HW213431   4.117   3.355   1.004
 4371SOL     OW13432   5.184   3.367   1.339
 4371SOL    HW113433   5.208   3.461   1.365
 4371SOL    HW213434   5.168   3.313   1.421
 4372SOL     OW13435   4.162   2.254   1.499
 4372SOL    HW113436   4.244   2.198   1.508
 4372SOL    HW213437   4.081   2.196   1.503
 4373SOL     OW13438   5.327   2.309   0.737
 4373SOL    HW113439   5.253   2.355   0.687
 4373SOL    HW213440   5.378   2.377   0.790
 4374SOL     OW13441   3.955   3.575   0.483
 4374SOL    HW113442   3.989   3.652   0.537
 4374SOL    HW213443   3.999   3.575   0.393
 4375SOL     OW13444   4.851   3.203   1.690
 4375SOL    HW113445   4.898   3.203   1.778
 4375SOL    HW213446   4.803   3.116   1.679
 4376SOL     OW13447   3.954   3.296   0.538
 4376SOL    HW113448   3.928   3.392   0.538
 4376SOL    HW213449   3.883   3.242   0.583
 4377SOL     OW13450   3.964   2.953   0.886
 4377SOL    HW113451   3.978   2.869   0.938
 4377SOL    HW213452   3.909   3.017   0.941
 4378SOL     OW13453   4.344   3.648   1.439
 4378SOL    HW113454   4.252   3.631   1.474
 4378SOL    HW213455   4.372   3.740   1.465
 4379SOL     OW13456   4.330   2.826   0.123
 4379SOL    HW113457   4.337   2.910   0.069
 4379SOL    HW213458   4.376   2.839   0.211
 4380SOL     OW13459   5.318   1.976   1.480
 4380SOL    HW113460   5.300   2.043   1.408
 4380SOL    HW213461   5.315   2.022   1.569
 4381SOL     OW13462   3.846   2.505   0.563
 4381SOL    HW113463   3.801   2.417   0.580
 4381SOL    HW213464   3.845   2.559   0.647
 4382SOL     OW13465   5.566   3.629   0.359
 4382SOL    HW113466   5.620   3.600   0.439
 4382SOL    HW213467   5.596   3.719   0.330
 4383SOL     OW13468   3.751   3.458   0.117
 4383SOL    HW113469   3.732   3.362   0.138
 4383SOL    HW213470   3.718   3.516   0.192
 4384SOL     OW13471   5.413   2.784   0.612
 4384SOL    HW113472   5.508   2.755   0.620
 4384SOL    HW213473   5.405   2.849   0.537
 4385SOL     OW13474   5.365   2.970   0.432
 4385SOL    HW113475   5.451   2.972   0.380
 4385SOL    HW213476   5.379   3.017   0.520
 4386SOL     OW13477   3.837   2.599   1.597
 4386SOL    HW113478   3.925   2.586   1.642
 4386SOL    HW213479   3.824   2.696   1.575
 4387SOL     OW13480   4.337   3.227   0.726
 4387SOL    HW113481   4.288   3.140   0.735
 4387SOL    HW213482   4.314   3.270   0.639
 4388SOL     OW13483   5.017   3.090   1.423
 4388SOL    HW113484   5.054   3.017   1.365
 4388SOL    HW213485   5.069   3.095   1.508
 4389SOL     OW13486   4.533   1.866   0.502
 4389SOL    HW113487   4.573   1.957   0.493
 4389SOL    HW213488   4.433   1.874   0.508
 4390SOL     OW13489   3.921   2.838   1.264
 4390SOL    HW113490   4.010   2.793   1.250
 4390SOL    HW213491   3.848   2.773   1.245
 4391SOL     OW13492   5.249   2.861   0.190
 4391SOL    HW113493   5.186   2.785   0.203
 4391SOL    HW213494   5.297   2.879   0.276
 4392SOL     OW13495   4.911   3.654   1.616
 4392SOL    HW113496   4.935   3.714   1.540
 4392SOL    HW213497   4.918   3.559   1.586
 4393SOL     OW13498   4.041   2.113   1.801
 4393SOL    HW113499   4.112   2.184   1.807
 4393SOL    HW213500   3.953   2.152   1.829
 4394SOL     OW13501   5.190   3.279   0.953
 4394SOL    HW113502   5.131   3.285   1.033
 4394SOL    HW213503   5.175   3.191   0.907
 4395SOL     OW13504   5.391   3.576   0.572
 4395SOL    HW113505   5.350   3.553   0.484
 4395SOL    HW213506   5.373   3.502   0.637
 4396SOL     OW13507   4.322   2.591   0.270
 4396SOL    HW113508   4.346   2.660   0.202
 4396SOL    HW213509   4.244   2.624   0.324
 4397SOL     OW13510   5.005   2.207   0.944
 4397SOL    HW113511   4.919   2.157   0.931
 4397SOL    HW213512   5.067   2.153   1.000
 4398SOL     OW13513   5.300   3.524   0.307
 4398SOL    HW113514   5.389   3.570   0.310
 4398SOL    HW213515   5.279   3.500   0.212
 4399SOL     OW13516   4.531   2.467   1.465
 4399SOL    HW113517   4.484   2.464   1.554
 4399SOL    HW213518   4.480   2.412   1.399
 4400SOL     OW13519   5.118   2.331   1.674
 4400SOL    HW113520   5.098   2.374   1.762
 4400SOL    HW213521   5.196   2.269   1.683
 4401SOL     OW13522   4.697   2.752   1.572
 4401SOL    HW113523   4.743   2.668   1.543
 4401SOL    HW213524   4.641   2.786   1.497
 4402SOL     OW13525   4.715   2.272   1.242
 4402SOL    HW113526   4.638   2.306   1.296
 4402SOL    HW213527   4.681   2.221   1.163
 4403SOL     OW13528   4.765   2.563   0.429
 4403SOL    HW113529   4.791   2.559   0.525
 4403SOL    HW213530   4.680   2.512   0.415
 4404SOL     OW13531   3.800   2.673   0.789
 4404SOL    HW113532   3.899   2.661   0.798
 4404SOL    HW213533   3.776   2.768   0.810
 4405SOL     OW13534   4.589   2.210   0.195
 4405SOL    HW113535   4.648   2.273   0.146
 4405SOL    HW213536   4.608   2.116   0.166
 4406SOL     OW13537   5.443   2.447   1.831
 4406SOL    HW113538   5.417   2.536   1.795
 4406SOL    HW213539   5.441   2.379   1.758
 4407SOL     OW13540   5.086   3.006   0.545
 4407SOL    HW113541   5.169   2.977   0.497
 4407SOL    HW213542   5.037   3.073   0.489
 4408SOL     OW13543   4.274   2.058   0.885
 4408SOL    HW113544   4.269   2.053   0.985
 4408SOL    HW213545   4.276   2.154   0.856
 4409SOL     OW13546   4.732   3.318   0.477
 4409SOL    HW113547   4.686   3.390   0.425
 4409SOL    HW213548   4.728   3.338   0.575
 4410SOL     OW13549   4.075   3.663   0.853
 4410SOL    HW113550   4.125   3.577   0.859
 4410SOL    HW213551   4.140   3.740   0.850
 4411SOL     OW13552   5.519   2.928   0.873
 4411SOL    HW113553   5.457   2.913   0.797
 4411SOL    HW213554   5.467   2.939   0.958
 4412SOL     OW13555   4.951   3.412   1.506
 4412SOL    HW113556   4.957   3.335   1.570
 4412SOL    HW213557   4.899   3.386   1.426
 4413SOL     OW13558   4.045   2.805   0.242
 4413SOL    HW113559   4.127   2.844   0.200
 4413SOL    HW213560   4.018   2.723   0.193
 4414SOL     OW13561   5.182   2.597   0.728
 4414SOL    HW113562   5.177   2.532   0.803
 4414SOL    HW213563   5.262   2.656   0.741
 4415SOL     OW13564   4.185   3.128   1.727
 4415SOL    HW113565   4.135   3.129   1.641
 4415SOL    HW213566   4.122   3.110   1.803
 4416SOL     OW13567   4.835   3.638   0.237
 4416SOL    HW113568   4.775   3.576   0.287
 4416SOL    HW213569   4.866   3.594   0.152
 4417SOL     OW13570   3.926   2.147   1.498
 4417SOL    HW113571   3.846   2.207   1.485
 4417SOL    HW213572   3.916   2.098   1.584
 4418SOL     OW13573   5.356   3.239   0.081
 4418SOL    HW113574   5.324   3.333   0.071
 4418SOL    HW213575   5.280   3.176   0.069
 4419SOL     OW13576   4.188   3.605   0.323
 4419SOL    HW113577   4.221   3.644   0.409
 4419SOL    HW213578   4.264   3.598   0.258
 4420SOL     OW13579   5.124   1.969   0.426
 4420SOL    HW113580   5.100   1.932   0.336
 4420SOL    HW213581   5.223   1.985   0.430
 4421SOL     OW13582   3.973   3.647   1.241
 4421SOL    HW113583   4.030   3.582   1.291
 4421SOL    HW213584   3.957   3.614   1.148
 4422SOL     OW13585   4.664   3.560   0.904
 4422SOL    HW113586   4.744   3.503   0.925
 4422SOL    HW213587   4.615   3.520   0.827
 4423SOL     OW13588   4.106   2.562   0.480
 4423SOL    HW113589   4.151   2.472   0.477
 4423SOL    HW213590   4.012   2.551   0.513
 4424SOL     OW13591   5.271   2.084   1.729
 4424SOL    HW113592   5.266   2.121   1.821
 4424SOL    HW213593   5.199   2.015   1.717
 4425SOL     OW13594   4.338   1.984   0.117
 4425SOL    HW113595   4.436   1.962   0.124
 4425SOL    HW213596   4.307   1.967   0.024
 4426SOL     OW13597   4.505   2.126   1.749
 4426SOL    HW113598   4.572   2.065   1.792
 4426SOL    HW213599   4.432   2.145   1.814
 4427SOL     OW13600   4.612   3.376   1.195
 4427SOL    HW113601   4.589   3.351   1.101
 4427SOL    HW213602   4.673   3.307   1.234
 4428SOL     OW13603   5.075   2.452   1.433
 4428SOL    HW113604   5.103   2.409   1.518
 4428SOL    HW213605   5.100   2.548   1.434
 4429SOL     OW13606   4.527   3.264   0.924
 4429SOL    HW113607   4.617   3.278   0.882
 4429SOL    HW213608   4.456   3.266   0.853
 4430SOL     OW13609   4.646   2.365   0.899
 4430SOL    HW113610   4.621   2.356   0.803
 4430SOL    HW213611   4.694   2.283   0.930
 4431SOL     OW13612   4.263   1.926   0.512
 4431SOL    HW113613   4.182   1.927   0.570
 4431SOL    HW213614   4.266   2.009   0.457
 4432SOL     OW13615   5.158   3.050   0.041
 4432SOL    HW113616   5.190   2.974   0.098
 4432SOL    HW213617   5.066   3.077   0.071
 4433SOL     OW13618   4.021   1.897   0.171
 4433SOL    HW113619   4.070   1.981   0.150
 4433SOL    HW213620   4.083   1.832   0.216
 4434SOL     OW13621   4.659   2.098   0.480
 4434SOL    HW113622   4.611   2.139   0.402
 4434SOL    HW213623   4.758   2.096   0.461
 4435SOL     OW13624   4.800   2.545   1.464
 4435SOL    HW113625   4.720   2.484   1.467
 4435SOL    HW213626   4.881   2.492   1.440
 4436SOL     OW13627   4.951   3.432   0.793
 4436SOL    HW113628   4.972   3.506   0.728
 4436SOL    HW213629   5.019   3.432   0.866
 4437SOL     OW13630   4.183   3.014   0.741
 4437SOL    HW113631   4.112   2.987   0.806
 4437SOL    HW213632   4.157   2.986   0.648
 4438SOL     OW13633   4.995   3.659   0.591
 4438SOL    HW113634   5.039   3.723   0.527
 4438SOL    HW213635   4.945   3.711   0.661
 4439SOL     OW13636   4.756   2.411   0.016
 4439SOL    HW113637   4.715   2.493  -0.023
 4439SOL    HW213638   4.820   2.437   0.089
 4440SOL     OW13639   3.802   2.418   1.386
 4440SOL    HW113640   3.894   2.417   1.345
 4440SOL    HW213641   3.796   2.492   1.453
 4441SOL     OW13642   4.285   2.084   1.147
 4441SOL    HW113643   4.323   2.000   1.184
 4441SOL    HW213644   4.197   2.103   1.191
 4442SOL     OW13645   4.590   2.316   0.642
 4442SOL    HW113646   4.558   2.388   0.580
 4442SOL    HW213647   4.614   2.235   0.589
 4443SOL     OW13648   4.741   1.901   0.753
 4443SOL    HW113649   4.669   1.906   0.684
 4443SOL    HW213650   4.717   1.832   0.822
 4444SOL     OW13651   5.153   3.035   0.867
 4444SOL    HW113652   5.098   2.951   0.860
 4444SOL    HW213653   5.179   3.064   0.775
 4445SOL     OW13654   5.190   2.452   0.992
 4445SOL    HW113655   5.160   2.357   0.999
 4445SOL    HW213656   5.263   2.468   1.058
 4446SOL     OW13657   5.581   2.695   0.377
 4446SOL    HW113658   5.623   2.631   0.441
 4446SOL    HW213659   5.543   2.644   0.299
 4447SOL     OW13660   4.212   3.247   0.174
 4447SOL    HW113661   4.125   3.232   0.221
 4447SOL    HW213662   4.195   3.273   0.079
 4448SOL     OW13663   5.388   3.142   0.657
 4448SOL    HW113664   5.487   3.150   0.671
 4448SOL    HW213665   5.343   3.226   0.688
 4449SOL     OW13666   5.114   2.437   0.078
 4449SOL    HW113667   5.060   2.416   0.159
 4449SOL    HW213668   5.205   2.396   0.087
 4450SOL     OW13669   4.251   2.118   0.328
 4450SOL    HW113670   4.278   2.059   0.253
 4450SOL    HW213671   4.251   2.213   0.297
 4451SOL     OW13672   5.478   3.085   1.588
 4451SOL    HW113673   5.569   3.046   1.575
 4451SOL    HW213674   5.486   3.181   1.612
 4452SOL     OW13675   4.788   3.209   1.340
 4452SOL    HW113676   4.708   3.186   1.395
 4452SOL    HW213677   4.871   3.183   1.389
 4453SOL     OW13678   5.316   3.491   1.625
 4453SOL    HW113679   5.343   3.525   1.535
 4453SOL    HW213680   5.395   3.453   1.671
 4454SOL     OW13681   4.835   3.057   1.100
 4454SOL    HW113682   4.795   3.101   1.181
 4454SOL    HW213683   4.794   3.094   1.017
 4455SOL     OW13684   5.362   2.961   1.079
 4455SOL    HW113685   5.367   3.042   1.138
 4455SOL    HW213686   5.276   2.963   1.028
 4456SOL     OW13687   4.639   1.951   1.402
 4456SOL    HW113688   4.664   1.931   1.307
 4456SOL    HW213689   4.711   2.007   1.444
 4457SOL     OW13690   4.704   2.978   1.719
 4457SOL    HW113691   4.605   2.984   1.729
 4457SOL    HW213692   4.727   2.898   1.663
 4458SOL     OW13693   4.429   2.912   0.368
 4458SOL    HW113694   4.415   2.919   0.467
 4458SOL    HW213695   4.513   2.861   0.350
 4459SOL     OW13696   4.134   2.675   1.251
 4459SOL    HW113697   4.220   2.687   1.301
 4459SOL    HW213698   4.092   2.588   1.278
 4460SOL     OW13699   4.998   2.248   1.262
 4460SOL    HW113700   5.019   2.322   1.326
 4460SOL    HW213701   4.909   2.265   1.219
 4461SOL     OW13702   3.788   3.426   1.331
 4461SOL    HW113703   3.742   3.508   1.297
 4461SOL    HW213704   3.886   3.445   1.340
 4462SOL     OW13705   4.091   2.962   0.501
 4462SOL    HW113706   4.084   3.045   0.445
 4462SOL    HW213707   4.095   2.882   0.441
 4463SOL     OW13708   4.290   2.399   0.865
 4463SOL    HW113709   4.302   2.465   0.791
 4463SOL    HW213710   4.336   2.433   0.948
 4464SOL     OW13711   4.976   3.210   0.388
 4464SOL    HW113712   5.026   3.287   0.428
 4464SOL    HW213713   4.881   3.212   0.420
 4465SOL     OW13714   4.996   3.307   1.142
 4465SOL    HW113715   5.043   3.320   1.229
 4465SOL    HW213716   4.930   3.233   1.151
 4466SOL     OW13717   5.306   2.501   0.472
 4466SOL    HW113718   5.275   2.562   0.545
 4466SOL    HW213719   5.356   2.553   0.403
 4467SOL     OW13720   4.078   3.372   1.329
 4467SOL    HW113721   4.057   3.328   1.242
 4467SOL    HW213722   4.175   3.398   1.332
 4468SOL     OW13723   4.126   2.613   1.598
 4468SOL    HW113724   4.194   2.668   1.551
 4468SOL    HW213725   4.166   2.525   1.625
 4469SOL     OW13726   5.311   2.641   1.670
 4469SOL    HW113727   5.219   2.679   1.665
 4469SOL    HW213728   5.371   2.688   1.605
 4470SOL     OW13729   4.737   1.967   1.770
 4470SOL    HW113730   4.743   2.052   1.718
 4470SOL    HW213731   4.769   1.891   1.713
 4471SOL     OW13732   4.228   1.912   1.740
 4471SOL    HW113733   4.186   1.855   1.670
 4471SOL    HW213734   4.162   1.981   1.772
 4472SOL     OW13735   4.297   2.732   1.029
 4472SOL    HW113736   4.341   2.821   1.020
 4472SOL    HW213737   4.234   2.732   1.106
 4473SOL     OW13738   5.084   2.724   1.045
 4473SOL    HW113739   5.009   2.724   0.979
 4473SOL    HW213740   5.121   2.632   1.054
 4474SOL     OW13741   4.933   2.387   0.275
 4474SOL    HW113742   4.946   2.303   0.329
 4474SOL    HW213743   4.904   2.461   0.335
 4475SOL     OW13744   4.031   2.075   1.231
 4475SOL    HW113745   4.008   2.112   1.321
 4475SOL    HW213746   4.001   1.980   1.225
 4476SOL     OW13747   3.761   3.172   1.282
 4476SOL    HW113748   3.814   3.123   1.350
 4476SOL    HW213749   3.783   3.270   1.287
 4477SOL     OW13750   4.456   2.496   1.064
 4477SOL    HW113751   4.515   2.470   0.988
 4477SOL    HW213752   4.428   2.592   1.053
 4478SOL     OW13753   5.452   2.797   1.854
 4478SOL    HW113754   5.406   2.790   1.765
 4478SOL    HW213755   5.390   2.841   1.920
 4479SOL     OW13756   4.031   1.925   0.618
 4479SOL    HW113757   4.020   2.019   0.651
 4479SOL    HW213758   4.026   1.862   0.695
 4480SOL     OW13759   5.346   2.229   0.374
 4480SOL    HW113760   5.348   2.153   0.438
 4480SOL    HW213761   5.298   2.306   0.414
 4481SOL     OW13762   4.747   2.628   0.966
 4481SOL    HW113763   4.762   2.649   1.062
 4481SOL    HW213764   4.717   2.533   0.957
 4482SOL     OW13765   4.704   3.435   1.700
 4482SOL    HW113766   4.684   3.479   1.612
 4482SOL    HW213767   4.743   3.344   1.684
 4483SOL     OW13768   5.583   3.380   1.605
 4483SOL    HW113769   5.597   3.407   1.510
 4483SOL    HW213770   5.666   3.402   1.658
 4484SOL     OW13771   4.074   2.760   1.804
 4484SOL    HW113772   4.150   2.804   1.852
 4484SOL    HW213773   4.109   2.713   1.722
 4485SOL     OW13774   5.264   2.136   0.125
 4485SOL    HW113775   5.203   2.061   0.148
 4485SOL    HW213776   5.286   2.188   0.208
 4486SOL     OW13777   5.027   2.700   0.042
 4486SOL    HW113778   5.061   2.607   0.057
 4486SOL    HW213779   5.045   2.727  -0.053
 4487SOL     OW13780   4.792   3.195   0.849
 4487SOL    HW113781   4.799   3.111   0.794
 4487SOL    HW213782   4.854   3.264   0.813
 4488SOL     OW13783   4.043   2.672   0.949
 4488SOL    HW113784   4.136   2.708   0.954
 4488SOL    HW213785   4.037   2.587   1.001
 4489SOL     OW13786   4.063   2.371   1.006
 4489SOL    HW113787   4.011   2.288   0.989
 4489SOL    HW213788   4.140   2.376   0.942
 4490SOL     OW13789   4.862   2.242   1.678
 4490SOL    HW113790   4.817   2.305   1.742
 4490SOL    HW213791   4.955   2.273   1.661
 4491SOL     OW13792   4.884   2.069   1.477
 4491SOL    HW113793   4.884   2.133   1.554
 4491SOL    HW213794   4.912   2.117   1.394
 4492SOL     OW13795   3.732   3.188   0.200
 4492SOL    HW113796   3.639   3.209   0.169
 4492SOL    HW213797   3.742   3.089   0.213
 4493SOL     OW13798   3.812   3.663   0.927
 4493SOL    HW113799   3.770   3.577   0.900
 4493SOL    HW213800   3.906   3.666   0.893
 4494SOL     OW13801   4.228   3.430   0.910
 4494SOL    HW113802   4.294   3.504   0.919
 4494SOL    HW213803   4.272   3.351   0.868
 4495SOL     OW13804   4.726   2.658   1.238
 4495SOL    HW113805   4.767   2.626   1.324
 4495SOL    HW213806   4.630   2.631   1.235
 4496SOL     OW13807   3.764   2.406   1.114
 4496SOL    HW113808   3.849   2.373   1.073
 4496SOL    HW213809   3.777   2.421   1.212
 4497SOL     OW13810   3.913   2.382   1.722
 4497SOL    HW113811   3.972   2.342   1.652
 4497SOL    HW213812   3.855   2.453   1.681
 4498SOL     OW13813   5.093   2.812   1.660
 4498SOL    HW113814   5.132   2.901   1.680
 4498SOL    HW213815   5.103   2.792   1.563
 4499SOL     OW13816   4.539   2.434   0.325
 4499SOL    HW113817   4.546   2.345   0.279
 4499SOL    HW213818   4.445   2.468   0.317
 4500SOL     OW13819   5.381   2.466   1.206
 4500SOL    HW113820   5.343   2.397   1.268
 4500SOL    HW213821   5.463   2.430   1.162
 4501SOL     OW13822   3.976   3.426   1.744
 4501SOL    HW113823   3.946   3.483   1.820
 4501SOL    HW213824   3.969   3.329   1.770
 4502SOL     OW13825   4.395   2.326   1.269
 4502SOL    HW113826   4.361   2.237   1.239
 4502SOL    HW213827   4.421   2.380   1.189
 4503SOL     OW13828   4.654   3.540   1.465
 4503SOL    HW113829   4.630   3.522   1.370
 4503SOL    HW213830   4.684   3.634   1.475
 4504SOL     OW13831   4.197   2.362   0.191
 4504SOL    HW113832   4.258   2.442   0.195
 4504SOL    HW213833   4.102   2.393   0.198
 4505SOL     OW13834   3.883   2.999   1.466
 4505SOL    HW113835   3.905   2.938   1.542
 4505SOL    HW213836   3.893   2.950   1.380
 4506SOL     OW13837   5.071   2.921   1.234
 4506SOL    HW113838   5.095   2.858   1.160
 4506SOL    HW213839   4.981   2.961   1.216
 4507SOL     OW13840   5.026   2.717   0.309
 4507SOL    HW113841   4.940   2.686   0.351
 4507SOL    HW213842   5.022   2.703   0.210
 4508SOL     OW13843   5.483   3.609   1.154
 4508SOL    HW113844   5.544   3.639   1.081
 4508SOL    HW213845   5.445   3.520   1.132
 4509SOL     OW13846   4.976   3.593   1.128
 4509SOL    HW113847   5.060   3.598   1.074
 4509SOL    HW213848   4.953   3.497   1.146
 4510SOL     OW13849   3.807   3.120   1.022
 4510SOL    HW113850   3.802   3.119   1.122
 4510SOL    HW213851   3.724   3.079   0.984
 4511SOL     OW13852   4.412   3.524   1.716
 4511SOL    HW113853   4.356   3.605   1.725
 4511SOL    HW213854   4.464   3.528   1.630
 4512SOL     OW13855   4.627   1.948   0.133
 4512SOL    HW113856   4.678   1.949   0.047
 4512SOL    HW213857   4.683   1.906   0.204
 4513SOL     OW13858   5.450   1.997   0.523
 4513SOL    HW113859   5.523   1.980   0.456
 4513SOL    HW213860   5.419   1.910   0.561
 4514SOL     OW13861   5.112   3.435   0.477
 4514SOL    HW113862   5.179   3.447   0.403
 4514SOL    HW213863   5.072   3.524   0.500
 4515SOL     OW13864   3.854   3.656   1.851
 4515SOL    HW113865   3.813   3.582   1.904
 4515SOL    HW213866   3.918   3.707   1.909
 4516SOL     OW13867   5.004   2.789   0.672
 4516SOL    HW113868   5.064   2.708   0.674
 4516SOL    HW213869   5.044   2.858   0.612
 4517SOL     OW13870   4.554   3.135   1.422
 4517SOL    HW113871   4.549   3.168   1.517
 4517SOL    HW213872   4.468   3.154   1.376
 4518SOL     OW13873   4.396   3.478   0.154
 4518SOL    HW113874   4.405   3.488   0.055
 4518SOL    HW213875   4.356   3.389   0.175
 4519SOL     OW13876   5.374   3.582   1.394
 4519SOL    HW113877   5.427   3.592   1.310
 4519SOL    HW213878   5.347   3.672   1.428
 4520SOL     OW13879   5.565   2.037   0.963
 4520SOL    HW113880   5.604   1.952   0.927
 4520SOL    HW213881   5.467   2.039   0.944
 4521SOL     OW13882   3.987   2.188   0.720
 4521SOL    HW113883   3.908   2.239   0.686
 4521SOL    HW213884   3.978   2.173   0.818
 4522SOL     OW13885   4.918   3.474   0.031
 4522SOL    HW113886   4.924   3.381   0.068
 4522SOL    HW213887   4.859   3.474  -0.049
 4523SOL     OW13888   4.546   2.864   1.372
 4523SOL    HW113889   4.586   2.863   1.280
 4523SOL    HW213890   4.556   2.956   1.412
 4524SOL     OW13891   4.640   2.772   0.291
 4524SOL    HW113892   4.703   2.810   0.223
 4524SOL    HW213893   4.680   2.689   0.330
 4525SOL     OW13894   5.228   3.469   0.044
 4525SOL    HW113895   5.136   3.506   0.051
 4525SOL    HW213896   5.266   3.489  -0.046
 4526SOL     OW13897   4.096   3.150   1.490
 4526SOL    HW113898   4.083   3.243   1.456
 4526SOL    HW213899   4.012   3.098   1.477
 4527SOL     OW13900   5.338   3.154   1.289
 4527SOL    HW113901   5.398   3.157   1.369
 4527SOL    HW213902   5.263   3.218   1.302
 4528SOL     OW13903   4.763   2.960   0.696
 4528SOL    HW113904   4.693   2.913   0.750
 4528SOL    HW213905   4.822   2.892   0.653
 4529SOL     OW13906   4.738   2.098   0.971
 4529SOL    HW113907   4.730   2.062   0.878
 4529SOL    HW213908   4.736   2.022   1.036
 4530SOL     OW13909   4.314   3.349   0.491
 4530SOL    HW113910   4.356   3.291   0.421
 4530SOL    HW213911   4.270   3.428   0.447
 4531SOL     OW13912   5.433   2.247   1.381
 4531SOL    HW113913   5.506   2.316   1.385
 4531SOL    HW213914   5.461   2.172   1.322
 4532SOL     OW13915   3.979   3.210   0.290
 4532SOL    HW113916   3.883   3.211   0.263
 4532SOL    HW213917   3.991   3.263   0.374
 4533SOL     OW13918   3.829   2.875   1.726
 4533SOL    HW113919   3.752   2.842   1.780
 4533SOL    HW213920   3.914   2.845   1.768
 4534SOL     OW13921   4.396   2.065   1.489
 4534SOL    HW113922   4.486   2.049   1.449
 4534SOL    HW213923   4.404   2.070   1.588
 4535SOL     OW13924   3.799   2.207   0.033
 4535SOL    HW113925   3.707   2.179   0.004
 4535SOL    HW213926   3.830   2.284  -0.023
 4536SOL     OW13927   5.164   2.718   1.398
 4536SOL    HW113928   5.107   2.770   1.335
 4536SOL    HW213929   5.260   2.730   1.374
 4537SOL     OW13930   3.796   2.028   0.318
 4537SOL    HW113931   3.779   2.111   0.264
 4537SOL    HW213932   3.886   1.991   0.296
 4538SOL     OW13933   4.907   3.197   0.119
 4538SOL    HW113934   4.808   3.186   0.121
 4538SOL    HW213935   4.941   3.212   0.212
 4539SOL     OW13936   4.337   2.704   1.431
 4539SOL    HW113937   4.393   2.785   1.414
 4539SOL    HW213938   4.396   2.624   1.434
 4540SOL     OW13939   5.217   3.629   0.959
 4540SOL    HW113940   5.250   3.693   0.890
 4540SOL    HW213941   5.283   3.623   1.034
 4541SOL     OW13942   4.440   2.427   1.708
 4541SOL    HW113943   4.459   2.492   1.782
 4541SOL    HW213944   4.500   2.347   1.717
 4542SOL     OW13945   5.174   3.082   1.633
 4542SOL    HW113946   5.165   3.072   1.732
 4542SOL    HW213947   5.270   3.075   1.607
 4543SOL     OW13948   4.114   3.603   1.560
 4543SOL    HW113949   4.023   3.644   1.558
 4543SOL    HW213950   4.107   3.509   1.592
 4544SOL     OW13951   5.398   2.745   1.254
 4544SOL    HW113952   5.371   2.656   1.217
 4544SOL    HW213953   5.399   2.813   1.181
 4545SOL     OW13954   4.949   2.187   0.449
 4545SOL    HW113955   5.014   2.113   0.438
 4545SOL    HW213956   4.969   2.237   0.533
 4546SOL     OW13957   4.318   2.607   0.652
 4546SOL    HW113958   4.368   2.692   0.633
 4546SOL    HW213959   4.230   2.609   0.604
 4547SOL     OW13960   5.501   2.204   1.642
 4547SOL    HW113961   5.484   2.235   1.548
 4547SOL    HW213962   5.417   2.167   1.680
 4548SOL     OW13963   5.454   2.796   1.517
 4548SOL    HW113964   5.492   2.887   1.532
 4548SOL    HW213965   5.446   2.779   1.418
 4549SOL     OW13966   4.583   3.236   0.016
 4549SOL    HW113967   4.537   3.251   0.104
 4549SOL    HW213968   4.627   3.321  -0.014
 4550SOL     OW13969   4.385   3.652   0.953
 4550SOL    HW113970   4.339   3.740   0.940
 4550SOL    HW213971   4.484   3.664   0.946
 4551SOL     OW13972   4.583   2.818   0.861
 4551SOL    HW113973   4.637   2.749   0.909
 4551SOL    HW213974   4.551   2.887   0.927
 4552SOL     OW13975   4.807   2.846   0.087
 4552SOL    HW113976   4.784   2.899   0.005
 4552SOL    HW213977   4.888   2.790   0.068
 4553SOL     OW13978   5.585   3.431   0.851
 4553SOL    HW113979   5.514   3.419   0.781
 4553SOL    HW213980   5.586   3.352   0.911
 4554SOL     OW13981   3.945   3.176   1.844
 4554SOL    HW113982   3.880   3.103   1.823
 4554SOL    HW213983   3.949   3.190   1.942
 4555SOL     OW13984   3.803   3.102   0.653
 4555SOL    HW113985   3.802   3.055   0.741
 4555SOL    HW213986   3.885   3.074   0.602
 4556SOL     OW13987   4.396   3.253   1.624
 4556SOL    HW113988   4.318   3.203   1.662
 4556SOL    HW213989   4.393   3.348   1.655
 4557SOL     OW13990   5.548   2.054   1.227
 4557SOL    HW113991   5.544   1.964   1.271
 4557SOL    HW213992   5.551   2.043   1.128
 4558SOL     OW13993   4.152   2.286   0.520
 4558SOL    HW113994   4.182   2.214   0.458
 4558SOL    HW213995   4.113   2.246   0.603
 4559SOL     OW13996   5.429   3.349   1.104
 4559SOL    HW113997   5.336   3.324   1.077
 4559SOL    HW213998   5.455   3.299   1.186
 4560SOL     OW13999   4.041   2.409   1.280
 4560SOL    HW114000   4.079   2.350   1.352
 4560SOL    HW214001   4.081   2.383   1.192
 4561SOL     OW14002   4.536   3.448   0.687
 4561SOL    HW114003   4.568   3.458   0.593
 4561SOL    HW214004   4.457   3.386   0.689
 4562SOL     OW14005   5.148   2.076   1.112
 4562SOL    HW114006   5.200   2.011   1.167
 4562SOL    HW214007   5.099   2.139   1.173
 4563SOL     OW14008   4.725   1.896   1.154
 4563SOL    HW114009   4.662   1.824   1.123
 4563SOL    HW214010   4.818   1.860   1.154
 4564SOL     OW14011   4.494   3.192   0.301
 4564SOL    HW114012   4.448   3.105   0.318
 4564SOL    HW214013   4.585   3.189   0.342
 4565SOL     OW14014   4.342   3.429   1.284
 4565SOL    HW114015   4.337   3.511   1.341
 4565SOL    HW214016   4.431   3.426   1.239
 4566SOL     OW14017   5.076   1.914   0.168
 4566SOL    HW114018   5.111   1.873   0.084
 4566SOL    HW214019   4.986   1.876   0.188
 4567SOL     OW14020   5.024   2.315   0.691
 4567SOL    HW114021   4.965   2.395   0.695
 4567SOL    HW214022   5.039   2.280   0.784
 4568SOL     OW14023   5.317   2.083   0.882
 4568SOL    HW114024   5.233   2.082   0.936
 4568SOL    HW214025   5.319   2.166   0.826
 4569SOL     OW14026   3.763   2.939   0.300
 4569SOL    HW114027   3.862   2.928   0.291
 4569SOL    HW214028   3.723   2.853   0.332
 4570SOL     OW14029   4.599   3.508   0.337
 4570SOL    HW114030   4.522   3.473   0.283
 4570SOL    HW214031   4.567   3.579   0.399
 4571SOL     OW14032   3.954   2.490   1.975
 4571SOL    HW114033   3.861   2.488   2.012
 4571SOL    HW214034   3.955   2.451   1.883
 4572SOL     OW14035   3.949   2.137   2.858
 4572SOL    HW114036   3.984   2.120   2.950
 4572SOL    HW214037   3.861   2.092   2.846
 4573SOL     OW14038   3.743   2.230   2.509
 4573SOL    HW114039   3.661   2.273   2.548
 4573SOL    HW214040   3.715   2.157   2.446
 4574SOL     OW14041   4.293   3.137   3.027
 4574SOL    HW114042   4.200   3.130   2.990
 4574SOL    HW214043   4.304   3.226   3.071
 4575SOL     OW14044   5.279   3.373   2.565
 4575SOL    HW114045   5.222   3.357   2.646
 4575SOL    HW214046   5.220   3.383   2.485
 4576SOL     OW14047   4.859   2.565   2.579
 4576SOL    HW114048   4.916   2.643   2.554
 4576SOL    HW214049   4.799   2.591   2.655
 4577SOL     OW14050   5.479   2.469   2.093
 4577SOL    HW114051   5.467   2.456   1.994
 4577SOL    HW214052   5.449   2.388   2.142
 4578SOL     OW14053   4.492   3.006   2.885
 4578SOL    HW114054   4.414   3.023   2.945
 4578SOL    HW214055   4.526   3.093   2.849
 4579SOL     OW14056   4.574   2.660   3.685
 4579SOL    HW114057   4.570   2.736   3.750
 4579SOL    HW214058   4.596   2.696   3.594
 4580SOL     OW14059   4.409   2.874   2.527
 4580SOL    HW114060   4.478   2.858   2.597
 4580SOL    HW214061   4.336   2.931   2.565
 4581SOL     OW14062   4.410   3.023   3.665
 4581SOL    HW114063   4.470   3.102   3.679
 4581SOL    HW214064   4.324   3.054   3.624
 4582SOL     OW14065   4.059   3.297   2.923
 4582SOL    HW114066   3.981   3.266   2.870
 4582SOL    HW214067   4.117   3.355   2.866
 4583SOL     OW14068   5.184   3.367   3.201
 4583SOL    HW114069   5.208   3.461   3.227
 4583SOL    HW214070   5.168   3.313   3.283
 4584SOL     OW14071   4.162   2.254   3.361
 4584SOL    HW114072   4.244   2.198   3.370
 4584SOL    HW214073   4.081   2.196   3.365
 4585SOL     OW14074   5.327   2.309   2.599
 4585SOL    HW114075   5.253   2.355   2.549
 4585SOL    HW214076   5.378   2.377   2.652
 4586SOL     OW14077   3.955   3.575   2.345
 4586SOL    HW114078   3.989   3.652   2.399
 4586SOL    HW214079   3.999   3.575   2.255
 4587SOL     OW14080   4.851   3.203   3.552
 4587SOL    HW114081   4.898   3.203   3.640
 4587SOL    HW214082   4.803   3.116   3.541
 4588SOL     OW14083   3.954   3.296   2.400
 4588SOL    HW114084   3.928   3.392   2.400
 4588SOL    HW214085   3.883   3.242   2.445
 4589SOL     OW14086   3.964   2.953   2.748
 4589SOL    HW114087   3.978   2.869   2.800
 4589SOL    HW214088   3.909   3.017   2.803
 4590SOL     OW14089   4.344   3.648   3.301
 4590SOL    HW114090   4.252   3.631   3.336
 4590SOL    HW214091   4.372   3.740   3.327
 4591SOL     OW14092   4.330   2.826   1.985
 4591SOL    HW114093   4.337   2.910   1.931
 4591SOL    HW214094   4.376   2.839   2.073
 4592SOL     OW14095   5.318   1.976   3.342
 4592SOL    HW114096   5.300   2.043   3.270
 4592SOL    HW214097   5.315   2.022   3.431
 4593SOL     OW14098   3.846   2.505   2.425
 4593SOL    HW114099   3.801   2.417   2.442
 4593SOL    HW214100   3.845   2.559   2.509
 4594SOL     OW14101   5.566   3.629   2.221
 4594SOL    HW114102   5.620   3.600   2.301
 4594SOL    HW214103   5.596   3.719   2.192
 4595SOL     OW14104   3.751   3.458   1.979
 4595SOL    HW114105   3.732   3.362   2.000
 4595SOL    HW214106   3.718   3.516   2.054
 4596SOL     OW14107   5.413   2.784   2.474
 4596SOL    HW114108   5.508   2.755   2.482
 4596SOL    HW214109   5.405   2.849   2.399
 4597SOL     OW14110   5.365   2.970   2.294
 4597SOL    HW114111   5.451   2.972   2.242
 4597SOL    HW214112   5.379   3.017   2.382
 4598SOL     OW14113   3.837   2.599   3.459
 4598SOL    HW114114   3.925   2.586   3.504
 4598SOL    HW214115   3.824   2.696   3.437
 4599SOL     OW14116   4.337   3.227   2.588
 4599SOL    HW114117   4.288   3.140   2.597
 4599SOL    HW214118   4.314   3.270   2.501
 4600SOL     OW14119   5.017   3.090   3.285
 4600SOL    HW114120   5.054   3.017   3.227
 4600SOL    HW214121   5.069   3.095   3.370
 4601SOL     OW14122   4.533   1.866   2.364
 4601SOL    HW114123   4.573   1.957   2.355
 4601SOL    HW214124   4.433   1.874   2.370
 4602SOL     OW14125   3.921   2.838   3.126
 4602SOL    HW114126   4.010   2.793   3.112
 4602SOL    HW214127   3.848   2.773   3.107
 4603SOL     OW14128   5.249   2.861   2.052
 4603SOL    HW114129   5.186   2.785   2.065
 4603SOL    HW214130   5.297   2.879   2.138
 4604SOL     OW14131   4.911   3.654   3.478
 4604SOL    HW114132   4.935   3.714   3.402
 4604SOL    HW214133   4.918   3.559   3.448
 4605SOL     OW14134   4.041   2.113   3.663
 4605SOL    HW114135   4.112   2.184   3.669
 4605SOL    HW214136   3.953   2.152   3.691
 4606SOL     OW14137   5.190   3.279   2.815
 4606SOL    HW114138   5.131   3.285   2.895
 4606SOL    HW214139   5.175   3.191   2.769
 4607SOL     OW14140   5.391   3.576   2.434
 4607SOL    HW114141   5.350   3.553   2.346
 4607SOL    HW214142   5.373   3.502   2.499
 4608SOL     OW14143   4.322   2.591   2.132
 4608SOL    HW114144   4.346   2.660   2.064
 4608SOL    HW214145   4.244   2.624   2.186
 4609SOL     OW14146   5.005   2.207   2.806
 4609SOL    HW114147   4.919   2.157   2.793
 4609SOL    HW214148   5.067   2.153   2.862
 4610SOL     OW14149   5.300   3.524   2.169
 4610SOL    HW114150   5.389   3.570   2.172
 4610SOL    HW214151   5.279   3.500   2.074
 4611SOL     OW14152   4.531   2.467   3.327
 4611SOL    HW114153   4.484   2.464   3.416
 4611SOL    HW214154   4.480   2.412   3.261
 4612SOL     OW14155   5.118   2.331   3.536
 4612SOL    HW114156   5.098   2.374   3.624
 4612SOL    HW214157   5.196   2.269   3.545
 4613SOL     OW14158   4.697   2.752   3.434
 4613SOL    HW114159   4.743   2.668   3.405
 4613SOL    HW214160   4.641   2.786   3.359
 4614SOL     OW14161   4.715   2.272   3.104
 4614SOL    HW114162   4.638   2.306   3.158
 4614SOL    HW214163   4.681   2.221   3.025
 4615SOL     OW14164   4.765   2.563   2.291
 4615SOL    HW114165   4.791   2.559   2.387
 4615SOL    HW214166   4.680   2.512   2.277
 4616SOL     OW14167   3.800   2.673   2.651
 4616SOL    HW114168   3.899   2.661   2.660
 4616SOL    HW214169   3.776   2.768   2.672
 4617SOL     OW14170   3.854   3.683   3.433
 4617SOL    HW114171   3.844   3.668   3.532
 4617SOL    HW214172   3.768   3.719   3.397
 4618SOL     OW14173   4.589   2.210   2.057
 4618SOL    HW114174   4.648   2.273   2.008
 4618SOL    HW214175   4.608   2.116   2.028
 4619SOL     OW14176   5.443   2.447   3.693
 4619SOL    HW114177   5.417   2.536   3.657
 4619SOL    HW214178   5.441   2.379   3.620
 4620SOL     OW14179   5.086   3.006   2.407
 4620SOL    HW114180   5.169   2.977   2.359
 4620SOL    HW214181   5.037   3.073   2.351
 4621SOL     OW14182   4.274   2.058   2.747
 4621SOL    HW114183   4.269   2.053   2.847
 4621SOL    HW214184   4.276   2.154   2.718
 4622SOL     OW14185   4.732   3.318   2.339
 4622SOL    HW114186   4.686   3.390   2.287
 4622SOL    HW214187   4.728   3.338   2.437
 4623SOL     OW14188   4.075   3.663   2.715
 4623SOL    HW114189   4.125   3.577   2.721
 4623SOL    HW214190   4.140   3.740   2.712
 4624SOL     OW14191   5.519   2.928   2.735
 4624SOL    HW114192   5.457   2.913   2.659
 4624SOL    HW214193   5.467   2.939   2.820
 4625SOL     OW14194   4.951   3.412   3.368
 4625SOL    HW114195   4.957   3.335   3.432
 4625SOL    HW214196   4.899   3.386   3.288
 4626SOL     OW14197   4.045   2.805   2.104
 4626SOL    HW114198   4.127   2.844   2.062
 4626SOL    HW214199   4.018   2.723   2.055
 4627SOL     OW14200   5.182   2.597   2.590
 4627SOL    HW114201   5.177   2.532   2.665
 4627SOL    HW214202   5.262   2.656   2.603
 4628SOL     OW14203   4.185   3.128   3.589
 4628SOL    HW114204   4.135   3.129   3.503
 4628SOL    HW214205   4.122   3.110   3.665
 4629SOL     OW14206   4.835   3.638   2.099
 4629SOL    HW114207   4.775   3.576   2.149
 4629SOL    HW214208   4.866   3.594   2.014
 4630SOL     OW14209   3.926   2.147   3.360
 4630SOL    HW114210   3.846   2.207   3.347
 4630SOL    HW214211   3.916   2.098   3.446
 4631SOL     OW14212   5.356   3.239   1.943
 4631SOL    HW114213   5.324   3.333   1.933
 4631SOL    HW214214   5.280   3.176   1.931
 4632SOL     OW14215   4.188   3.605   2.185
 4632SOL    HW114216   4.221   3.644   2.271
 4632SOL    HW214217   4.264   3.598   2.120
 4633SOL     OW14218   5.124   1.969   2.288
 4633SOL    HW114219   5.100   1.932   2.198
 4633SOL    HW214220   5.223   1.985   2.292
 4634SOL     OW14221   3.973   3.647   3.103
 4634SOL    HW114222   4.030   3.582   3.153
 4634SOL    HW214223   3.957   3.614   3.010
 4635SOL     OW14224   4.664   3.560   2.766
 4635SOL    HW114225   4.744   3.503   2.787
 4635SOL    HW214226   4.615   3.520   2.689
 4636SOL     OW14227   4.106   2.562   2.342
 4636SOL    HW114228   4.151   2.472   2.339
 4636SOL    HW214229   4.012   2.551   2.375
 4637SOL     OW14230   5.271   2.084   3.591
 4637SOL    HW114231   5.266   2.121   3.683
 4637SOL    HW214232   5.199   2.015   3.579
 4638SOL     OW14233   4.338   1.984   1.979
 4638SOL    HW114234   4.436   1.962   1.986
 4638SOL    HW214235   4.307   1.967   1.886
 4639SOL     OW14236   4.505   2.126   3.611
 4639SOL    HW114237   4.572   2.065   3.654
 4639SOL    HW214238   4.432   2.145   3.676
 4640SOL     OW14239   4.612   3.376   3.057
 4640SOL    HW114240   4.589   3.351   2.963
 4640SOL    HW214241   4.673   3.307   3.096
 4641SOL     OW14242   5.075   2.452   3.295
 4641SOL    HW114243   5.103   2.409   3.380
 4641SOL    HW214244   5.100   2.548   3.296
 4642SOL     OW14245   4.527   3.264   2.786
 4642SOL    HW114246   4.617   3.278   2.744
 4642SOL    HW214247   4.456   3.266   2.715
 4643SOL     OW14248   4.646   2.365   2.761
 4643SOL    HW114249   4.621   2.356   2.665
 4643SOL    HW214250   4.694   2.283   2.792
 4644SOL     OW14251   4.263   1.926   2.374
 4644SOL    HW114252   4.182   1.927   2.432
 4644SOL    HW214253   4.266   2.009   2.319
 4645SOL     OW14254   5.158   3.050   1.903
 4645SOL    HW114255   5.190   2.974   1.960
 4645SOL    HW214256   5.066   3.077   1.933
 4646SOL     OW14257   4.021   1.897   2.033
 4646SOL    HW114258   4.070   1.981   2.012
 4646SOL    HW214259   4.083   1.832   2.078
 4647SOL     OW14260   4.659   2.098   2.342
 4647SOL    HW114261   4.611   2.139   2.264
 4647SOL    HW214262   4.758   2.096   2.323
 4648SOL     OW14263   4.800   2.545   3.326
 4648SOL    HW114264   4.720   2.484   3.329
 4648SOL    HW214265   4.881   2.492   3.302
 4649SOL     OW14266   4.951   3.432   2.655
 4649SOL    HW114267   4.972   3.506   2.590
 4649SOL    HW214268   5.019   3.432   2.728
 4650SOL     OW14269   4.183   3.014   2.603
 4650SOL    HW114270   4.112   2.987   2.668
 4650SOL    HW214271   4.157   2.986   2.510
 4651SOL     OW14272   4.995   3.659   2.453
 4651SOL    HW114273   5.039   3.723   2.389
 4651SOL    HW214274   4.945   3.711   2.523
 4652SOL     OW14275   4.756   2.411   1.878
 4652SOL    HW114276   4.715   2.493   1.839
 4652SOL    HW214277   4.820   2.437   1.951
 4653SOL     OW14278   3.802   2.418   3.248
 4653SOL    HW114279   3.894   2.417   3.207
 4653SOL    HW214280   3.796   2.492   3.315
 4654SOL     OW14281   4.285   2.084   3.009
 4654SOL    HW114282   4.323   2.000   3.046
 4654SOL    HW214283   4.197   2.103   3.053
 4655SOL     OW14284   4.590   2.316   2.504
 4655SOL    HW114285   4.558   2.388   2.442
 4655SOL    HW214286   4.614   2.235   2.451
 4656SOL     OW14287   4.741   1.901   2.615
 4656SOL    HW114288   4.669   1.906   2.546
 4656SOL    HW214289   4.717   1.832   2.684
 4657SOL     OW14290   5.153   3.035   2.729
 4657SOL    HW114291   5.098   2.951   2.722
 4657SOL    HW214292   5.179   3.064   2.637
 4658SOL     OW14293   5.190   2.452   2.854
 4658SOL    HW114294   5.160   2.357   2.861
 4658SOL    HW214295   5.263   2.468   2.920
 4659SOL     OW14296   5.581   2.695   2.239
 4659SOL    HW114297   5.623   2.631   2.303
 4659SOL    HW214298   5.543   2.644   2.161
 4660SOL     OW14299   4.212   3.247   2.036
 4660SOL    HW114300   4.125   3.232   2.083
 4660SOL    HW214301   4.195   3.273   1.941
 4661SOL     OW14302   5.388   3.142   2.519
 4661SOL    HW114303   5.487   3.150   2.533
 4661SOL    HW214304   5.343   3.226   2.550
 4662SOL     OW14305   5.114   2.437   1.940
 4662SOL    HW114306   5.060   2.416   2.021
 4662SOL    HW214307   5.205   2.396   1.949
 4663SOL     OW14308   4.251   2.118   2.190
 4663SOL    HW114309   4.278   2.059   2.115
 4663SOL    HW214310   4.251   2.213   2.159
 4664SOL     OW14311   5.478   3.085   3.450
 4664SOL    HW114312   5.569   3.046   3.437
 4664SOL    HW214313   5.486   3.181   3.474
 4665SOL     OW14314   4.788   3.209   3.202
 4665SOL    HW114315   4.708   3.186   3.257
 4665SOL    HW214316   4.871   3.183   3.251
 4666SOL     OW14317   5.316   3.491   3.487
 4666SOL    HW114318   5.343   3.525   3.397
 4666SOL    HW214319   5.395   3.453   3.533
 4667SOL     OW14320   4.835   3.057   2.962
 4667SOL    HW114321   4.795   3.101   3.043
 4667SOL    HW214322   4.794   3.094   2.879
 4668SOL     OW14323   5.362   2.961   2.941
 4668SOL    HW114324   5.367   3.042   3.000
 4668SOL    HW214325   5.276   2.963   2.890
 4669SOL     OW14326   4.639   1.951   3.264
 4669SOL    HW114327   4.664   1.931   3.169
 4669SOL    HW214328   4.711   2.007   3.306
 4670SOL     OW14329   4.704   2.978   3.581
 4670SOL    HW114330   4.605   2.984   3.591
 4670SOL    HW214331   4.727   2.898   3.525
 4671SOL     OW14332   4.429   2.912   2.230
 4671SOL    HW114333   4.415   2.919   2.329
 4671SOL    HW214334   4.513   2.861   2.212
 4672SOL     OW14335   4.134   2.675   3.113
 4672SOL    HW114336   4.220   2.687   3.163
 4672SOL    HW214337   4.092   2.588   3.140
 4673SOL     OW14338   4.998   2.248   3.124
 4673SOL    HW114339   5.019   2.322   3.188
 4673SOL    HW214340   4.909   2.265   3.081
 4674SOL     OW14341   3.788   3.426   3.193
 4674SOL    HW114342   3.742   3.508   3.159
 4674SOL    HW214343   3.886   3.445   3.202
 4675SOL     OW14344   4.091   2.962   2.363
 4675SOL    HW114345   4.084   3.045   2.307
 4675SOL    HW214346   4.095   2.882   2.303
 4676SOL     OW14347   4.290   2.399   2.727
 4676SOL    HW114348   4.302   2.465   2.653
 4676SOL    HW214349   4.336   2.433   2.810
 4677SOL     OW14350   4.976   3.210   2.250
 4677SOL    HW114351   5.026   3.287   2.290
 4677SOL    HW214352   4.881   3.212   2.282
 4678SOL     OW14353   4.996   3.307   3.004
 4678SOL    HW114354   5.043   3.320   3.091
 4678SOL    HW214355   4.930   3.233   3.013
 4679SOL     OW14356   5.306   2.501   2.334
 4679SOL    HW114357   5.275   2.562   2.407
 4679SOL    HW214358   5.356   2.553   2.265
 4680SOL     OW14359   4.078   3.372   3.191
 4680SOL    HW114360   4.057   3.328   3.104
 4680SOL    HW214361   4.175   3.398   3.194
 4681SOL     OW14362   4.126   2.613   3.460
 4681SOL    HW114363   4.194   2.668   3.413
 4681SOL    HW214364   4.166   2.525   3.487
 4682SOL     OW14365   5.311   2.641   3.532
 4682SOL    HW114366   5.219   2.679   3.527
 4682SOL    HW214367   5.371   2.688   3.467
 4683SOL     OW14368   4.737   1.967   3.632
 4683SOL    HW114369   4.743   2.052   3.580
 4683SOL    HW214370   4.769   1.891   3.575
 4684SOL     OW14371   4.228   1.912   3.602
 4684SOL    HW114372   4.186   1.855   3.532
 4684SOL    HW214373   4.162   1.981   3.634
 4685SOL     OW14374   4.297   2.732   2.891
 4685SOL    HW114375   4.341   2.821   2.882
 4685SOL    HW214376   4.234   2.732   2.968
 4686SOL     OW14377   5.084   2.724   2.907
 4686SOL    HW114378   5.009   2.724   2.841
 4686SOL    HW214379   5.121   2.632   2.916
 4687SOL     OW14380   4.933   2.387   2.137
 4687SOL    HW114381   4.946   2.303   2.191
 4687SOL    HW214382   4.904   2.461   2.197
 4688SOL     OW14383   4.031   2.075   3.093
 4688SOL    HW114384   4.008   2.112   3.183
 4688SOL    HW214385   4.001   1.980   3.087
 4689SOL     OW14386   3.761   3.172   3.144
 4689SOL    HW114387   3.814   3.123   3.212
 4689SOL    HW214388   3.783   3.270   3.149
 4690SOL     OW14389   4.456   2.496   2.926
 4690SOL    HW114390   4.515   2.470   2.850
 4690SOL    HW214391   4.428   2.592   2.915
 4691SOL     OW14392   5.452   2.797   3.716
 4691SOL    HW114393   5.406   2.790   3.627
 4691SOL    HW214394   5.390   2.841   3.782
 4692SOL     OW14395   4.031   1.925   2.480
 4692SOL    HW114396   4.020   2.019   2.513
 4692SOL    HW214397   4.026   1.862   2.557
 4693SOL     OW14398   5.346   2.229   2.236
 4693SOL    HW114399   5.348   2.153   2.300
 4693SOL    HW214400   5.298   2.306   2.276
 4694SOL     OW14401   4.747   2.628   2.828
 4694SOL    HW114402   4.762   2.649   2.924
 4694SOL    HW214403   4.717   2.533   2.819
 4695SOL     OW14404   4.704   3.435   3.562
 4695SOL    HW114405   4.684   3.479   3.474
 4695SOL    HW214406   4.743   3.344   3.546
 4696SOL     OW14407   5.583   3.380   3.467
 4696SOL    HW114408   5.597   3.407   3.372
 4696SOL    HW214409   5.666   3.402   3.520
 4697SOL     OW14410   4.074   2.760   3.666
 4697SOL    HW114411   4.150   2.804   3.714
 4697SOL    HW214412   4.109   2.713   3.584
 4698SOL     OW14413   5.264   2.136   1.987
 4698SOL    HW114414   5.203   2.061   2.010
 4698SOL    HW214415   5.286   2.188   2.070
 4699SOL     OW14416   5.027   2.700   1.904
 4699SOL    HW114417   5.061   2.607   1.919
 4699SOL    HW214418   5.045   2.727   1.809
 4700SOL     OW14419   4.792   3.195   2.711
 4700SOL    HW114420   4.799   3.111   2.656
 4700SOL    HW214421   4.854   3.264   2.675
 4701SOL     OW14422   4.043   2.672   2.811
 4701SOL    HW114423   4.136   2.708   2.816
 4701SOL    HW214424   4.037   2.587   2.863
 4702SOL     OW14425   4.063   2.371   2.868
 4702SOL    HW114426   4.011   2.288   2.851
 4702SOL    HW214427   4.140   2.376   2.804
 4703SOL     OW14428   4.862   2.242   3.540
 4703SOL    HW114429   4.817   2.305   3.604
 4703SOL    HW214430   4.955   2.273   3.523
 4704SOL     OW14431   4.884   2.069   3.339
 4704SOL    HW114432   4.884   2.133   3.416
 4704SOL    HW214433   4.912   2.117   3.256
 4705SOL     OW14434   3.732   3.188   2.062
 4705SOL    HW114435   3.639   3.209   2.031
 4705SOL    HW214436   3.742   3.089   2.075
 4706SOL     OW14437   3.812   3.663   2.789
 4706SOL    HW114438   3.770   3.577   2.762
 4706SOL    HW214439   3.906   3.666   2.755
 4707SOL     OW14440   4.228   3.430   2.772
 4707SOL    HW114441   4.294   3.504   2.781
 4707SOL    HW214442   4.272   3.351   2.730
 4708SOL     OW14443   4.726   2.658   3.100
 4708SOL    HW114444   4.767   2.626   3.186
 4708SOL    HW214445   4.630   2.631   3.097
 4709SOL     OW14446   3.764   2.406   2.976
 4709SOL    HW114447   3.849   2.373   2.935
 4709SOL    HW214448   3.777   2.421   3.074
 4710SOL     OW14449   3.913   2.382   3.584
 4710SOL    HW114450   3.972   2.342   3.514
 4710SOL    HW214451   3.855   2.453   3.543
 4711SOL     OW14452   5.093   2.812   3.522
 4711SOL    HW114453   5.132   2.901   3.542
 4711SOL    HW214454   5.103   2.792   3.425
 4712SOL     OW14455   4.539   2.434   2.187
 4712SOL    HW114456   4.546   2.345   2.141
 4712SOL    HW214457   4.445   2.468   2.179
 4713SOL     OW14458   5.381   2.466   3.068
 4713SOL    HW114459   5.343   2.397   3.130
 4713SOL    HW214460   5.463   2.430   3.024
 4714SOL     OW14461   3.976   3.426   3.606
 4714SOL    HW114462   3.946   3.483   3.682
 4714SOL    HW214463   3.969   3.329   3.632
 4715SOL     OW14464   4.395   2.326   3.131
 4715SOL    HW114465   4.361   2.237   3.101
 4715SOL    HW214466   4.421   2.380   3.051
 4716SOL     OW14467   4.654   3.540   3.327
 4716SOL    HW114468   4.630   3.522   3.232
 4716SOL    HW214469   4.684   3.634   3.337
 4717SOL     OW14470   4.197   2.362   2.053
 4717SOL    HW114471   4.258   2.442   2.057
 4717SOL    HW214472   4.102   2.393   2.060
 4718SOL     OW14473   3.883   2.999   3.328
 4718SOL    HW114474   3.905   2.938   3.404
 4718SOL    HW214475   3.893   2.950   3.242
 4719SOL     OW14476   5.071   2.921   3.096
 4719SOL    HW114477   5.095   2.858   3.022
 4719SOL    HW214478   4.981   2.961   3.078
 4720SOL     OW14479   5.026   2.717   2.171
 4720SOL    HW114480   4.940   2.686   2.213
 4720SOL    HW214481   5.022   2.703   2.072
 4721SOL     OW14482   5.483   3.609   3.016
 4721SOL    HW114483   5.544   3.639   2.943
 4721SOL    HW214484   5.445   3.520   2.994
 4722SOL     OW14485   4.976   3.593   2.990
 4722SOL    HW114486   5.060   3.598   2.936
 4722SOL    HW214487   4.953   3.497   3.008
 4723SOL     OW14488   3.807   3.120   2.884
 4723SOL    HW114489   3.802   3.119   2.984
 4723SOL    HW214490   3.724   3.079   2.846
 4724SOL     OW14491   4.412   3.524   3.578
 4724SOL    HW114492   4.356   3.605   3.587
 4724SOL    HW214493   4.464   3.528   3.492
 4725SOL     OW14494   5.450   1.997   2.385
 4725SOL    HW114495   5.523   1.980   2.318
 4725SOL    HW214496   5.419   1.910   2.423
 4726SOL     OW14497   5.112   3.435   2.339
 4726SOL    HW114498   5.179   3.447   2.265
 4726SOL    HW214499   5.072   3.524   2.362
 4727SOL     OW14500   3.854   3.656   3.713
 4727SOL    HW114501   3.813   3.582   3.766
 4727SOL    HW214502   3.918   3.707   3.771
 4728SOL     OW14503   5.004   2.789   2.534
 4728SOL    HW114504   5.064   2.708   2.536
 4728SOL    HW214505   5.044   2.858   2.474
 4729SOL     OW14506   4.554   3.135   3.284
 4729SOL    HW114507   4.549   3.168   3.379
 4729SOL    HW214508   4.468   3.154   3.238
 4730SOL     OW14509   4.396   3.478   2.016
 4730SOL    HW114510   4.405   3.488   1.917
 4730SOL    HW214511   4.356   3.389   2.037
 4731SOL     OW14512   5.374   3.582   3.256
 4731SOL    HW114513   5.427   3.592   3.172
 4731SOL    HW214514   5.347   3.672   3.290
 4732SOL     OW14515   5.565   2.037   2.825
 4732SOL    HW114516   5.604   1.952   2.789
 4732SOL    HW214517   5.467   2.039   2.806
 4733SOL     OW14518   3.987   2.188   2.582
 4733SOL    HW114519   3.908   2.239   2.548
 4733SOL    HW214520   3.978   2.173   2.680
 4734SOL     OW14521   4.918   3.474   1.893
 4734SOL    HW114522   4.924   3.381   1.930
 4734SOL    HW214523   4.859   3.474   1.813
 4735SOL     OW14524   4.546   2.864   3.234
 4735SOL    HW114525   4.586   2.863   3.142
 4735SOL    HW214526   4.556   2.956   3.274
 4736SOL     OW14527   4.640   2.772   2.153
 4736SOL    HW114528   4.703   2.810   2.085
 4736SOL    HW214529   4.680   2.689   2.192
 4737SOL     OW14530   5.228   3.469   1.906
 4737SOL    HW114531   5.136   3.506   1.913
 4737SOL    HW214532   5.266   3.489   1.816
 4738SOL     OW14533   4.096   3.150   3.352
 4738SOL    HW114534   4.083   3.243   3.318
 4738SOL    HW214535   4.012   3.098   3.339
 4739SOL     OW14536   5.338   3.154   3.151
 4739SOL    HW114537   5.398   3.157   3.231
 4739SOL    HW214538   5.263   3.218   3.164
 4740SOL     OW14539   4.763   2.960   2.558
 4740SOL    HW114540   4.693   2.913   2.612
 4740SOL    HW214541   4.822   2.892   2.515
 4741SOL     OW14542   4.738   2.098   2.833
 4741SOL    HW114543   4.730   2.062   2.740
 4741SOL    HW214544   4.736   2.022   2.898
 4742SOL     OW14545   4.314   3.349   2.353
 4742SOL    HW114546   4.356   3.291   2.283
 4742SOL    HW214547   4.270   3.428   2.309
 4743SOL     OW14548   5.433   2.247   3.243
 4743SOL    HW114549   5.506   2.316   3.247
 4743SOL    HW214550   5.461   2.172   3.184
 4744SOL     OW14551   3.979   3.210   2.152
 4744SOL    HW114552   3.883   3.211   2.125
 4744SOL    HW214553   3.991   3.263   2.236
 4745SOL     OW14554   3.829   2.875   3.588
 4745SOL    HW114555   3.752   2.842   3.642
 4745SOL    HW214556   3.914   2.845   3.630
 4746SOL     OW14557   4.396   2.065   3.351
 4746SOL    HW114558   4.486   2.049   3.311
 4746SOL    HW214559   4.404   2.070   3.450
 4747SOL     OW14560   3.799   2.207   1.895
 4747SOL    HW114561   3.707   2.179   1.866
 4747SOL    HW214562   3.830   2.284   1.839
 4748SOL     OW14563   5.164   2.718   3.260
 4748SOL    HW114564   5.107   2.770   3.197
 4748SOL    HW214565   5.260   2.730   3.236
 4749SOL     OW14566   3.796   2.028   2.180
 4749SOL    HW114567   3.779   2.111   2.126
 4749SOL    HW214568   3.886   1.991   2.158
 4750SOL     OW14569   4.907   3.197   1.981
 4750SOL    HW114570   4.808   3.186   1.983
 4750SOL    HW214571   4.941   3.212   2.074
 4751SOL     OW14572   4.337   2.704   3.293
 4751SOL    HW114573   4.393   2.785   3.276
 4751SOL    HW214574   4.396   2.624   3.296
 4752SOL     OW14575   5.217   3.629   2.821
 4752SOL    HW114576   5.250   3.693   2.752
 4752SOL    HW214577   5.283   3.623   2.896
 4753SOL     OW14578   4.440   2.427   3.570
 4753SOL    HW114579   4.459   2.492   3.644
 4753SOL    HW214580   4.500   2.347   3.579
 4754SOL     OW14581   5.174   3.082   3.495
 4754SOL    HW114582   5.165   3.072   3.594
 4754SOL    HW214583   5.270   3.075   3.469
 4755SOL     OW14584   4.114   3.603   3.422
 4755SOL    HW114585   4.023   3.644   3.420
 4755SOL    HW214586   4.107   3.509   3.454
 4756SOL     OW14587   5.398   2.745   3.116
 4756SOL    HW114588   5.371   2.656   3.079
 4756SOL    HW214589   5.399   2.813   3.043
 4757SOL     OW14590   4.949   2.187   2.311
 4757SOL    HW114591   5.014   2.113   2.300
 4757SOL    HW214592   4.969   2.237   2.395
 4758SOL     OW14593   4.318   2.607   2.514
 4758SOL    HW114594   4.368   2.692   2.495
 4758SOL    HW214595   4.230   2.609   2.466
 4759SOL     OW14596   5.501   2.204   3.504
 4759SOL    HW114597   5.484   2.235   3.410
 4759SOL    HW214598   5.417   2.167   3.542
 4760SOL     OW14599   5.454   2.796   3.379
 4760SOL    HW114600   5.492   2.887   3.394
 4760SOL    HW214601   5.446   2.779   3.280
 4761SOL     OW14602   4.583   3.236   1.878
 4761SOL    HW114603   4.537   3.251   1.966
 4761SOL    HW214604   4.627   3.321   1.848
 4762SOL     OW14605   4.385   3.652   2.815
 4762SOL    HW114606   4.339   3.740   2.802
 4762SOL    HW214607   4.484   3.664   2.808
 4763SOL     OW14608   4.583   2.818   2.723
 4763SOL    HW114609   4.637   2.749   2.771
 4763SOL    HW214610   4.551   2.887   2.789
 4764SOL     OW14611   4.807   2.846   1.949
 4764SOL    HW114612   4.784   2.899   1.867
 4764SOL    HW214613   4.888   2.790   1.930
 4765SOL     OW14614   5.585   3.431   2.713
 4765SOL    HW114615   5.514   3.419   2.643
 4765SOL    HW214616   5.586   3.352   2.773
 4766SOL     OW14617   3.945   3.176   3.706
 4766SOL    HW114618   3.880   3.103   3.685
 4766SOL    HW214619   3.949   3.190   3.804
 4767SOL     OW14620   3.803   3.102   2.515
 4767SOL    HW114621   3.802   3.055   2.603
 4767SOL    HW214622   3.885   3.074   2.464
 4768SOL     OW14623   4.396   3.253   3.486
 4768SOL    HW114624   4.318   3.203   3.524
 4768SOL    HW214625   4.393   3.348   3.517
 4769SOL     OW14626   5.548   2.054   3.089
 4769SOL    HW114627   5.544   1.964   3.133
 4769SOL    HW214628   5.551   2.043   2.990
 4770SOL     OW14629   4.152   2.286   2.382
 4770SOL    HW114630   4.182   2.214   2.320
 4770SOL    HW214631   4.113   2.246   2.465
 4771SOL     OW14632   5.429   3.349   2.966
 4771SOL    HW114633   5.336   3.324   2.939
 4771SOL    HW214634   5.455   3.299   3.048
 4772SOL     OW14635   4.041   2.409   3.142
 4772SOL    HW114636   4.079   2.350   3.214
 4772SOL    HW214637   4.081   2.383   3.054
 4773SOL     OW14638   4.536   3.448   2.549
 4773SOL    HW114639   4.568   3.458   2.455
 4773SOL    HW214640   4.457   3.386   2.551
 4774SOL     OW14641   5.148   2.076   2.974
 4774SOL    HW114642   5.200   2.011   3.029
 4774SOL    HW214643   5.099   2.139   3.035
 4775SOL     OW14644   4.725   1.896   3.016
 4775SOL    HW114645   4.662   1.824   2.985
 4775SOL    HW214646   4.818   1.860   3.016
 4776SOL     OW14647   4.494   3.192   2.163
 4776SOL    HW114648   4.448   3.105   2.180
 4776SOL    HW214649   4.585   3.189   2.204
 4777SOL     OW14650   4.342   3.429   3.146
 4777SOL    HW114651   4.337   3.511   3.203
 4777SOL    HW214652   4.431   3.426   3.101
 4778SOL     OW14653   5.076   1.914   2.030
 4778SOL    HW114654   5.111   1.873   1.946
 4778SOL    HW214655   4.986   1.876   2.050
 4779SOL     OW14656   5.024   2.315   2.553
 4779SOL    HW114657   4.965   2.395   2.557
 4779SOL    HW214658   5.039   2.280   2.646
 4780SOL     OW14659   5.317   2.083   2.744
 4780SOL    HW114660   5.233   2.082   2.798
 4780SOL    HW214661   5.319   2.166   2.688
 4781SOL     OW14662   3.763   2.939   2.162
 4781SOL    HW114663   3.862   2.928   2.153
 4781SOL    HW214664   3.723   2.853   2.194
 4782SOL     OW14665   4.599   3.508   2.199
 4782SOL    HW114666   4.522   3.473   2.145
 4782SOL    HW214667   4.567   3.579   2.261
 4783SOL     OW14668   3.954   2.490   3.837
 4783SOL    HW114669   3.861   2.488   3.874
 4783SOL    HW214670   3.955   2.451   3.745
 4784SOL     OW14671   3.949   2.137   4.720
 4784SOL    HW114672   3.984   2.120   4.812
 4784SOL    HW214673   3.861   2.092   4.708
 4785SOL     OW14674   3.743   2.230   4.371
 4785SOL    HW114675   3.661   2.273   4.410
 4785SOL    HW214676   3.715   2.157   4.308
 4786SOL     OW14677   4.293   3.137   4.889
 4786SOL    HW114678   4.200   3.130   4.852
 4786SOL    HW214679   4.304   3.226   4.933
 4787SOL     OW14680   5.279   3.373   4.427
 4787SOL    HW114681   5.222   3.357   4.508
 4787SOL    HW214682   5.220   3.383   4.347
 4788SOL     OW14683   4.859   2.565   4.441
 4788SOL    HW114684   4.916   2.643   4.416
 4788SOL    HW214685   4.799   2.591   4.517
 4789SOL     OW14686   5.479   2.469   3.955
 4789SOL    HW114687   5.467   2.456   3.856
 4789SOL    HW214688   5.449   2.388   4.004
 4790SOL     OW14689   4.492   3.006   4.747
 4790SOL    HW114690   4.414   3.023   4.807
 4790SOL    HW214691   4.526   3.093   4.711
 4791SOL     OW14692   4.574   2.660   5.547
 4791SOL    HW114693   4.570   2.736   5.612
 4791SOL    HW214694   4.596   2.696   5.456
 4792SOL     OW14695   4.409   2.874   4.389
 4792SOL    HW114696   4.478   2.858   4.459
 4792SOL    HW214697   4.336   2.931   4.427
 4793SOL     OW14698   4.410   3.023   5.527
 4793SOL    HW114699   4.470   3.102   5.541
 4793SOL    HW214700   4.324   3.054   5.486
 4794SOL     OW14701   4.059   3.297   4.785
 4794SOL    HW114702   3.981   3.266   4.732
 4794SOL    HW214703   4.117   3.355   4.728
 4795SOL     OW14704   5.184   3.367   5.063
 4795SOL    HW114705   5.208   3.461   5.089
 4795SOL    HW214706   5.168   3.313   5.145
 4796SOL     OW14707   4.162   2.254   5.223
 4796SOL    HW114708   4.244   2.198   5.232
 4796SOL    HW214709   4.081   2.196   5.227
 4797SOL     OW14710   5.327   2.309   4.461
 4797SOL    HW114711   5.253   2.355   4.411
 4797SOL    HW214712   5.378   2.377   4.514
 4798SOL     OW14713   3.955   3.575   4.207
 4798SOL    HW114714   3.989   3.652   4.261
 4798SOL    HW214715   3.999   3.575   4.117
 4799SOL     OW14716   4.851   3.203   5.414
 4799SOL    HW114717   4.898   3.203   5.502
 4799SOL    HW214718   4.803   3.116   5.403
 4800SOL     OW14719   3.954   3.296   4.262
 4800SOL    HW114720   3.928   3.392   4.262
 4800SOL    HW214721   3.883   3.242   4.307
 4801SOL     OW14722   3.964   2.953   4.610
 4801SOL    HW114723   3.978   2.869   4.662
 4801SOL    HW214724   3.909   3.017   4.665
 4802SOL     OW14725   4.344   3.648   5.163
 4802SOL    HW114726   4.252   3.631   5.198
 4802SOL    HW214727   4.372   3.740   5.189
 4803SOL     OW14728   4.330   2.826   3.847
 4803SOL    HW114729   4.337   2.910   3.793
 4803SOL    HW214730   4.376   2.839   3.935
 4804SOL     OW14731   5.318   1.976   5.204
 4804SOL    HW114732   5.300   2.043   5.132
 4804SOL    HW214733   5.315   2.022   5.293
 4805SOL     OW14734   3.846   2.505   4.287
 4805SOL    HW114735   3.801   2.417   4.304
 4805SOL    HW214736   3.845   2.559   4.371
 4806SOL     OW14737   5.566   3.629   4.083
 4806SOL    HW114738   5.620   3.600   4.163
 4806SOL    HW214739   5.596   3.719   4.054
 4807SOL     OW14740   3.751   3.458   3.841
 4807SOL    HW114741   3.732   3.362   3.862
 4807SOL    HW214742   3.718   3.516   3.916
 4808SOL     OW14743   5.413   2.784   4.336
 4808SOL    HW114744   5.508   2.755   4.344
 4808SOL    HW214745   5.405   2.849   4.261
 4809SOL     OW14746   5.365   2.970   4.156
 4809SOL    HW114747   5.451   2.972   4.104
 4809SOL    HW214748   5.379   3.017   4.244
 4810SOL     OW14749   3.837   2.599   5.321
 4810SOL    HW114750   3.925   2.586   5.366
 4810SOL    HW214751   3.824   2.696   5.299
 4811SOL     OW14752   4.337   3.227   4.450
 4811SOL    HW114753   4.288   3.140   4.459
 4811SOL    HW214754   4.314   3.270   4.363
 4812SOL     OW14755   5.017   3.090   5.147
 4812SOL    HW114756   5.054   3.017   5.089
 4812SOL    HW214757   5.069   3.095   5.232
 4813SOL     OW14758   4.533   1.866   4.226
 4813SOL    HW114759   4.573   1.957   4.217
 4813SOL    HW214760   4.433   1.874   4.232
 4814SOL     OW14761   3.921   2.838   4.988
 4814SOL    HW114762   4.010   2.793   4.974
 4814SOL    HW214763   3.848   2.773   4.969
 4815SOL     OW14764   5.249   2.861   3.914
 4815SOL    HW114765   5.186   2.785   3.927
 4815SOL    HW214766   5.297   2.879   4.000
 4816SOL     OW14767   4.911   3.654   5.340
 4816SOL    HW114768   4.935   3.714   5.264
 4816SOL    HW214769   4.918   3.559   5.310
 4817SOL     OW14770   4.041   2.113   5.525
 4817SOL    HW114771   4.112   2.184   5.531
 4817SOL    HW214772   3.953   2.152   5.553
 4818SOL     OW14773   5.190   3.279   4.677
 4818SOL    HW114774   5.131   3.285   4.757
 4818SOL    HW214775   5.175   3.191   4.631
 4819SOL     OW14776   5.391   3.576   4.296
 4819SOL    HW114777   5.350   3.553   4.208
 4819SOL    HW214778   5.373   3.502   4.361
 4820SOL     OW14779   4.322   2.591   3.994
 4820SOL    HW114780   4.346   2.660   3.926
 4820SOL    HW214781   4.244   2.624   4.048
 4821SOL     OW14782   5.005   2.207   4.668
 4821SOL    HW114783   4.919   2.157   4.655
 4821SOL    HW214784   5.067   2.153   4.724
 4822SOL     OW14785   5.300   3.524   4.031
 4822SOL    HW114786   5.389   3.570   4.034
 4822SOL    HW214787   5.279   3.500   3.936
 4823SOL     OW14788   4.531   2.467   5.189
 4823SOL    HW114789   4.484   2.464   5.278
 4823SOL    HW214790   4.480   2.412   5.123
 4824SOL     OW14791   5.118   2.331   5.398
 4824SOL    HW114792   5.098   2.374   5.486
 4824SOL    HW214793   5.196   2.269   5.407
 4825SOL     OW14794   4.697   2.752   5.296
 4825SOL    HW114795   4.743   2.668   5.267
 4825SOL    HW214796   4.641   2.786   5.221
 4826SOL     OW14797   4.715   2.272   4.966
 4826SOL    HW114798   4.638   2.306   5.020
 4826SOL    HW214799   4.681   2.221   4.887
 4827SOL     OW14800   4.765   2.563   4.153
 4827SOL    HW114801   4.791   2.559   4.249
 4827SOL    HW214802   4.680   2.512   4.139
 4828SOL     OW14803   3.800   2.673   4.513
 4828SOL    HW114804   3.899   2.661   4.522
 4828SOL    HW214805   3.776   2.768   4.534
 4829SOL     OW14806   3.854   3.683   5.295
 4829SOL    HW114807   3.844   3.668   5.394
 4829SOL    HW214808   3.768   3.719   5.259
 4830SOL     OW14809   4.589   2.210   3.919
 4830SOL    HW114810   4.648   2.273   3.870
 4830SOL    HW214811   4.608   2.116   3.890
 4831SOL     OW14812   5.443   2.447   5.555
 4831SOL    HW114813   5.417   2.536   5.519
 4831SOL    HW214814   5.441   2.379   5.482
 4832SOL     OW14815   5.086   3.006   4.269
 4832SOL    HW114816   5.169   2.977   4.221
 4832SOL    HW214817   5.037   3.073   4.213
 4833SOL     OW14818   4.274   2.058   4.609
 4833SOL    HW114819   4.269   2.053   4.709
 4833SOL    HW214820   4.276   2.154   4.580
 4834SOL     OW14821   4.732   3.318   4.201
 4834SOL    HW114822   4.686   3.390   4.149
 4834SOL    HW214823   4.728   3.338   4.299
 4835SOL     OW14824   4.075   3.663   4.577
 4835SOL    HW114825   4.125   3.577   4.583
 4835SOL    HW214826   4.140   3.740   4.574
 4836SOL     OW14827   5.519   2.928   4.597
 4836SOL    HW114828   5.457   2.913   4.521
 4836SOL    HW214829   5.467   2.939   4.682
 4837SOL     OW14830   4.951   3.412   5.230
 4837SOL    HW114831   4.957   3.335   5.294
 4837SOL    HW214832   4.899   3.386   5.150
 4838SOL     OW14833   4.045   2.805   3.966
 4838SOL    HW114834   4.127   2.844   3.924
 4838SOL    HW214835   4.018   2.723   3.917
 4839SOL     OW14836   5.182   2.597   4.452
 4839SOL    HW114837   5.177   2.532   4.527
 4839SOL    HW214838   5.262   2.656   4.465
 4840SOL     OW14839   4.185   3.128   5.451
 4840SOL    HW114840   4.135   3.129   5.365
 4840SOL    HW214841   4.122   3.110   5.527
 4841SOL     OW14842   4.835   3.638   3.961
 4841SOL    HW114843   4.775   3.576   4.011
 4841SOL    HW214844   4.866   3.594   3.876
 4842SOL     OW14845   3.926   2.147   5.222
 4842SOL    HW114846   3.846   2.207   5.209
 4842SOL    HW214847   3.916   2.098   5.308
 4843SOL     OW14848   5.356   3.239   3.805
 4843SOL    HW114849   5.324   3.333   3.795
 4843SOL    HW214850   5.280   3.176   3.793
 4844SOL     OW14851   4.188   3.605   4.047
 4844SOL    HW114852   4.221   3.644   4.133
 4844SOL    HW214853   4.264   3.598   3.982
 4845SOL     OW14854   5.124   1.969   4.150
 4845SOL    HW114855   5.100   1.932   4.060
 4845SOL    HW214856   5.223   1.985   4.154
 4846SOL     OW14857   3.973   3.647   4.965
 4846SOL    HW114858   4.030   3.582   5.015
 4846SOL    HW214859   3.957   3.614   4.872
 4847SOL     OW14860   4.664   3.560   4.628
 4847SOL    HW114861   4.744   3.503   4.649
 4847SOL    HW214862   4.615   3.520   4.551
 4848SOL     OW14863   4.106   2.562   4.204
 4848SOL    HW114864   4.151   2.472   4.201
 4848SOL    HW214865   4.012   2.551   4.237
 4849SOL     OW14866   5.271   2.084   5.453
 4849SOL    HW114867   5.266   2.121   5.545
 4849SOL    HW214868   5.199   2.015   5.441
 4850SOL     OW14869   4.338   1.984   3.841
 4850SOL    HW114870   4.436   1.962   3.848
 4850SOL    HW214871   4.307   1.967   3.748
 4851SOL     OW14872   4.505   2.126   5.473
 4851SOL    HW114873   4.572   2.065   5.516
 4851SOL    HW214874   4.432   2.145   5.538
 4852SOL     OW14875   4.612   3.376   4.919
 4852SOL    HW114876   4.589   3.351   4.825
 4852SOL    HW214877   4.673   3.307   4.958
 4853SOL     OW14878   5.075   2.452   5.157
 4853SOL    HW114879   5.103   2.409   5.242
 4853SOL    HW214880   5.100   2.548   5.158
 4854SOL     OW14881   4.527   3.264   4.648
 4854SOL    HW114882   4.617   3.278   4.606
 4854SOL    HW214883   4.456   3.266   4.577
 4855SOL     OW14884   4.646   2.365   4.623
 4855SOL    HW114885   4.621   2.356   4.527
 4855SOL    HW214886   4.694   2.283   4.654
 4856SOL     OW14887   4.263   1.926   4.236
 4856SOL    HW114888   4.182   1.927   4.294
 4856SOL    HW214889   4.266   2.009   4.181
 4857SOL     OW14890   5.158   3.050   3.765
 4857SOL    HW114891   5.190   2.974   3.822
 4857SOL    HW214892   5.066   3.077   3.795
 4858SOL     OW14893   4.021   1.897   3.895
 4858SOL    HW114894   4.070   1.981   3.874
 4858SOL    HW214895   4.083   1.832   3.940
 4859SOL     OW14896   4.659   2.098   4.204
 4859SOL    HW114897   4.611   2.139   4.126
 4859SOL    HW214898   4.758   2.096   4.185
 4860SOL     OW14899   4.800   2.545   5.188
 4860SOL    HW114900   4.720   2.484   5.191
 4860SOL    HW214901   4.881   2.492   5.164
 4861SOL     OW14902   4.951   3.432   4.517
 4861SOL    HW114903   4.972   3.506   4.452
 4861SOL    HW214904   5.019   3.432   4.590
 4862SOL     OW14905   4.183   3.014   4.465
 4862SOL    HW114906   4.112   2.987   4.530
 4862SOL    HW214907   4.157   2.986   4.372
 4863SOL     OW14908   4.995   3.659   4.315
 4863SOL    HW114909   5.039   3.723   4.251
 4863SOL    HW214910   4.945   3.711   4.385
 4864SOL     OW14911   4.756   2.411   3.740
 4864SOL    HW114912   4.715   2.493   3.701
 4864SOL    HW214913   4.820   2.437   3.813
 4865SOL     OW14914   3.802   2.418   5.110
 4865SOL    HW114915   3.894   2.417   5.069
 4865SOL    HW214916   3.796   2.492   5.177
 4866SOL     OW14917   4.285   2.084   4.871
 4866SOL    HW114918   4.323   2.000   4.908
 4866SOL    HW214919   4.197   2.103   4.915
 4867SOL     OW14920   4.590   2.316   4.366
 4867SOL    HW114921   4.558   2.388   4.304
 4867SOL    HW214922   4.614   2.235   4.313
 4868SOL     OW14923   4.741   1.901   4.477
 4868SOL    HW114924   4.669   1.906   4.408
 4868SOL    HW214925   4.717   1.832   4.546
 4869SOL     OW14926   5.153   3.035   4.591
 4869SOL    HW114927   5.098   2.951   4.584
 4869SOL    HW214928   5.179   3.064   4.499
 4870SOL     OW14929   5.190   2.452   4.716
 4870SOL    HW114930   5.160   2.357   4.723
 4870SOL    HW214931   5.263   2.468   4.782
 4871SOL     OW14932   5.581   2.695   4.101
 4871SOL    HW114933   5.623   2.631   4.165
 4871SOL    HW214934   5.543   2.644   4.023
 4872SOL     OW14935   4.212   3.247   3.898
 4872SOL    HW114936   4.125   3.232   3.945
 4872SOL    HW214937   4.195   3.273   3.803
 4873SOL     OW14938   5.388   3.142   4.381
 4873SOL    HW114939   5.487   3.150   4.395
 4873SOL    HW214940   5.343   3.226   4.412
 4874SOL     OW14941   5.114   2.437   3.802
 4874SOL    HW114942   5.060   2.416   3.883
 4874SOL    HW214943   5.205   2.396   3.811
 4875SOL     OW14944   4.251   2.118   4.052
 4875SOL    HW114945   4.278   2.059   3.977
 4875SOL    HW214946   4.251   2.213   4.021
 4876SOL     OW14947   5.478   3.085   5.312
 4876SOL    HW114948   5.569   3.046   5.299
 4876SOL    HW214949   5.486   3.181   5.336
 4877SOL     OW14950   4.788   3.209   5.064
 4877SOL    HW114951   4.708   3.186   5.119
 4877SOL    HW214952   4.871   3.183   5.113
 4878SOL     OW14953   5.316   3.491   5.349
 4878SOL    HW114954   5.343   3.525   5.259
 4878SOL    HW214955   5.395   3.453   5.395
 4879SOL     OW14956   4.835   3.057   4.824
 4879SOL    HW114957   4.795   3.101   4.905
 4879SOL    HW214958   4.794   3.094   4.741
 4880SOL     OW14959   5.362   2.961   4.803
 4880SOL    HW114960   5.367   3.042   4.862
 4880SOL    HW214961   5.276   2.963   4.752
 4881SOL     OW14962   4.639   1.951   5.126
 4881SOL    HW114963   4.664   1.931   5.031
 4881SOL    HW214964   4.711   2.007   5.168
 4882SOL     OW14965   4.704   2.978   5.443
 4882SOL    HW114966   4.605   2.984   5.453
 4882SOL    HW214967   4.727   2.898   5.387
 4883SOL     OW14968   4.429   2.912   4.092
 4883SOL    HW114969   4.415   2.919   4.191
 4883SOL    HW214970   4.513   2.861   4.074
 4884SOL     OW14971   4.134   2.675   4.975
 4884SOL    HW114972   4.220   2.687   5.025
 4884SOL    HW214973   4.092   2.588   5.002
 4885SOL     OW14974   4.998   2.248   4.986
 4885SOL    HW114975   5.019   2.322   5.050
 4885SOL    HW214976   4.909   2.265   4.943
 4886SOL     OW14977   3.788   3.426   5.055
 4886SOL    HW114978   3.742   3.508   5.021
 4886SOL    HW214979   3.886   3.445   5.064
 4887SOL     OW14980   4.091   2.962   4.225
 4887SOL    HW114981   4.084   3.045   4.169
 4887SOL    HW214982   4.095   2.882   4.165
 4888SOL     OW14983   4.290   2.399   4.589
 4888SOL    HW114984   4.302   2.465   4.515
 4888SOL    HW214985   4.336   2.433   4.672
 4889SOL     OW14986   4.976   3.210   4.112
 4889SOL    HW114987   5.026   3.287   4.152
 4889SOL    HW214988   4.881   3.212   4.144
 4890SOL     OW14989   4.996   3.307   4.866
 4890SOL    HW114990   5.043   3.320   4.953
 4890SOL    HW214991   4.930   3.233   4.875
 4891SOL     OW14992   5.306   2.501   4.196
 4891SOL    HW114993   5.275   2.562   4.269
 4891SOL    HW214994   5.356   2.553   4.127
 4892SOL     OW14995   4.078   3.372   5.053
 4892SOL    HW114996   4.057   3.328   4.966
 4892SOL    HW214997   4.175   3.398   5.056
 4893SOL     OW14998   4.126   2.613   5.322
 4893SOL    HW114999   4.194   2.668   5.275
 4893SOL    HW215000   4.166   2.525   5.349
 4894SOL     OW15001   5.311   2.641   5.394
 4894SOL    HW115002   5.219   2.679   5.389
 4894SOL    HW215003   5.371   2.688   5.329
 4895SOL     OW15004   4.737   1.967   5.494
 4895SOL    HW115005   4.743   2.052   5.442
 4895SOL    HW215006   4.769   1.891   5.437
 4896SOL     OW15007   4.228   1.912   5.464
 4896SOL    HW115008   4.186   1.855   5.394
 4896SOL    HW215009   4.162   1.981   5.496
 4897SOL     OW15010   4.297   2.732   4.753
 4897SOL    HW115011   4.341   2.821   4.744
 4897SOL    HW215012   4.234   2.732   4.830
 4898SOL     OW15013   5.084   2.724   4.769
 4898SOL    HW115014   5.009   2.724   4.703
 4898SOL    HW215015   5.121   2.632   4.778
 4899SOL     OW15016   4.933   2.387   3.999
 4899SOL    HW115017   4.946   2.303   4.053
 4899SOL    HW215018   4.904   2.461   4.059
 4900SOL     OW15019   4.031   2.075   4.955
 4900SOL    HW115020   4.008   2.112   5.045
 4900SOL    HW215021   4.001   1.980   4.949
 4901SOL     OW15022   3.761   3.172   5.006
 4901SOL    HW115023   3.814   3.123   5.074
 4901SOL    HW215024   3.783   3.270   5.011
 4902SOL     OW15025   4.456   2.496   4.788
 4902SOL    HW115026   4.515   2.470   4.712
 4902SOL    HW215027   4.428   2.592   4.777
 4903SOL     OW15028   5.452   2.797   5.578
 4903SOL    HW115029   5.406   2.790   5.489
 4903SOL    HW215030   5.390   2.841   5.644
 4904SOL     OW15031   4.031   1.925   4.342
 4904SOL    HW115032   4.020   2.019   4.375
 4904SOL    HW215033   4.026   1.862   4.419
 4905SOL     OW15034   5.346   2.229   4.098
 4905SOL    HW115035   5.348   2.153   4.162
 4905SOL    HW215036   5.298   2.306   4.138
 4906SOL     OW15037   4.747   2.628   4.690
 4906SOL    HW115038   4.762   2.649   4.786
 4906SOL    HW215039   4.717   2.533   4.681
 4907SOL     OW15040   4.704   3.435   5.424
 4907SOL    HW115041   4.684   3.479   5.336
 4907SOL    HW215042   4.743   3.344   5.408
 4908SOL     OW15043   5.583   3.380   5.329
 4908SOL    HW115044   5.597   3.407   5.234
 4908SOL    HW215045   5.666   3.402   5.382
 4909SOL     OW15046   4.074   2.760   5.528
 4909SOL    HW115047   4.150   2.804   5.576
 4909SOL    HW215048   4.109   2.713   5.446
 4910SOL     OW15049   5.264   2.136   3.849
 4910SOL    HW115050   5.203   2.061   3.872
 4910SOL    HW215051   5.286   2.188   3.932
 4911SOL     OW15052   5.027   2.700   3.766
 4911SOL    HW115053   5.061   2.607   3.781
 4911SOL    HW215054   5.045   2.727   3.671
 4912SOL     OW15055   4.792   3.195   4.573
 4912SOL    HW115056   4.799   3.111   4.518
 4912SOL    HW215057   4.854   3.264   4.537
 4913SOL     OW15058   4.043   2.672   4.673
 4913SOL    HW115059   4.136   2.708   4.678
 4913SOL    HW215060   4.037   2.587   4.725
 4914SOL     OW15061   4.063   2.371   4.730
 4914SOL    HW115062   4.011   2.288   4.713
 4914SOL    HW215063   4.140   2.376   4.666
 4915SOL     OW15064   4.862   2.242   5.402
 4915SOL    HW115065   4.817   2.305   5.466
 4915SOL    HW215066   4.955   2.273   5.385
 4916SOL     OW15067   4.884   2.069   5.201
 4916SOL    HW115068   4.884   2.133   5.278
 4916SOL    HW215069   4.912   2.117   5.118
 4917SOL     OW15070   3.732   3.188   3.924
 4917SOL    HW115071   3.639   3.209   3.893
 4917SOL    HW215072   3.742   3.089   3.937
 4918SOL     OW15073   3.812   3.663   4.651
 4918SOL    HW115074   3.770   3.577   4.624
 4918SOL    HW215075   3.906   3.666   4.617
 4919SOL     OW15076   4.228   3.430   4.634
 4919SOL    HW115077   4.294   3.504   4.643
 4919SOL    HW215078   4.272   3.351   4.592
 4920SOL     OW15079   4.726   2.658   4.962
 4920SOL    HW115080   4.767   2.626   5.048
 4920SOL    HW215081   4.630   2.631   4.959
 4921SOL     OW15082   3.764   2.406   4.838
 4921SOL    HW115083   3.849   2.373   4.797
 4921SOL    HW215084   3.777   2.421   4.936
 4922SOL     OW15085   3.913   2.382   5.446
 4922SOL    HW115086   3.972   2.342   5.376
 4922SOL    HW215087   3.855   2.453   5.405
 4923SOL     OW15088   5.093   2.812   5.384
 4923SOL    HW115089   5.132   2.901   5.404
 4923SOL    HW215090   5.103   2.792   5.287
 4924SOL     OW15091   4.539   2.434   4.049
 4924SOL    HW115092   4.546   2.345   4.003
 4924SOL    HW215093   4.445   2.468   4.041
 4925SOL     OW15094   5.381   2.466   4.930
 4925SOL    HW115095   5.343   2.397   4.992
 4925SOL    HW215096   5.463   2.430   4.886
 4926SOL     OW15097   3.976   3.426   5.468
 4926SOL    HW115098   3.946   3.483   5.544
 4926SOL    HW215099   3.969   3.329   5.494
 4927SOL     OW15100   4.395   2.326   4.993
 4927SOL    HW115101   4.361   2.237   4.963
 4927SOL    HW215102   4.421   2.380   4.913
 4928SOL     OW15103   4.654   3.540   5.189
 4928SOL    HW115104   4.630   3.522   5.094
 4928SOL    HW215105   4.684   3.634   5.199
 4929SOL     OW15106   4.197   2.362   3.915
 4929SOL    HW115107   4.258   2.442   3.919
 4929SOL    HW215108   4.102   2.393   3.922
 4930SOL     OW15109   3.883   2.999   5.190
 4930SOL    HW115110   3.905   2.938   5.266
 4930SOL    HW215111   3.893   2.950   5.104
 4931SOL     OW15112   5.071   2.921   4.958
 4931SOL    HW115113   5.095   2.858   4.884
 4931SOL    HW215114   4.981   2.961   4.940
 4932SOL     OW15115   5.026   2.717   4.033
 4932SOL    HW115116   4.940   2.686   4.075
 4932SOL    HW215117   5.022   2.703   3.934
 4933SOL     OW15118   5.483   3.609   4.878
 4933SOL    HW115119   5.544   3.639   4.805
 4933SOL    HW215120   5.445   3.520   4.856
 4934SOL     OW15121   4.976   3.593   4.852
 4934SOL    HW115122   5.060   3.598   4.798
 4934SOL    HW215123   4.953   3.497   4.870
 4935SOL     OW15124   3.807   3.120   4.746
 4935SOL    HW115125   3.802   3.119   4.846
 4935SOL    HW215126   3.724   3.079   4.708
 4936SOL     OW15127   4.412   3.524   5.440
 4936SOL    HW115128   4.356   3.605   5.449
 4936SOL    HW215129   4.464   3.528   5.354
 4937SOL     OW15130   5.450   1.997   4.247
 4937SOL    HW115131   5.523   1.980   4.180
 4937SOL    HW215132   5.419   1.910   4.285
 4938SOL     OW15133   5.112   3.435   4.201
 4938SOL    HW115134   5.179   3.447   4.127
 4938SOL    HW215135   5.072   3.524   4.224
 4939SOL     OW15136   3.854   3.656   5.575
 4939SOL    HW115137   3.813   3.582   5.628
 4939SOL    HW215138   3.918   3.707   5.633
 4940SOL     OW15139   5.004   2.789   4.396
 4940SOL    HW115140   5.064   2.708   4.398
 4940SOL    HW215141   5.044   2.858   4.336
 4941SOL     OW15142   4.554   3.135   5.146
 4941SOL    HW115143   4.549   3.168   5.241
 4941SOL    HW215144   4.468   3.154   5.100
 4942SOL     OW15145   4.396   3.478   3.878
 4942SOL    HW115146   4.405   3.488   3.779
 4942SOL    HW215147   4.356   3.389   3.899
 4943SOL     OW15148   5.374   3.582   5.118
 4943SOL    HW115149   5.427   3.592   5.034
 4943SOL    HW215150   5.347   3.672   5.152
 4944SOL     OW15151   5.565   2.037   4.687
 4944SOL    HW115152   5.604   1.952   4.651
 4944SOL    HW215153   5.467   2.039   4.668
 4945SOL     OW15154   3.987   2.188   4.444
 4945SOL    HW115155   3.908   2.239   4.410
 4945SOL    HW215156   3.978   2.173   4.542
 4946SOL     OW15157   4.918   3.474   3.755
 4946SOL    HW115158   4.924   3.381   3.792
 4946SOL    HW215159   4.859   3.474   3.675
 4947SOL     OW15160   4.546   2.864   5.096
 4947SOL    HW115161   4.586   2.863   5.004
 4947SOL    HW215162   4.556   2.956   5.136
 4948SOL     OW15163   4.640   2.772   4.015
 4948SOL    HW115164   4.703   2.810   3.947
 4948SOL    HW215165   4.680   2.689   4.054
 4949SOL     OW15166   5.228   3.469   3.768
 4949SOL    HW115167   5.136   3.506   3.775
 4949SOL    HW215168   5.266   3.489   3.678
 4950SOL     OW15169   4.096   3.150   5.214
 4950SOL    HW115170   4.083   3.243   5.180
 4950SOL    HW215171   4.012   3.098   5.201
 4951SOL     OW15172   5.338   3.154   5.013
 4951SOL    HW115173   5.398   3.157   5.093
 4951SOL    HW215174   5.263   3.218   5.026
 4952SOL     OW15175   4.763   2.960   4.420
 4952SOL    HW115176   4.693   2.913   4.474
 4952SOL    HW215177   4.822   2.892   4.377
 4953SOL     OW15178   4.738   2.098   4.695
 4953SOL    HW115179   4.730   2.062   4.602
 4953SOL    HW215180   4.736   2.022   4.760
 4954SOL     OW15181   4.314   3.349   4.215
 4954SOL    HW115182   4.356   3.291   4.145
 4954SOL    HW215183   4.270   3.428   4.171
 4955SOL     OW15184   5.433   2.247   5.105
 4955SOL    HW115185   5.506   2.316   5.109
 4955SOL    HW215186   5.461   2.172   5.046
 4956SOL     OW15187   3.979   3.210   4.014
 4956SOL    HW115188   3.883   3.211   3.987
 4956SOL    HW215189   3.991   3.263   4.098
 4957SOL     OW15190   3.829   2.875   5.450
 4957SOL    HW115191   3.752   2.842   5.504
 4957SOL    HW215192   3.914   2.845   5.492
 4958SOL     OW15193   4.396   2.065   5.213
 4958SOL    HW115194   4.486   2.049   5.173
 4958SOL    HW215195   4.404   2.070   5.312
 4959SOL     OW15196   3.799   2.207   3.757
 4959SOL    HW115197   3.707   2.179   3.728
 4959SOL    HW215198   3.830   2.284   3.701
 4960SOL     OW15199   5.164   2.718   5.122
 4960SOL    HW115200   5.107   2.770   5.059
 4960SOL    HW215201   5.260   2.730   5.098
 4961SOL     OW15202   3.796   2.028   4.042
 4961SOL    HW115203   3.779   2.111   3.988
 4961SOL    HW215204   3.886   1.991   4.020
 4962SOL     OW15205   4.907   3.197   3.843
 4962SOL    HW115206   4.808   3.186   3.845
 4962SOL    HW215207   4.941   3.212   3.936
 4963SOL     OW15208   4.337   2.704   5.155
 4963SOL    HW115209   4.393   2.785   5.138
 4963SOL    HW215210   4.396   2.624   5.158
 4964SOL     OW15211   5.217   3.629   4.683
 4964SOL    HW115212   5.250   3.693   4.614
 4964SOL    HW215213   5.283   3.623   4.758
 4965SOL     OW15214   4.440   2.427   5.432
 4965SOL    HW115215   4.459   2.492   5.506
 4965SOL    HW215216   4.500   2.347   5.441
 4966SOL     OW15217   5.174   3.082   5.357
 4966SOL    HW115218   5.165   3.072   5.456
 4966SOL    HW215219   5.270   3.075   5.331
 4967SOL     OW15220   4.114   3.603   5.284
 4967SOL    HW115221   4.023   3.644   5.282
 4967SOL    HW215222   4.107   3.509   5.316
 4968SOL     OW15223   5.398   2.745   4.978
 4968SOL    HW115224   5.371   2.656   4.941
 4968SOL    HW215225   5.399   2.813   4.905
 4969SOL     OW15226   4.949   2.187   4.173
 4969SOL    HW115227   5.014   2.113   4.162
 4969SOL    HW215228   4.969   2.237   4.257
 4970SOL     OW15229   4.318   2.607   4.376
 4970SOL    HW115230   4.368   2.692   4.357
 4970SOL    HW215231   4.230   2.609   4.328
 4971SOL     OW15232   5.501   2.204   5.366
 4971SOL    HW115233   5.484   2.235   5.272
 4971SOL    HW215234   5.417   2.167   5.404
 4972SOL     OW15235   5.454   2.796   5.241
 4972SOL    HW115236   5.492   2.887   5.256
 4972SOL    HW215237   5.446   2.779   5.142
 4973SOL     OW15238   4.583   3.236   3.740
 4973SOL    HW115239   4.537   3.251   3.828
 4973SOL    HW215240   4.627   3.321   3.710
 4974SOL     OW15241   4.385   3.652   4.677
 4974SOL    HW115242   4.339   3.740   4.664
 4974SOL    HW215243   4.484   3.664   4.670
 4975SOL     OW15244   4.583   2.818   4.585
 4975SOL    HW115245   4.637   2.749   4.633
 4975SOL    HW215246   4.551   2.887   4.651
 4976SOL     OW15247   4.807   2.846   3.811
 4976SOL    HW115248   4.784   2.899   3.729
 4976SOL    HW215249   4.888   2.790   3.792
 4977SOL     OW15250   5.585   3.431   4.575
 4977SOL    HW115251   5.514   3.419   4.505
 4977SOL    HW215252   5.586   3.352   4.635
 4978SOL     OW15253   3.945   3.176   5.568
 4978SOL    HW115254   3.880   3.103   5.547
 4978SOL    HW215255   3.949   3.190   5.666
 4979SOL     OW15256   3.803   3.102   4.377
 4979SOL    HW115257   3.802   3.055   4.465
 4979SOL    HW215258   3.885   3.074   4.326
 4980SOL     OW15259   4.396   3.253   5.348
 4980SOL    HW115260   4.318   3.203   5.386
 4980SOL    HW215261   4.393   3.348   5.379
 4981SOL     OW15262   5.548   2.054   4.951
 4981SOL    HW115263   5.544   1.964   4.995
 4981SOL    HW215264   5.551   2.043   4.852
 4982SOL     OW15265   4.152   2.286   4.244
 4982SOL    HW115266   4.182   2.214   4.182
 4982SOL    HW215267   4.113   2.246   4.327
 4983SOL     OW15268   5.429   3.349   4.828
 4983SOL    HW115269   5.336   3.324   4.801
 4983SOL    HW215270   5.455   3.299   4.910
 4984SOL     OW15271   4.041   2.409   5.004
 4984SOL    HW115272   4.079   2.350   5.076
 4984SOL    HW215273   4.081   2.383   4.916
 4985SOL     OW15274   4.536   3.448   4.411
 4985SOL    HW115275   4.568   3.458   4.317
 4985SOL    HW215276   4.457   3.386   4.413
 4986SOL     OW15277   5.148   2.076   4.836
 4986SOL    HW115278   5.200   2.011   4.891
 4986SOL    HW215279   5.099   2.139   4.897
 4987SOL     OW15280   4.725   1.896   4.878
 4987SOL    HW115281   4.662   1.824   4.847
 4987SOL    HW215282   4.818   1.860   4.878
 4988SOL     OW15283   4.494   3.192   4.025
 4988SOL    HW115284   4.448   3.105   4.042
 4988SOL    HW215285   4.585   3.189   4.066
 4989SOL     OW15286   4.342   3.429   5.008
 4989SOL    HW115287   4.337   3.511   5.065
 4989SOL    HW215288   4.431   3.426   4.963
 4990SOL     OW15289   5.076   1.914   3.892
 4990SOL    HW115290   5.111   1.873   3.808
 4990SOL    HW215291   4.986   1.876   3.912
 4991SOL     OW15292   5.024   2.315   4.415
 4991SOL    HW115293   4.965   2.395   4.419
 4991SOL    HW215294   5.039   2.280   4.508
 4992SOL     OW15295   5.317   2.083   4.606
 4992SOL    HW115296   5.233   2.082   4.660
 4992SOL    HW215297   5.319   2.166   4.550
 4993SOL     OW15298   3.763   2.939   4.024
 4993SOL    HW115299   3.862   2.928   4.015
 4993SOL    HW215300   3.723   2.853   4.056
 4994SOL     OW15301   4.599   3.508   4.061
 4994SOL    HW115302   4.522   3.473   4.007
 4994SOL    HW215303   4.567   3.579   4.123
 4995SOL     OW15304   3.954   4.352   0.113
 4995SOL    HW115305   3.861   4.350   0.150
 4995SOL    HW215306   3.955   4.313   0.021
 4996SOL     OW15307   3.949   3.999   0.996
 4996SOL    HW115308   3.984   3.982   1.088
 4996SOL    HW215309   3.861   3.954   0.984
 4997SOL     OW15310   3.743   4.092   0.647
 4997SOL    HW115311   3.661   4.135   0.686
 4997SOL    HW215312   3.715   4.019   0.584
 4998SOL     OW15313   4.293   4.999   1.165
 4998SOL    HW115314   4.200   4.992   1.128
 4998SOL    HW215315   4.304   5.088   1.209
 4999SOL     OW15316   5.279   5.235   0.703
 4999SOL    HW115317   5.222   5.219   0.784
 4999SOL    HW215318   5.220   5.245   0.623
 5000SOL     OW15319   4.859   4.427   0.717
 5000SOL    HW115320   4.916   4.505   0.692
 5000SOL    HW215321   4.799   4.453   0.793
 5001SOL     OW15322   5.479   4.331   0.231
 5001SOL    HW115323   5.467   4.318   0.132
 5001SOL    HW215324   5.449   4.250   0.280
 5002SOL     OW15325   4.492   4.868   1.023
 5002SOL    HW115326   4.414   4.885   1.083
 5002SOL    HW215327   4.526   4.955   0.987
 5003SOL     OW15328   4.574   4.522   1.823
 5003SOL    HW115329   4.570   4.598   1.888
 5003SOL    HW215330   4.596   4.558   1.732
 5004SOL     OW15331   4.409   4.736   0.665
 5004SOL    HW115332   4.478   4.720   0.735
 5004SOL    HW215333   4.336   4.793   0.703
 5005SOL     OW15334   4.410   4.885   1.803
 5005SOL    HW115335   4.470   4.964   1.817
 5005SOL    HW215336   4.324   4.916   1.762
 5006SOL     OW15337   4.059   5.159   1.061
 5006SOL    HW115338   3.981   5.128   1.008
 5006SOL    HW215339   4.117   5.217   1.004
 5007SOL     OW15340   5.184   5.229   1.339
 5007SOL    HW115341   5.208   5.323   1.365
 5007SOL    HW215342   5.168   5.175   1.421
 5008SOL     OW15343   4.162   4.116   1.499
 5008SOL    HW115344   4.244   4.060   1.508
 5008SOL    HW215345   4.081   4.058   1.503
 5009SOL     OW15346   5.327   4.171   0.737
 5009SOL    HW115347   5.253   4.217   0.687
 5009SOL    HW215348   5.378   4.239   0.790
 5010SOL     OW15349   3.955   5.437   0.483
 5010SOL    HW115350   3.989   5.514   0.537
 5010SOL    HW215351   3.999   5.437   0.393
 5011SOL     OW15352   4.851   5.065   1.690
 5011SOL    HW115353   4.898   5.065   1.778
 5011SOL    HW215354   4.803   4.978   1.679
 5012SOL     OW15355   3.954   5.158   0.538
 5012SOL    HW115356   3.928   5.254   0.538
 5012SOL    HW215357   3.883   5.104   0.583
 5013SOL     OW15358   3.964   4.815   0.886
 5013SOL    HW115359   3.978   4.731   0.938
 5013SOL    HW215360   3.909   4.879   0.941
 5014SOL     OW15361   4.344   5.510   1.439
 5014SOL    HW115362   4.252   5.493   1.474
 5014SOL    HW215363   4.372   5.602   1.465
 5015SOL     OW15364   4.330   4.688   0.123
 5015SOL    HW115365   4.337   4.772   0.069
 5015SOL    HW215366   4.376   4.701   0.211
 5016SOL     OW15367   5.318   3.838   1.480
 5016SOL    HW115368   5.300   3.905   1.408
 5016SOL    HW215369   5.315   3.884   1.569
 5017SOL     OW15370   3.846   4.367   0.563
 5017SOL    HW115371   3.801   4.279   0.580
 5017SOL    HW215372   3.845   4.421   0.647
 5018SOL     OW15373   5.566   5.491   0.359
 5018SOL    HW115374   5.620   5.462   0.439
 5018SOL    HW215375   5.596   5.581   0.330
 5019SOL     OW15376   3.751   5.320   0.117
 5019SOL    HW115377   3.732   5.224   0.138
 5019SOL    HW215378   3.718   5.378   0.192
 5020SOL     OW15379   5.413   4.646   0.612
 5020SOL    HW115380   5.508   4.617   0.620
 5020SOL    HW215381   5.405   4.711   0.537
 5021SOL     OW15382   5.365   4.832   0.432
 5021SOL    HW115383   5.451   4.834   0.380
 5021SOL    HW215384   5.379   4.879   0.520
 5022SOL     OW15385   3.837   4.461   1.597
 5022SOL    HW115386   3.925   4.448   1.642
 5022SOL    HW215387   3.824   4.558   1.575
 5023SOL     OW15388   4.337   5.089   0.726
 5023SOL    HW115389   4.288   5.002   0.735
 5023SOL    HW215390   4.314   5.132   0.639
 5024SOL     OW15391   5.017   4.952   1.423
 5024SOL    HW115392   5.054   4.879   1.365
 5024SOL    HW215393   5.069   4.957   1.508
 5025SOL     OW15394   4.533   3.728   0.502
 5025SOL    HW115395   4.573   3.819   0.493
 5025SOL    HW215396   4.433   3.736   0.508
 5026SOL     OW15397   3.921   4.700   1.264
 5026SOL    HW115398   4.010   4.655   1.250
 5026SOL    HW215399   3.848   4.635   1.245
 5027SOL     OW15400   5.249   4.723   0.190
 5027SOL    HW115401   5.186   4.647   0.203
 5027SOL    HW215402   5.297   4.741   0.276
 5028SOL     OW15403   4.911   5.516   1.616
 5028SOL    HW115404   4.935   5.576   1.540
 5028SOL    HW215405   4.918   5.421   1.586
 5029SOL     OW15406   4.041   3.975   1.801
 5029SOL    HW115407   4.112   4.046   1.807
 5029SOL    HW215408   3.953   4.014   1.829
 5030SOL     OW15409   5.190   5.141   0.953
 5030SOL    HW115410   5.131   5.147   1.033
 5030SOL    HW215411   5.175   5.053   0.907
 5031SOL     OW15412   5.391   5.438   0.572
 5031SOL    HW115413   5.350   5.415   0.484
 5031SOL    HW215414   5.373   5.364   0.637
 5032SOL     OW15415   4.322   4.453   0.270
 5032SOL    HW115416   4.346   4.522   0.202
 5032SOL    HW215417   4.244   4.486   0.324
 5033SOL     OW15418   5.005   4.069   0.944
 5033SOL    HW115419   4.919   4.019   0.931
 5033SOL    HW215420   5.067   4.015   1.000
 5034SOL     OW15421   5.300   5.386   0.307
 5034SOL    HW115422   5.389   5.432   0.310
 5034SOL    HW215423   5.279   5.362   0.212
 5035SOL     OW15424   4.531   4.329   1.465
 5035SOL    HW115425   4.484   4.326   1.554
 5035SOL    HW215426   4.480   4.274   1.399
 5036SOL     OW15427   5.118   4.193   1.674
 5036SOL    HW115428   5.098   4.236   1.762
 5036SOL    HW215429   5.196   4.131   1.683
 5037SOL     OW15430   4.697   4.614   1.572
 5037SOL    HW115431   4.743   4.530   1.543
 5037SOL    HW215432   4.641   4.648   1.497
 5038SOL     OW15433   4.715   4.134   1.242
 5038SOL    HW115434   4.638   4.168   1.296
 5038SOL    HW215435   4.681   4.083   1.163
 5039SOL     OW15436   4.765   4.425   0.429
 5039SOL    HW115437   4.791   4.421   0.525
 5039SOL    HW215438   4.680   4.374   0.415
 5040SOL     OW15439   3.800   4.535   0.789
 5040SOL    HW115440   3.899   4.523   0.798
 5040SOL    HW215441   3.776   4.630   0.810
 5041SOL     OW15442   3.854   5.545   1.571
 5041SOL    HW115443   3.844   5.530   1.670
 5041SOL    HW215444   3.768   5.581   1.535
 5042SOL     OW15445   4.589   4.072   0.195
 5042SOL    HW115446   4.648   4.135   0.146
 5042SOL    HW215447   4.608   3.978   0.166
 5043SOL     OW15448   5.443   4.309   1.831
 5043SOL    HW115449   5.417   4.398   1.795
 5043SOL    HW215450   5.441   4.241   1.758
 5044SOL     OW15451   5.086   4.868   0.545
 5044SOL    HW115452   5.169   4.839   0.497
 5044SOL    HW215453   5.037   4.935   0.489
 5045SOL     OW15454   4.274   3.920   0.885
 5045SOL    HW115455   4.269   3.915   0.985
 5045SOL    HW215456   4.276   4.016   0.856
 5046SOL     OW15457   4.732   5.180   0.477
 5046SOL    HW115458   4.686   5.252   0.425
 5046SOL    HW215459   4.728   5.200   0.575
 5047SOL     OW15460   4.075   5.525   0.853
 5047SOL    HW115461   4.125   5.439   0.859
 5047SOL    HW215462   4.140   5.602   0.850
 5048SOL     OW15463   5.519   4.790   0.873
 5048SOL    HW115464   5.457   4.775   0.797
 5048SOL    HW215465   5.467   4.801   0.958
 5049SOL     OW15466   4.951   5.274   1.506
 5049SOL    HW115467   4.957   5.197   1.570
 5049SOL    HW215468   4.899   5.248   1.426
 5050SOL     OW15469   4.045   4.667   0.242
 5050SOL    HW115470   4.127   4.706   0.200
 5050SOL    HW215471   4.018   4.585   0.193
 5051SOL     OW15472   5.182   4.459   0.728
 5051SOL    HW115473   5.177   4.394   0.803
 5051SOL    HW215474   5.262   4.518   0.741
 5052SOL     OW15475   4.185   4.990   1.727
 5052SOL    HW115476   4.135   4.991   1.641
 5052SOL    HW215477   4.122   4.972   1.803
 5053SOL     OW15478   4.835   5.500   0.237
 5053SOL    HW115479   4.775   5.438   0.287
 5053SOL    HW215480   4.866   5.456   0.152
 5054SOL     OW15481   3.926   4.009   1.498
 5054SOL    HW115482   3.846   4.069   1.485
 5054SOL    HW215483   3.916   3.960   1.584
 5055SOL     OW15484   5.356   5.101   0.081
 5055SOL    HW115485   5.324   5.195   0.071
 5055SOL    HW215486   5.280   5.038   0.069
 5056SOL     OW15487   4.188   5.467   0.323
 5056SOL    HW115488   4.221   5.506   0.409
 5056SOL    HW215489   4.264   5.460   0.258
 5057SOL     OW15490   5.124   3.831   0.426
 5057SOL    HW115491   5.100   3.794   0.336
 5057SOL    HW215492   5.223   3.847   0.430
 5058SOL     OW15493   3.973   5.509   1.241
 5058SOL    HW115494   4.030   5.444   1.291
 5058SOL    HW215495   3.957   5.476   1.148
 5059SOL     OW15496   4.664   5.422   0.904
 5059SOL    HW115497   4.744   5.365   0.925
 5059SOL    HW215498   4.615   5.382   0.827
 5060SOL     OW15499   4.106   4.424   0.480
 5060SOL    HW115500   4.151   4.334   0.477
 5060SOL    HW215501   4.012   4.413   0.513
 5061SOL     OW15502   5.271   3.946   1.729
 5061SOL    HW115503   5.266   3.983   1.821
 5061SOL    HW215504   5.199   3.877   1.717
 5062SOL     OW15505   4.338   3.846   0.117
 5062SOL    HW115506   4.436   3.824   0.124
 5062SOL    HW215507   4.307   3.829   0.024
 5063SOL     OW15508   4.505   3.988   1.749
 5063SOL    HW115509   4.572   3.927   1.792
 5063SOL    HW215510   4.432   4.007   1.814
 5064SOL     OW15511   4.612   5.238   1.195
 5064SOL    HW115512   4.589   5.213   1.101
 5064SOL    HW215513   4.673   5.169   1.234
 5065SOL     OW15514   5.075   4.314   1.433
 5065SOL    HW115515   5.103   4.271   1.518
 5065SOL    HW215516   5.100   4.410   1.434
 5066SOL     OW15517   4.527   5.126   0.924
 5066SOL    HW115518   4.617   5.140   0.882
 5066SOL    HW215519   4.456   5.128   0.853
 5067SOL     OW15520   4.646   4.227   0.899
 5067SOL    HW115521   4.621   4.218   0.803
 5067SOL    HW215522   4.694   4.145   0.930
 5068SOL     OW15523   4.263   3.788   0.512
 5068SOL    HW115524   4.182   3.789   0.570
 5068SOL    HW215525   4.266   3.871   0.457
 5069SOL     OW15526   5.158   4.912   0.041
 5069SOL    HW115527   5.190   4.836   0.098
 5069SOL    HW215528   5.066   4.939   0.071
 5070SOL     OW15529   4.021   3.759   0.171
 5070SOL    HW115530   4.070   3.843   0.150
 5070SOL    HW215531   4.083   3.694   0.216
 5071SOL     OW15532   4.659   3.960   0.480
 5071SOL    HW115533   4.611   4.001   0.402
 5071SOL    HW215534   4.758   3.958   0.461
 5072SOL     OW15535   4.800   4.407   1.464
 5072SOL    HW115536   4.720   4.346   1.467
 5072SOL    HW215537   4.881   4.354   1.440
 5073SOL     OW15538   4.951   5.294   0.793
 5073SOL    HW115539   4.972   5.368   0.728
 5073SOL    HW215540   5.019   5.294   0.866
 5074SOL     OW15541   4.183   4.876   0.741
 5074SOL    HW115542   4.112   4.849   0.806
 5074SOL    HW215543   4.157   4.848   0.648
 5075SOL     OW15544   4.995   5.521   0.591
 5075SOL    HW115545   5.039   5.585   0.527
 5075SOL    HW215546   4.945   5.573   0.661
 5076SOL     OW15547   4.756   4.273   0.016
 5076SOL    HW115548   4.715   4.355  -0.023
 5076SOL    HW215549   4.820   4.299   0.089
 5077SOL     OW15550   3.802   4.280   1.386
 5077SOL    HW115551   3.894   4.279   1.345
 5077SOL    HW215552   3.796   4.354   1.453
 5078SOL     OW15553   4.285   3.946   1.147
 5078SOL    HW115554   4.323   3.862   1.184
 5078SOL    HW215555   4.197   3.965   1.191
 5079SOL     OW15556   4.590   4.178   0.642
 5079SOL    HW115557   4.558   4.250   0.580
 5079SOL    HW215558   4.614   4.097   0.589
 5080SOL     OW15559   4.741   3.763   0.753
 5080SOL    HW115560   4.669   3.768   0.684
 5080SOL    HW215561   4.717   3.694   0.822
 5081SOL     OW15562   5.153   4.897   0.867
 5081SOL    HW115563   5.098   4.813   0.860
 5081SOL    HW215564   5.179   4.926   0.775
 5082SOL     OW15565   5.190   4.314   0.992
 5082SOL    HW115566   5.160   4.219   0.999
 5082SOL    HW215567   5.263   4.330   1.058
 5083SOL     OW15568   5.581   4.557   0.377
 5083SOL    HW115569   5.623   4.493   0.441
 5083SOL    HW215570   5.543   4.506   0.299
 5084SOL     OW15571   4.212   5.109   0.174
 5084SOL    HW115572   4.125   5.094   0.221
 5084SOL    HW215573   4.195   5.135   0.079
 5085SOL     OW15574   5.388   5.004   0.657
 5085SOL    HW115575   5.487   5.012   0.671
 5085SOL    HW215576   5.343   5.088   0.688
 5086SOL     OW15577   5.114   4.299   0.078
 5086SOL    HW115578   5.060   4.278   0.159
 5086SOL    HW215579   5.205   4.258   0.087
 5087SOL     OW15580   4.251   3.980   0.328
 5087SOL    HW115581   4.278   3.921   0.253
 5087SOL    HW215582   4.251   4.075   0.297
 5088SOL     OW15583   5.478   4.947   1.588
 5088SOL    HW115584   5.569   4.908   1.575
 5088SOL    HW215585   5.486   5.043   1.612
 5089SOL     OW15586   4.788   5.071   1.340
 5089SOL    HW115587   4.708   5.048   1.395
 5089SOL    HW215588   4.871   5.045   1.389
 5090SOL     OW15589   5.316   5.353   1.625
 5090SOL    HW115590   5.343   5.387   1.535
 5090SOL    HW215591   5.395   5.315   1.671
 5091SOL     OW15592   4.835   4.919   1.100
 5091SOL    HW115593   4.795   4.963   1.181
 5091SOL    HW215594   4.794   4.956   1.017
 5092SOL     OW15595   5.362   4.823   1.079
 5092SOL    HW115596   5.367   4.904   1.138
 5092SOL    HW215597   5.276   4.825   1.028
 5093SOL     OW15598   4.639   3.813   1.402
 5093SOL    HW115599   4.664   3.793   1.307
 5093SOL    HW215600   4.711   3.869   1.444
 5094SOL     OW15601   4.704   4.840   1.719
 5094SOL    HW115602   4.605   4.846   1.729
 5094SOL    HW215603   4.727   4.760   1.663
 5095SOL     OW15604   4.429   4.774   0.368
 5095SOL    HW115605   4.415   4.781   0.467
 5095SOL    HW215606   4.513   4.723   0.350
 5096SOL     OW15607   4.134   4.537   1.251
 5096SOL    HW115608   4.220   4.549   1.301
 5096SOL    HW215609   4.092   4.450   1.278
 5097SOL     OW15610   4.998   4.110   1.262
 5097SOL    HW115611   5.019   4.184   1.326
 5097SOL    HW215612   4.909   4.127   1.219
 5098SOL     OW15613   3.788   5.288   1.331
 5098SOL    HW115614   3.742   5.370   1.297
 5098SOL    HW215615   3.886   5.307   1.340
 5099SOL     OW15616   4.091   4.824   0.501
 5099SOL    HW115617   4.084   4.907   0.445
 5099SOL    HW215618   4.095   4.744   0.441
 5100SOL     OW15619   4.290   4.261   0.865
 5100SOL    HW115620   4.302   4.327   0.791
 5100SOL    HW215621   4.336   4.295   0.948
 5101SOL     OW15622   4.976   5.072   0.388
 5101SOL    HW115623   5.026   5.149   0.428
 5101SOL    HW215624   4.881   5.074   0.420
 5102SOL     OW15625   4.996   5.169   1.142
 5102SOL    HW115626   5.043   5.182   1.229
 5102SOL    HW215627   4.930   5.095   1.151
 5103SOL     OW15628   5.306   4.363   0.472
 5103SOL    HW115629   5.275   4.424   0.545
 5103SOL    HW215630   5.356   4.415   0.403
 5104SOL     OW15631   4.078   5.234   1.329
 5104SOL    HW115632   4.057   5.190   1.242
 5104SOL    HW215633   4.175   5.260   1.332
 5105SOL     OW15634   4.126   4.475   1.598
 5105SOL    HW115635   4.194   4.530   1.551
 5105SOL    HW215636   4.166   4.387   1.625
 5106SOL     OW15637   5.311   4.503   1.670
 5106SOL    HW115638   5.219   4.541   1.665
 5106SOL    HW215639   5.371   4.550   1.605
 5107SOL     OW15640   4.737   3.829   1.770
 5107SOL    HW115641   4.743   3.914   1.718
 5107SOL    HW215642   4.769   3.753   1.713
 5108SOL     OW15643   4.228   3.774   1.740
 5108SOL    HW115644   4.186   3.717   1.670
 5108SOL    HW215645   4.162   3.843   1.772
 5109SOL     OW15646   4.297   4.594   1.029
 5109SOL    HW115647   4.341   4.683   1.020
 5109SOL    HW215648   4.234   4.594   1.106
 5110SOL     OW15649   5.084   4.586   1.045
 5110SOL    HW115650   5.009   4.586   0.979
 5110SOL    HW215651   5.121   4.494   1.054
 5111SOL     OW15652   4.933   4.249   0.275
 5111SOL    HW115653   4.946   4.165   0.329
 5111SOL    HW215654   4.904   4.323   0.335
 5112SOL     OW15655   4.031   3.937   1.231
 5112SOL    HW115656   4.008   3.974   1.321
 5112SOL    HW215657   4.001   3.842   1.225
 5113SOL     OW15658   3.761   5.034   1.282
 5113SOL    HW115659   3.814   4.985   1.350
 5113SOL    HW215660   3.783   5.132   1.287
 5114SOL     OW15661   4.456   4.358   1.064
 5114SOL    HW115662   4.515   4.332   0.988
 5114SOL    HW215663   4.428   4.454   1.053
 5115SOL     OW15664   5.452   4.659   1.854
 5115SOL    HW115665   5.406   4.652   1.765
 5115SOL    HW215666   5.390   4.703   1.920
 5116SOL     OW15667   4.031   3.787   0.618
 5116SOL    HW115668   4.020   3.881   0.651
 5116SOL    HW215669   4.026   3.724   0.695
 5117SOL     OW15670   5.346   4.091   0.374
 5117SOL    HW115671   5.348   4.015   0.438
 5117SOL    HW215672   5.298   4.168   0.414
 5118SOL     OW15673   4.747   4.490   0.966
 5118SOL    HW115674   4.762   4.511   1.062
 5118SOL    HW215675   4.717   4.395   0.957
 5119SOL     OW15676   4.704   5.297   1.700
 5119SOL    HW115677   4.684   5.341   1.612
 5119SOL    HW215678   4.743   5.206   1.684
 5120SOL     OW15679   5.583   5.242   1.605
 5120SOL    HW115680   5.597   5.269   1.510
 5120SOL    HW215681   5.666   5.264   1.658
 5121SOL     OW15682   4.074   4.622   1.804
 5121SOL    HW115683   4.150   4.666   1.852
 5121SOL    HW215684   4.109   4.575   1.722
 5122SOL     OW15685   5.264   3.998   0.125
 5122SOL    HW115686   5.203   3.923   0.148
 5122SOL    HW215687   5.286   4.050   0.208
 5123SOL     OW15688   5.027   4.562   0.042
 5123SOL    HW115689   5.061   4.469   0.057
 5123SOL    HW215690   5.045   4.589  -0.053
 5124SOL     OW15691   4.792   5.057   0.849
 5124SOL    HW115692   4.799   4.973   0.794
 5124SOL    HW215693   4.854   5.126   0.813
 5125SOL     OW15694   4.043   4.534   0.949
 5125SOL    HW115695   4.136   4.570   0.954
 5125SOL    HW215696   4.037   4.449   1.001
 5126SOL     OW15697   4.063   4.233   1.006
 5126SOL    HW115698   4.011   4.150   0.989
 5126SOL    HW215699   4.140   4.238   0.942
 5127SOL     OW15700   4.862   4.104   1.678
 5127SOL    HW115701   4.817   4.167   1.742
 5127SOL    HW215702   4.955   4.135   1.661
 5128SOL     OW15703   4.884   3.931   1.477
 5128SOL    HW115704   4.884   3.995   1.554
 5128SOL    HW215705   4.912   3.979   1.394
 5129SOL     OW15706   3.732   5.050   0.200
 5129SOL    HW115707   3.639   5.071   0.169
 5129SOL    HW215708   3.742   4.951   0.213
 5130SOL     OW15709   3.812   5.525   0.927
 5130SOL    HW115710   3.770   5.439   0.900
 5130SOL    HW215711   3.906   5.528   0.893
 5131SOL     OW15712   4.228   5.292   0.910
 5131SOL    HW115713   4.294   5.366   0.919
 5131SOL    HW215714   4.272   5.213   0.868
 5132SOL     OW15715   4.726   4.520   1.238
 5132SOL    HW115716   4.767   4.488   1.324
 5132SOL    HW215717   4.630   4.493   1.235
 5133SOL     OW15718   3.764   4.268   1.114
 5133SOL    HW115719   3.849   4.235   1.073
 5133SOL    HW215720   3.777   4.283   1.212
 5134SOL     OW15721   3.913   4.244   1.722
 5134SOL    HW115722   3.972   4.204   1.652
 5134SOL    HW215723   3.855   4.315   1.681
 5135SOL     OW15724   5.093   4.674   1.660
 5135SOL    HW115725   5.132   4.763   1.680
 5135SOL    HW215726   5.103   4.654   1.563
 5136SOL     OW15727   4.539   4.296   0.325
 5136SOL    HW115728   4.546   4.207   0.279
 5136SOL    HW215729   4.445   4.330   0.317
 5137SOL     OW15730   5.381   4.328   1.206
 5137SOL    HW115731   5.343   4.259   1.268
 5137SOL    HW215732   5.463   4.292   1.162
 5138SOL     OW15733   3.976   5.288   1.744
 5138SOL    HW115734   3.946   5.345   1.820
 5138SOL    HW215735   3.969   5.191   1.770
 5139SOL     OW15736   4.395   4.188   1.269
 5139SOL    HW115737   4.361   4.099   1.239
 5139SOL    HW215738   4.421   4.242   1.189
 5140SOL     OW15739   4.654   5.402   1.465
 5140SOL    HW115740   4.630   5.384   1.370
 5140SOL    HW215741   4.684   5.496   1.475
 5141SOL     OW15742   4.197   4.224   0.191
 5141SOL    HW115743   4.258   4.304   0.195
 5141SOL    HW215744   4.102   4.255   0.198
 5142SOL     OW15745   3.883   4.861   1.466
 5142SOL    HW115746   3.905   4.800   1.542
 5142SOL    HW215747   3.893   4.812   1.380
 5143SOL     OW15748   5.071   4.783   1.234
 5143SOL    HW115749   5.095   4.720   1.160
 5143SOL    HW215750   4.981   4.823   1.216
 5144SOL     OW15751   5.026   4.579   0.309
 5144SOL    HW115752   4.940   4.548   0.351
 5144SOL    HW215753   5.022   4.565   0.210
 5145SOL     OW15754   5.483   5.471   1.154
 5145SOL    HW115755   5.544   5.501   1.081
 5145SOL    HW215756   5.445   5.382   1.132
 5146SOL     OW15757   4.976   5.455   1.128
 5146SOL    HW115758   5.060   5.460   1.074
 5146SOL    HW215759   4.953   5.359   1.146
 5147SOL     OW15760   3.807   4.982   1.022
 5147SOL    HW115761   3.802   4.981   1.122
 5147SOL    HW215762   3.724   4.941   0.984
 5148SOL     OW15763   4.412   5.386   1.716
 5148SOL    HW115764   4.356   5.467   1.725
 5148SOL    HW215765   4.464   5.390   1.630
 5149SOL     OW15766   4.627   3.810   0.133
 5149SOL    HW115767   4.678   3.811   0.047
 5149SOL    HW215768   4.683   3.768   0.204
 5150SOL     OW15769   5.450   3.859   0.523
 5150SOL    HW115770   5.523   3.842   0.456
 5150SOL    HW215771   5.419   3.772   0.561
 5151SOL     OW15772   5.112   5.297   0.477
 5151SOL    HW115773   5.179   5.309   0.403
 5151SOL    HW215774   5.072   5.386   0.500
 5152SOL     OW15775   3.854   5.518   1.851
 5152SOL    HW115776   3.813   5.444   1.904
 5152SOL    HW215777   3.918   5.569   1.909
 5153SOL     OW15778   5.004   4.651   0.672
 5153SOL    HW115779   5.064   4.570   0.674
 5153SOL    HW215780   5.044   4.720   0.612
 5154SOL     OW15781   4.554   4.997   1.422
 5154SOL    HW115782   4.549   5.030   1.517
 5154SOL    HW215783   4.468   5.016   1.376
 5155SOL     OW15784   4.396   5.340   0.154
 5155SOL    HW115785   4.405   5.350   0.055
 5155SOL    HW215786   4.356   5.251   0.175
 5156SOL     OW15787   5.374   5.444   1.394
 5156SOL    HW115788   5.427   5.454   1.310
 5156SOL    HW215789   5.347   5.534   1.428
 5157SOL     OW15790   5.565   3.899   0.963
 5157SOL    HW115791   5.604   3.814   0.927
 5157SOL    HW215792   5.467   3.901   0.944
 5158SOL     OW15793   3.987   4.050   0.720
 5158SOL    HW115794   3.908   4.101   0.686
 5158SOL    HW215795   3.978   4.035   0.818
 5159SOL     OW15796   4.918   5.336   0.031
 5159SOL    HW115797   4.924   5.243   0.068
 5159SOL    HW215798   4.859   5.336  -0.049
 5160SOL     OW15799   4.546   4.726   1.372
 5160SOL    HW115800   4.586   4.725   1.280
 5160SOL    HW215801   4.556   4.818   1.412
 5161SOL     OW15802   4.640   4.634   0.291
 5161SOL    HW115803   4.703   4.672   0.223
 5161SOL    HW215804   4.680   4.551   0.330
 5162SOL     OW15805   5.228   5.331   0.044
 5162SOL    HW115806   5.136   5.368   0.051
 5162SOL    HW215807   5.266   5.351  -0.046
 5163SOL     OW15808   4.096   5.012   1.490
 5163SOL    HW115809   4.083   5.105   1.456
 5163SOL    HW215810   4.012   4.960   1.477
 5164SOL     OW15811   5.338   5.016   1.289
 5164SOL    HW115812   5.398   5.019   1.369
 5164SOL    HW215813   5.263   5.080   1.302
 5165SOL     OW15814   4.763   4.822   0.696
 5165SOL    HW115815   4.693   4.775   0.750
 5165SOL    HW215816   4.822   4.754   0.653
 5166SOL     OW15817   4.738   3.960   0.971
 5166SOL    HW115818   4.730   3.924   0.878
 5166SOL    HW215819   4.736   3.884   1.036
 5167SOL     OW15820   4.314   5.211   0.491
 5167SOL    HW115821   4.356   5.153   0.421
 5167SOL    HW215822   4.270   5.290   0.447
 5168SOL     OW15823   5.433   4.109   1.381
 5168SOL    HW115824   5.506   4.178   1.385
 5168SOL    HW215825   5.461   4.034   1.322
 5169SOL     OW15826   3.979   5.072   0.290
 5169SOL    HW115827   3.883   5.073   0.263
 5169SOL    HW215828   3.991   5.125   0.374
 5170SOL     OW15829   3.829   4.737   1.726
 5170SOL    HW115830   3.752   4.704   1.780
 5170SOL    HW215831   3.914   4.707   1.768
 5171SOL     OW15832   4.396   3.927   1.489
 5171SOL    HW115833   4.486   3.911   1.449
 5171SOL    HW215834   4.404   3.932   1.588
 5172SOL     OW15835   3.799   4.069   0.033
 5172SOL    HW115836   3.707   4.041   0.004
 5172SOL    HW215837   3.830   4.146  -0.023
 5173SOL     OW15838   5.164   4.580   1.398
 5173SOL    HW115839   5.107   4.632   1.335
 5173SOL    HW215840   5.260   4.592   1.374
 5174SOL     OW15841   3.796   3.890   0.318
 5174SOL    HW115842   3.779   3.973   0.264
 5174SOL    HW215843   3.886   3.853   0.296
 5175SOL     OW15844   4.907   5.059   0.119
 5175SOL    HW115845   4.808   5.048   0.121
 5175SOL    HW215846   4.941   5.074   0.212
 5176SOL     OW15847   4.337   4.566   1.431
 5176SOL    HW115848   4.393   4.647   1.414
 5176SOL    HW215849   4.396   4.486   1.434
 5177SOL     OW15850   5.217   5.491   0.959
 5177SOL    HW115851   5.250   5.555   0.890
 5177SOL    HW215852   5.283   5.485   1.034
 5178SOL     OW15853   4.440   4.289   1.708
 5178SOL    HW115854   4.459   4.354   1.782
 5178SOL    HW215855   4.500   4.209   1.717
 5179SOL     OW15856   5.174   4.944   1.633
 5179SOL    HW115857   5.165   4.934   1.732
 5179SOL    HW215858   5.270   4.937   1.607
 5180SOL     OW15859   4.114   5.465   1.560
 5180SOL    HW115860   4.023   5.506   1.558
 5180SOL    HW215861   4.107   5.371   1.592
 5181SOL     OW15862   5.398   4.607   1.254
 5181SOL    HW115863   5.371   4.518   1.217
 5181SOL    HW215864   5.399   4.675   1.181
 5182SOL     OW15865   4.949   4.049   0.449
 5182SOL    HW115866   5.014   3.975   0.438
 5182SOL    HW215867   4.969   4.099   0.533
 5183SOL     OW15868   4.318   4.469   0.652
 5183SOL    HW115869   4.368   4.554   0.633
 5183SOL    HW215870   4.230   4.471   0.604
 5184SOL     OW15871   5.501   4.066   1.642
 5184SOL    HW115872   5.484   4.097   1.548
 5184SOL    HW215873   5.417   4.029   1.680
 5185SOL     OW15874   5.454   4.658   1.517
 5185SOL    HW115875   5.492   4.749   1.532
 5185SOL    HW215876   5.446   4.641   1.418
 5186SOL     OW15877   4.583   5.098   0.016
 5186SOL    HW115878   4.537   5.113   0.104
 5186SOL    HW215879   4.627   5.183  -0.014
 5187SOL     OW15880   4.385   5.514   0.953
 5187SOL    HW115881   4.339   5.602   0.940
 5187SOL    HW215882   4.484   5.526   0.946
 5188SOL     OW15883   4.583   4.680   0.861
 5188SOL    HW115884   4.637   4.611   0.909
 5188SOL    HW215885   4.551   4.749   0.927
 5189SOL     OW15886   4.807   4.708   0.087
 5189SOL    HW115887   4.784   4.761   0.005
 5189SOL    HW215888   4.888   4.652   0.068
 5190SOL     OW15889   5.585   5.293   0.851
 5190SOL    HW115890   5.514   5.281   0.781
 5190SOL    HW215891   5.586   5.214   0.911
 5191SOL     OW15892   3.945   5.038   1.844
 5191SOL    HW115893   3.880   4.965   1.823
 5191SOL    HW215894   3.949   5.052   1.942
 5192SOL     OW15895   3.803   4.964   0.653
 5192SOL    HW115896   3.802   4.917   0.741
 5192SOL    HW215897   3.885   4.936   0.602
 5193SOL     OW15898   4.396   5.115   1.624
 5193SOL    HW115899   4.318   5.065   1.662
 5193SOL    HW215900   4.393   5.210   1.655
 5194SOL     OW15901   5.548   3.916   1.227
 5194SOL    HW115902   5.544   3.826   1.271
 5194SOL    HW215903   5.551   3.905   1.128
 5195SOL     OW15904   4.152   4.148   0.520
 5195SOL    HW115905   4.182   4.076   0.458
 5195SOL    HW215906   4.113   4.108   0.603
 5196SOL     OW15907   5.429   5.211   1.104
 5196SOL    HW115908   5.336   5.186   1.077
 5196SOL    HW215909   5.455   5.161   1.186
 5197SOL     OW15910   4.041   4.271   1.280
 5197SOL    HW115911   4.079   4.212   1.352
 5197SOL    HW215912   4.081   4.245   1.192
 5198SOL     OW15913   4.536   5.310   0.687
 5198SOL    HW115914   4.568   5.320   0.593
 5198SOL    HW215915   4.457   5.248   0.689
 5199SOL     OW15916   5.148   3.938   1.112
 5199SOL    HW115917   5.200   3.873   1.167
 5199SOL    HW215918   5.099   4.001   1.173
 5200SOL     OW15919   4.725   3.758   1.154
 5200SOL    HW115920   4.662   3.686   1.123
 5200SOL    HW215921   4.818   3.722   1.154
 5201SOL     OW15922   4.494   5.054   0.301
 5201SOL    HW115923   4.448   4.967   0.318
 5201SOL    HW215924   4.585   5.051   0.342
 5202SOL     OW15925   4.342   5.291   1.284
 5202SOL    HW115926   4.337   5.373   1.341
 5202SOL    HW215927   4.431   5.288   1.239
 5203SOL     OW15928   5.076   3.776   0.168
 5203SOL    HW115929   5.111   3.735   0.084
 5203SOL    HW215930   4.986   3.738   0.188
 5204SOL     OW15931   5.024   4.177   0.691
 5204SOL    HW115932   4.965   4.257   0.695
 5204SOL    HW215933   5.039   4.142   0.784
 5205SOL     OW15934   5.317   3.945   0.882
 5205SOL    HW115935   5.233   3.944   0.936
 5205SOL    HW215936   5.319   4.028   0.826
 5206SOL     OW15937   3.763   4.801   0.300
 5206SOL    HW115938   3.862   4.790   0.291
 5206SOL    HW215939   3.723   4.715   0.332
 5207SOL     OW15940   4.599   5.370   0.337
 5207SOL    HW115941   4.522   5.335   0.283
 5207SOL    HW215942   4.567   5.441   0.399
 5208SOL     OW15943   3.954   4.352   1.975
 5208SOL    HW115944   3.861   4.350   2.012
 5208SOL    HW215945   3.955   4.313   1.883
 5209SOL     OW15946   3.949   3.999   2.858
 5209SOL    HW115947   3.984   3.982   2.950
 5209SOL    HW215948   3.861   3.954   2.846
 5210SOL     OW15949   3.743   4.092   2.509
 5210SOL    HW115950   3.661   4.135   2.548
 5210SOL    HW215951   3.715   4.019   2.446
 5211SOL     OW15952   4.293   4.999   3.027
 5211SOL    HW115953   4.200   4.992   2.990
 5211SOL    HW215954   4.304   5.088   3.071
 5212SOL     OW15955   5.279   5.235   2.565
 5212SOL    HW115956   5.222   5.219   2.646
 5212SOL    HW215957   5.220   5.245   2.485
 5213SOL     OW15958   4.859   4.427   2.579
 5213SOL    HW115959   4.916   4.505   2.554
 5213SOL    HW215960   4.799   4.453   2.655
 5214SOL     OW15961   5.479   4.331   2.093
 5214SOL    HW115962   5.467   4.318   1.994
 5214SOL    HW215963   5.449   4.250   2.142
 5215SOL     OW15964   4.492   4.868   2.885
 5215SOL    HW115965   4.414   4.885   2.945
 5215SOL    HW215966   4.526   4.955   2.849
 5216SOL     OW15967   4.574   4.522   3.685
 5216SOL    HW115968   4.570   4.598   3.750
 5216SOL    HW215969   4.596   4.558   3.594
 5217SOL     OW15970   4.409   4.736   2.527
 5217SOL    HW115971   4.478   4.720   2.597
 5217SOL    HW215972   4.336   4.793   2.565
 5218SOL     OW15973   4.410   4.885   3.665
 5218SOL    HW115974   4.470   4.964   3.679
 5218SOL    HW215975   4.324   4.916   3.624
 5219SOL     OW15976   4.059   5.159   2.923
 5219SOL    HW115977   3.981   5.128   2.870
 5219SOL    HW215978   4.117   5.217   2.866
 5220SOL     OW15979   5.184   5.229   3.201
 5220SOL    HW115980   5.208   5.323   3.227
 5220SOL    HW215981   5.168   5.175   3.283
 5221SOL     OW15982   4.162   4.116   3.361
 5221SOL    HW115983   4.244   4.060   3.370
 5221SOL    HW215984   4.081   4.058   3.365
 5222SOL     OW15985   5.327   4.171   2.599
 5222SOL    HW115986   5.253   4.217   2.549
 5222SOL    HW215987   5.378   4.239   2.652
 5223SOL     OW15988   3.955   5.437   2.345
 5223SOL    HW115989   3.989   5.514   2.399
 5223SOL    HW215990   3.999   5.437   2.255
 5224SOL     OW15991   4.851   5.065   3.552
 5224SOL    HW115992   4.898   5.065   3.640
 5224SOL    HW215993   4.803   4.978   3.541
 5225SOL     OW15994   3.954   5.158   2.400
 5225SOL    HW115995   3.928   5.254   2.400
 5225SOL    HW215996   3.883   5.104   2.445
 5226SOL     OW15997   3.964   4.815   2.748
 5226SOL    HW115998   3.978   4.731   2.800
 5226SOL    HW215999   3.909   4.879   2.803
 5227SOL     OW16000   4.344   5.510   3.301
 5227SOL    HW116001   4.252   5.493   3.336
 5227SOL    HW216002   4.372   5.602   3.327
 5228SOL     OW16003   4.330   4.688   1.985
 5228SOL    HW116004   4.337   4.772   1.931
 5228SOL    HW216005   4.376   4.701   2.073
 5229SOL     OW16006   5.318   3.838   3.342
 5229SOL    HW116007   5.300   3.905   3.270
 5229SOL    HW216008   5.315   3.884   3.431
 5230SOL     OW16009   3.846   4.367   2.425
 5230SOL    HW116010   3.801   4.279   2.442
 5230SOL    HW216011   3.845   4.421   2.509
 5231SOL     OW16012   5.566   5.491   2.221
 5231SOL    HW116013   5.620   5.462   2.301
 5231SOL    HW216014   5.596   5.581   2.192
 5232SOL     OW16015   3.751   5.320   1.979
 5232SOL    HW116016   3.732   5.224   2.000
 5232SOL    HW216017   3.718   5.378   2.054
 5233SOL     OW16018   5.413   4.646   2.474
 5233SOL    HW116019   5.508   4.617   2.482
 5233SOL    HW216020   5.405   4.711   2.399
 5234SOL     OW16021   5.365   4.832   2.294
 5234SOL    HW116022   5.451   4.834   2.242
 5234SOL    HW216023   5.379   4.879   2.382
 5235SOL     OW16024   3.837   4.461   3.459
 5235SOL    HW116025   3.925   4.448   3.504
 5235SOL    HW216026   3.824   4.558   3.437
 5236SOL     OW16027   4.337   5.089   2.588
 5236SOL    HW116028   4.288   5.002   2.597
 5236SOL    HW216029   4.314   5.132   2.501
 5237SOL     OW16030   5.017   4.952   3.285
 5237SOL    HW116031   5.054   4.879   3.227
 5237SOL    HW216032   5.069   4.957   3.370
 5238SOL     OW16033   4.533   3.728   2.364
 5238SOL    HW116034   4.573   3.819   2.355
 5238SOL    HW216035   4.433   3.736   2.370
 5239SOL     OW16036   3.921   4.700   3.126
 5239SOL    HW116037   4.010   4.655   3.112
 5239SOL    HW216038   3.848   4.635   3.107
 5240SOL     OW16039   5.249   4.723   2.052
 5240SOL    HW116040   5.186   4.647   2.065
 5240SOL    HW216041   5.297   4.741   2.138
 5241SOL     OW16042   4.911   5.516   3.478
 5241SOL    HW116043   4.935   5.576   3.402
 5241SOL    HW216044   4.918   5.421   3.448
 5242SOL     OW16045   4.041   3.975   3.663
 5242SOL    HW116046   4.112   4.046   3.669
 5242SOL    HW216047   3.953   4.014   3.691
 5243SOL     OW16048   5.190   5.141   2.815
 5243SOL    HW116049   5.131   5.147   2.895
 5243SOL    HW216050   5.175   5.053   2.769
 5244SOL     OW16051   5.391   5.438   2.434
 5244SOL    HW116052   5.350   5.415   2.346
 5244SOL    HW216053   5.373   5.364   2.499
 5245SOL     OW16054   4.322   4.453   2.132
 5245SOL    HW116055   4.346   4.522   2.064
 5245SOL    HW216056   4.244   4.486   2.186
 5246SOL     OW16057   5.005   4.069   2.806
 5246SOL    HW116058   4.919   4.019   2.793
 5246SOL    HW216059   5.067   4.015   2.862
 5247SOL     OW16060   5.300   5.386   2.169
 5247SOL    HW116061   5.389   5.432   2.172
 5247SOL    HW216062   5.279   5.362   2.074
 5248SOL     OW16063   4.531   4.329   3.327
 5248SOL    HW116064   4.484   4.326   3.416
 5248SOL    HW216065   4.480   4.274   3.261
 5249SOL     OW16066   5.118   4.193   3.536
 5249SOL    HW116067   5.098   4.236   3.624
 5249SOL    HW216068   5.196   4.131   3.545
 5250SOL     OW16069   4.697   4.614   3.434
 5250SOL    HW116070   4.743   4.530   3.405
 5250SOL    HW216071   4.641   4.648   3.359
 5251SOL     OW16072   4.715   4.134   3.104
 5251SOL    HW116073   4.638   4.168   3.158
 5251SOL    HW216074   4.681   4.083   3.025
 5252SOL     OW16075   4.765   4.425   2.291
 5252SOL    HW116076   4.791   4.421   2.387
 5252SOL    HW216077   4.680   4.374   2.277
 5253SOL     OW16078   3.800   4.535   2.651
 5253SOL    HW116079   3.899   4.523   2.660
 5253SOL    HW216080   3.776   4.630   2.672
 5254SOL     OW16081   3.854   5.545   3.433
 5254SOL    HW116082   3.844   5.530   3.532
 5254SOL    HW216083   3.768   5.581   3.397
 5255SOL     OW16084   4.589   4.072   2.057
 5255SOL    HW116085   4.648   4.135   2.008
 5255SOL    HW216086   4.608   3.978   2.028
 5256SOL     OW16087   5.443   4.309   3.693
 5256SOL    HW116088   5.417   4.398   3.657
 5256SOL    HW216089   5.441   4.241   3.620
 5257SOL     OW16090   5.086   4.868   2.407
 5257SOL    HW116091   5.169   4.839   2.359
 5257SOL    HW216092   5.037   4.935   2.351
 5258SOL     OW16093   4.274   3.920   2.747
 5258SOL    HW116094   4.269   3.915   2.847
 5258SOL    HW216095   4.276   4.016   2.718
 5259SOL     OW16096   4.732   5.180   2.339
 5259SOL    HW116097   4.686   5.252   2.287
 5259SOL    HW216098   4.728   5.200   2.437
 5260SOL     OW16099   4.075   5.525   2.715
 5260SOL    HW116100   4.125   5.439   2.721
 5260SOL    HW216101   4.140   5.602   2.712
 5261SOL     OW16102   5.519   4.790   2.735
 5261SOL    HW116103   5.457   4.775   2.659
 5261SOL    HW216104   5.467   4.801   2.820
 5262SOL     OW16105   4.951   5.274   3.368
 5262SOL    HW116106   4.957   5.197   3.432
 5262SOL    HW216107   4.899   5.248   3.288
 5263SOL     OW16108   4.045   4.667   2.104
 5263SOL    HW116109   4.127   4.706   2.062
 5263SOL    HW216110   4.018   4.585   2.055
 5264SOL     OW16111   5.182   4.459   2.590
 5264SOL    HW116112   5.177   4.394   2.665
 5264SOL    HW216113   5.262   4.518   2.603
 5265SOL     OW16114   4.185   4.990   3.589
 5265SOL    HW116115   4.135   4.991   3.503
 5265SOL    HW216116   4.122   4.972   3.665
 5266SOL     OW16117   4.835   5.500   2.099
 5266SOL    HW116118   4.775   5.438   2.149
 5266SOL    HW216119   4.866   5.456   2.014
 5267SOL     OW16120   3.926   4.009   3.360
 5267SOL    HW116121   3.846   4.069   3.347
 5267SOL    HW216122   3.916   3.960   3.446
 5268SOL     OW16123   5.356   5.101   1.943
 5268SOL    HW116124   5.324   5.195   1.933
 5268SOL    HW216125   5.280   5.038   1.931
 5269SOL     OW16126   4.188   5.467   2.185
 5269SOL    HW116127   4.221   5.506   2.271
 5269SOL    HW216128   4.264   5.460   2.120
 5270SOL     OW16129   5.124   3.831   2.288
 5270SOL    HW116130   5.100   3.794   2.198
 5270SOL    HW216131   5.223   3.847   2.292
 5271SOL     OW16132   3.973   5.509   3.103
 5271SOL    HW116133   4.030   5.444   3.153
 5271SOL    HW216134   3.957   5.476   3.010
 5272SOL     OW16135   4.664   5.422   2.766
 5272SOL    HW116136   4.744   5.365   2.787
 5272SOL    HW216137   4.615   5.382   2.689
 5273SOL     OW16138   4.106   4.424   2.342
 5273SOL    HW116139   4.151   4.334   2.339
 5273SOL    HW216140   4.012   4.413   2.375
 5274SOL     OW16141   5.271   3.946   3.591
 5274SOL    HW116142   5.266   3.983   3.683
 5274SOL    HW216143   5.199   3.877   3.579
 5275SOL     OW16144   4.338   3.846   1.979
 5275SOL    HW116145   4.436   3.824   1.986
 5275SOL    HW216146   4.307   3.829   1.886
 5276SOL     OW16147   4.505   3.988   3.611
 5276SOL    HW116148   4.572   3.927   3.654
 5276SOL    HW216149   4.432   4.007   3.676
 5277SOL     OW16150   4.612   5.238   3.057
 5277SOL    HW116151   4.589   5.213   2.963
 5277SOL    HW216152   4.673   5.169   3.096
 5278SOL     OW16153   5.075   4.314   3.295
 5278SOL    HW116154   5.103   4.271   3.380
 5278SOL    HW216155   5.100   4.410   3.296
 5279SOL     OW16156   4.527   5.126   2.786
 5279SOL    HW116157   4.617   5.140   2.744
 5279SOL    HW216158   4.456   5.128   2.715
 5280SOL     OW16159   4.646   4.227   2.761
 5280SOL    HW116160   4.621   4.218   2.665
 5280SOL    HW216161   4.694   4.145   2.792
 5281SOL     OW16162   4.263   3.788   2.374
 5281SOL    HW116163   4.182   3.789   2.432
 5281SOL    HW216164   4.266   3.871   2.319
 5282SOL     OW16165   5.158   4.912   1.903
 5282SOL    HW116166   5.190   4.836   1.960
 5282SOL    HW216167   5.066   4.939   1.933
 5283SOL     OW16168   4.021   3.759   2.033
 5283SOL    HW116169   4.070   3.843   2.012
 5283SOL    HW216170   4.083   3.694   2.078
 5284SOL     OW16171   4.659   3.960   2.342
 5284SOL    HW116172   4.611   4.001   2.264
 5284SOL    HW216173   4.758   3.958   2.323
 5285SOL     OW16174   4.800   4.407   3.326
 5285SOL    HW116175   4.720   4.346   3.329
 5285SOL    HW216176   4.881   4.354   3.302
 5286SOL     OW16177   4.951   5.294   2.655
 5286SOL    HW116178   4.972   5.368   2.590
 5286SOL    HW216179   5.019   5.294   2.728
 5287SOL     OW16180   4.183   4.876   2.603
 5287SOL    HW116181   4.112   4.849   2.668
 5287SOL    HW216182   4.157   4.848   2.510
 5288SOL     OW16183   4.995   5.521   2.453
 5288SOL    HW116184   5.039   5.585   2.389
 5288SOL    HW216185   4.945   5.573   2.523
 5289SOL     OW16186   4.756   4.273   1.878
 5289SOL    HW116187   4.715   4.355   1.839
 5289SOL    HW216188   4.820   4.299   1.951
 5290SOL     OW16189   3.802   4.280   3.248
 5290SOL    HW116190   3.894   4.279   3.207
 5290SOL    HW216191   3.796   4.354   3.315
 5291SOL     OW16192   4.285   3.946   3.009
 5291SOL    HW116193   4.323   3.862   3.046
 5291SOL    HW216194   4.197   3.965   3.053
 5292SOL     OW16195   4.590   4.178   2.504
 5292SOL    HW116196   4.558   4.250   2.442
 5292SOL    HW216197   4.614   4.097   2.451
 5293SOL     OW16198   4.741   3.763   2.615
 5293SOL    HW116199   4.669   3.768   2.546
 5293SOL    HW216200   4.717   3.694   2.684
 5294SOL     OW16201   5.153   4.897   2.729
 5294SOL    HW116202   5.098   4.813   2.722
 5294SOL    HW216203   5.179   4.926   2.637
 5295SOL     OW16204   5.190   4.314   2.854
 5295SOL    HW116205   5.160   4.219   2.861
 5295SOL    HW216206   5.263   4.330   2.920
 5296SOL     OW16207   5.581   4.557   2.239
 5296SOL    HW116208   5.623   4.493   2.303
 5296SOL    HW216209   5.543   4.506   2.161
 5297SOL     OW16210   4.212   5.109   2.036
 5297SOL    HW116211   4.125   5.094   2.083
 5297SOL    HW216212   4.195   5.135   1.941
 5298SOL     OW16213   5.388   5.004   2.519
 5298SOL    HW116214   5.487   5.012   2.533
 5298SOL    HW216215   5.343   5.088   2.550
 5299SOL     OW16216   5.114   4.299   1.940
 5299SOL    HW116217   5.060   4.278   2.021
 5299SOL    HW216218   5.205   4.258   1.949
 5300SOL     OW16219   4.251   3.980   2.190
 5300SOL    HW116220   4.278   3.921   2.115
 5300SOL    HW216221   4.251   4.075   2.159
 5301SOL     OW16222   5.478   4.947   3.450
 5301SOL    HW116223   5.569   4.908   3.437
 5301SOL    HW216224   5.486   5.043   3.474
 5302SOL     OW16225   4.788   5.071   3.202
 5302SOL    HW116226   4.708   5.048   3.257
 5302SOL    HW216227   4.871   5.045   3.251
 5303SOL     OW16228   5.316   5.353   3.487
 5303SOL    HW116229   5.343   5.387   3.397
 5303SOL    HW216230   5.395   5.315   3.533
 5304SOL     OW16231   4.835   4.919   2.962
 5304SOL    HW116232   4.795   4.963   3.043
 5304SOL    HW216233   4.794   4.956   2.879
 5305SOL     OW16234   5.362   4.823   2.941
 5305SOL    HW116235   5.367   4.904   3.000
 5305SOL    HW216236   5.276   4.825   2.890
 5306SOL     OW16237   4.639   3.813   3.264
 5306SOL    HW116238   4.664   3.793   3.169
 5306SOL    HW216239   4.711   3.869   3.306
 5307SOL     OW16240   4.704   4.840   3.581
 5307SOL    HW116241   4.605   4.846   3.591
 5307SOL    HW216242   4.727   4.760   3.525
 5308SOL     OW16243   4.429   4.774   2.230
 5308SOL    HW116244   4.415   4.781   2.329
 5308SOL    HW216245   4.513   4.723   2.212
 5309SOL     OW16246   4.134   4.537   3.113
 5309SOL    HW116247   4.220   4.549   3.163
 5309SOL    HW216248   4.092   4.450   3.140
 5310SOL     OW16249   4.998   4.110   3.124
 5310SOL    HW116250   5.019   4.184   3.188
 5310SOL    HW216251   4.909   4.127   3.081
 5311SOL     OW16252   3.788   5.288   3.193
 5311SOL    HW116253   3.742   5.370   3.159
 5311SOL    HW216254   3.886   5.307   3.202
 5312SOL     OW16255   4.091   4.824   2.363
 5312SOL    HW116256   4.084   4.907   2.307
 5312SOL    HW216257   4.095   4.744   2.303
 5313SOL     OW16258   4.290   4.261   2.727
 5313SOL    HW116259   4.302   4.327   2.653
 5313SOL    HW216260   4.336   4.295   2.810
 5314SOL     OW16261   4.976   5.072   2.250
 5314SOL    HW116262   5.026   5.149   2.290
 5314SOL    HW216263   4.881   5.074   2.282
 5315SOL     OW16264   4.996   5.169   3.004
 5315SOL    HW116265   5.043   5.182   3.091
 5315SOL    HW216266   4.930   5.095   3.013
 5316SOL     OW16267   5.306   4.363   2.334
 5316SOL    HW116268   5.275   4.424   2.407
 5316SOL    HW216269   5.356   4.415   2.265
 5317SOL     OW16270   4.078   5.234   3.191
 5317SOL    HW116271   4.057   5.190   3.104
 5317SOL    HW216272   4.175   5.260   3.194
 5318SOL     OW16273   4.126   4.475   3.460
 5318SOL    HW116274   4.194   4.530   3.413
 5318SOL    HW216275   4.166   4.387   3.487
 5319SOL     OW16276   5.311   4.503   3.532
 5319SOL    HW116277   5.219   4.541   3.527
 5319SOL    HW216278   5.371   4.550   3.467
 5320SOL     OW16279   4.737   3.829   3.632
 5320SOL    HW116280   4.743   3.914   3.580
 5320SOL    HW216281   4.769   3.753   3.575
 5321SOL     OW16282   4.228   3.774   3.602
 5321SOL    HW116283   4.186   3.717   3.532
 5321SOL    HW216284   4.162   3.843   3.634
 5322SOL     OW16285   4.297   4.594   2.891
 5322SOL    HW116286   4.341   4.683   2.882
 5322SOL    HW216287   4.234   4.594   2.968
 5323SOL     OW16288   5.084   4.586   2.907
 5323SOL    HW116289   5.009   4.586   2.841
 5323SOL    HW216290   5.121   4.494   2.916
 5324SOL     OW16291   4.933   4.249   2.137
 5324SOL    HW116292   4.946   4.165   2.191
 5324SOL    HW216293   4.904   4.323   2.197
 5325SOL     OW16294   4.031   3.937   3.093
 5325SOL    HW116295   4.008   3.974   3.183
 5325SOL    HW216296   4.001   3.842   3.087
 5326SOL     OW16297   3.761   5.034   3.144
 5326SOL    HW116298   3.814   4.985   3.212
 5326SOL    HW216299   3.783   5.132   3.149
 5327SOL     OW16300   4.456   4.358   2.926
 5327SOL    HW116301   4.515   4.332   2.850
 5327SOL    HW216302   4.428   4.454   2.915
 5328SOL     OW16303   5.452   4.659   3.716
 5328SOL    HW116304   5.406   4.652   3.627
 5328SOL    HW216305   5.390   4.703   3.782
 5329SOL     OW16306   4.031   3.787   2.480
 5329SOL    HW116307   4.020   3.881   2.513
 5329SOL    HW216308   4.026   3.724   2.557
 5330SOL     OW16309   5.346   4.091   2.236
 5330SOL    HW116310   5.348   4.015   2.300
 5330SOL    HW216311   5.298   4.168   2.276
 5331SOL     OW16312   4.747   4.490   2.828
 5331SOL    HW116313   4.762   4.511   2.924
 5331SOL    HW216314   4.717   4.395   2.819
 5332SOL     OW16315   4.704   5.297   3.562
 5332SOL    HW116316   4.684   5.341   3.474
 5332SOL    HW216317   4.743   5.206   3.546
 5333SOL     OW16318   5.583   5.242   3.467
 5333SOL    HW116319   5.597   5.269   3.372
 5333SOL    HW216320   5.666   5.264   3.520
 5334SOL     OW16321   4.074   4.622   3.666
 5334SOL    HW116322   4.150   4.666   3.714
 5334SOL    HW216323   4.109   4.575   3.584
 5335SOL     OW16324   5.264   3.998   1.987
 5335SOL    HW116325   5.203   3.923   2.010
 5335SOL    HW216326   5.286   4.050   2.070
 5336SOL     OW16327   5.027   4.562   1.904
 5336SOL    HW116328   5.061   4.469   1.919
 5336SOL    HW216329   5.045   4.589   1.809
 5337SOL     OW16330   4.792   5.057   2.711
 5337SOL    HW116331   4.799   4.973   2.656
 5337SOL    HW216332   4.854   5.126   2.675
 5338SOL     OW16333   4.043   4.534   2.811
 5338SOL    HW116334   4.136   4.570   2.816
 5338SOL    HW216335   4.037   4.449   2.863
 5339SOL     OW16336   4.063   4.233   2.868
 5339SOL    HW116337   4.011   4.150   2.851
 5339SOL    HW216338   4.140   4.238   2.804
 5340SOL     OW16339   4.862   4.104   3.540
 5340SOL    HW116340   4.817   4.167   3.604
 5340SOL    HW216341   4.955   4.135   3.523
 5341SOL     OW16342   4.884   3.931   3.339
 5341SOL    HW116343   4.884   3.995   3.416
 5341SOL    HW216344   4.912   3.979   3.256
 5342SOL     OW16345   3.732   5.050   2.062
 5342SOL    HW116346   3.639   5.071   2.031
 5342SOL    HW216347   3.742   4.951   2.075
 5343SOL     OW16348   3.812   5.525   2.789
 5343SOL    HW116349   3.770   5.439   2.762
 5343SOL    HW216350   3.906   5.528   2.755
 5344SOL     OW16351   4.228   5.292   2.772
 5344SOL    HW116352   4.294   5.366   2.781
 5344SOL    HW216353   4.272   5.213   2.730
 5345SOL     OW16354   4.726   4.520   3.100
 5345SOL    HW116355   4.767   4.488   3.186
 5345SOL    HW216356   4.630   4.493   3.097
 5346SOL     OW16357   3.764   4.268   2.976
 5346SOL    HW116358   3.849   4.235   2.935
 5346SOL    HW216359   3.777   4.283   3.074
 5347SOL     OW16360   3.913   4.244   3.584
 5347SOL    HW116361   3.972   4.204   3.514
 5347SOL    HW216362   3.855   4.315   3.543
 5348SOL     OW16363   5.093   4.674   3.522
 5348SOL    HW116364   5.132   4.763   3.542
 5348SOL    HW216365   5.103   4.654   3.425
 5349SOL     OW16366   4.539   4.296   2.187
 5349SOL    HW116367   4.546   4.207   2.141
 5349SOL    HW216368   4.445   4.330   2.179
 5350SOL     OW16369   5.381   4.328   3.068
 5350SOL    HW116370   5.343   4.259   3.130
 5350SOL    HW216371   5.463   4.292   3.024
 5351SOL     OW16372   3.976   5.288   3.606
 5351SOL    HW116373   3.946   5.345   3.682
 5351SOL    HW216374   3.969   5.191   3.632
 5352SOL     OW16375   4.395   4.188   3.131
 5352SOL    HW116376   4.361   4.099   3.101
 5352SOL    HW216377   4.421   4.242   3.051
 5353SOL     OW16378   4.654   5.402   3.327
 5353SOL    HW116379   4.630   5.384   3.232
 5353SOL    HW216380   4.684   5.496   3.337
 5354SOL     OW16381   4.197   4.224   2.053
 5354SOL    HW116382   4.258   4.304   2.057
 5354SOL    HW216383   4.102   4.255   2.060
 5355SOL     OW16384   3.883   4.861   3.328
 5355SOL    HW116385   3.905   4.800   3.404
 5355SOL    HW216386   3.893   4.812   3.242
 5356SOL     OW16387   5.071   4.783   3.096
 5356SOL    HW116388   5.095   4.720   3.022
 5356SOL    HW216389   4.981   4.823   3.078
 5357SOL     OW16390   5.026   4.579   2.171
 5357SOL    HW116391   4.940   4.548   2.213
 5357SOL    HW216392   5.022   4.565   2.072
 5358SOL     OW16393   5.483   5.471   3.016
 5358SOL    HW116394   5.544   5.501   2.943
 5358SOL    HW216395   5.445   5.382   2.994
 5359SOL     OW16396   4.976   5.455   2.990
 5359SOL    HW116397   5.060   5.460   2.936
 5359SOL    HW216398   4.953   5.359   3.008
 5360SOL     OW16399   3.807   4.982   2.884
 5360SOL    HW116400   3.802   4.981   2.984
 5360SOL    HW216401   3.724   4.941   2.846
 5361SOL     OW16402   4.412   5.386   3.578
 5361SOL    HW116403   4.356   5.467   3.587
 5361SOL    HW216404   4.464   5.390   3.492
 5362SOL     OW16405   5.450   3.859   2.385
 5362SOL    HW116406   5.523   3.842   2.318
 5362SOL    HW216407   5.419   3.772   2.423
 5363SOL     OW16408   5.112   5.297   2.339
 5363SOL    HW116409   5.179   5.309   2.265
 5363SOL    HW216410   5.072   5.386   2.362
 5364SOL     OW16411   3.854   5.518   3.713
 5364SOL    HW116412   3.813   5.444   3.766
 5364SOL    HW216413   3.918   5.569   3.771
 5365SOL     OW16414   5.004   4.651   2.534
 5365SOL    HW116415   5.064   4.570   2.536
 5365SOL    HW216416   5.044   4.720   2.474
 5366SOL     OW16417   4.554   4.997   3.284
 5366SOL    HW116418   4.549   5.030   3.379
 5366SOL    HW216419   4.468   5.016   3.238
 5367SOL     OW16420   4.396   5.340   2.016
 5367SOL    HW116421   4.405   5.350   1.917
 5367SOL    HW216422   4.356   5.251   2.037
 5368SOL     OW16423   5.374   5.444   3.256
 5368SOL    HW116424   5.427   5.454   3.172
 5368SOL    HW216425   5.347   5.534   3.290
 5369SOL     OW16426   5.565   3.899   2.825
 5369SOL    HW116427   5.604   3.814   2.789
 5369SOL    HW216428   5.467   3.901   2.806
 5370SOL     OW16429   3.987   4.050   2.582
 5370SOL    HW116430   3.908   4.101   2.548
 5370SOL    HW216431   3.978   4.035   2.680
 5371SOL     OW16432   4.918   5.336   1.893
 5371SOL    HW116433   4.924   5.243   1.930
 5371SOL    HW216434   4.859   5.336   1.813
 5372SOL     OW16435   4.546   4.726   3.234
 5372SOL    HW116436   4.586   4.725   3.142
 5372SOL    HW216437   4.556   4.818   3.274
 5373SOL     OW16438   4.640   4.634   2.153
 5373SOL    HW116439   4.703   4.672   2.085
 5373SOL    HW216440   4.680   4.551   2.192
 5374SOL     OW16441   5.228   5.331   1.906
 5374SOL    HW116442   5.136   5.368   1.913
 5374SOL    HW216443   5.266   5.351   1.816
 5375SOL     OW16444   4.096   5.012   3.352
 5375SOL    HW116445   4.083   5.105   3.318
 5375SOL    HW216446   4.012   4.960   3.339
 5376SOL     OW16447   5.338   5.016   3.151
 5376SOL    HW116448   5.398   5.019   3.231
 5376SOL    HW216449   5.263   5.080   3.164
 5377SOL     OW16450   4.763   4.822   2.558
 5377SOL    HW116451   4.693   4.775   2.612
 5377SOL    HW216452   4.822   4.754   2.515
 5378SOL     OW16453   4.738   3.960   2.833
 5378SOL    HW116454   4.730   3.924   2.740
 5378SOL    HW216455   4.736   3.884   2.898
 5379SOL     OW16456   4.314   5.211   2.353
 5379SOL    HW116457   4.356   5.153   2.283
 5379SOL    HW216458   4.270   5.290   2.309
 5380SOL     OW16459   5.433   4.109   3.243
 5380SOL    HW116460   5.506   4.178   3.247
 5380SOL    HW216461   5.461   4.034   3.184
 5381SOL     OW16462   3.979   5.072   2.152
 5381SOL    HW116463   3.883   5.073   2.125
 5381SOL    HW216464   3.991   5.125   2.236
 5382SOL     OW16465   3.829   4.737   3.588
 5382SOL    HW116466   3.752   4.704   3.642
 5382SOL    HW216467   3.914   4.707   3.630
 5383SOL     OW16468   4.396   3.927   3.351
 5383SOL    HW116469   4.486   3.911   3.311
 5383SOL    HW216470   4.404   3.932   3.450
 5384SOL     OW16471   3.799   4.069   1.895
 5384SOL    HW116472   3.707   4.041   1.866
 5384SOL    HW216473   3.830   4.146   1.839
 5385SOL     OW16474   5.164   4.580   3.260
 5385SOL    HW116475   5.107   4.632   3.197
 5385SOL    HW216476   5.260   4.592   3.236
 5386SOL     OW16477   3.796   3.890   2.180
 5386SOL    HW116478   3.779   3.973   2.126
 5386SOL    HW216479   3.886   3.853   2.158
 5387SOL     OW16480   4.907   5.059   1.981
 5387SOL    HW116481   4.808   5.048   1.983
 5387SOL    HW216482   4.941   5.074   2.074
 5388SOL     OW16483   4.337   4.566   3.293
 5388SOL    HW116484   4.393   4.647   3.276
 5388SOL    HW216485   4.396   4.486   3.296
 5389SOL     OW16486   5.217   5.491   2.821
 5389SOL    HW116487   5.250   5.555   2.752
 5389SOL    HW216488   5.283   5.485   2.896
 5390SOL     OW16489   4.440   4.289   3.570
 5390SOL    HW116490   4.459   4.354   3.644
 5390SOL    HW216491   4.500   4.209   3.579
 5391SOL     OW16492   5.174   4.944   3.495
 5391SOL    HW116493   5.165   4.934   3.594
 5391SOL    HW216494   5.270   4.937   3.469
 5392SOL     OW16495   4.114   5.465   3.422
 5392SOL    HW116496   4.023   5.506   3.420
 5392SOL    HW216497   4.107   5.371   3.454
 5393SOL     OW16498   5.398   4.607   3.116
 5393SOL    HW116499   5.371   4.518   3.079
 5393SOL    HW216500   5.399   4.675   3.043
 5394SOL     OW16501   4.949   4.049   2.311
 5394SOL    HW116502   5.014   3.975   2.300
 5394SOL    HW216503   4.969   4.099   2.395
 5395SOL     OW16504   4.318   4.469   2.514
 5395SOL    HW116505   4.368   4.554   2.495
 5395SOL    HW216506   4.230   4.471   2.466
 5396SOL     OW16507   5.501   4.066   3.504
 5396SOL    HW116508   5.484   4.097   3.410
 5396SOL    HW216509   5.417   4.029   3.542
 5397SOL     OW16510   5.454   4.658   3.379
 5397SOL    HW116511   5.492   4.749   3.394
 5397SOL    HW216512   5.446   4.641   3.280
 5398SOL     OW16513   4.583   5.098   1.878
 5398SOL    HW116514   4.537   5.113   1.966
 5398SOL    HW216515   4.627   5.183   1.848
 5399SOL     OW16516   4.385   5.514   2.815
 5399SOL    HW116517   4.339   5.602   2.802
 5399SOL    HW216518   4.484   5.526   2.808
 5400SOL     OW16519   4.583   4.680   2.723
 5400SOL    HW116520   4.637   4.611   2.771
 5400SOL    HW216521   4.551   4.749   2.789
 5401SOL     OW16522   4.807   4.708   1.949
 5401SOL    HW116523   4.784   4.761   1.867
 5401SOL    HW216524   4.888   4.652   1.930
 5402SOL     OW16525   5.585   5.293   2.713
 5402SOL    HW116526   5.514   5.281   2.643
 5402SOL    HW216527   5.586   5.214   2.773
 5403SOL     OW16528   3.945   5.038   3.706
 5403SOL    HW116529   3.880   4.965   3.685
 5403SOL    HW216530   3.949   5.052   3.804
 5404SOL     OW16531   3.803   4.964   2.515
 5404SOL    HW116532   3.802   4.917   2.603
 5404SOL    HW216533   3.885   4.936   2.464
 5405SOL     OW16534   4.396   5.115   3.486
 5405SOL    HW116535   4.318   5.065   3.524
 5405SOL    HW216536   4.393   5.210   3.517
 5406SOL     OW16537   5.548   3.916   3.089
 5406SOL    HW116538   5.544   3.826   3.133
 5406SOL    HW216539   5.551   3.905   2.990
 5407SOL     OW16540   4.152   4.148   2.382
 5407SOL    HW116541   4.182   4.076   2.320
 5407SOL    HW216542   4.113   4.108   2.465
 5408SOL     OW16543   5.429   5.211   2.966
 5408SOL    HW116544   5.336   5.186   2.939
 5408SOL    HW216545   5.455   5.161   3.048
 5409SOL     OW16546   4.041   4.271   3.142
 5409SOL    HW116547   4.079   4.212   3.214
 5409SOL    HW216548   4.081   4.245   3.054
 5410SOL     OW16549   4.536   5.310   2.549
 5410SOL    HW116550   4.568   5.320   2.455
 5410SOL    HW216551   4.457   5.248   2.551
 5411SOL     OW16552   5.148   3.938   2.974
 5411SOL    HW116553   5.200   3.873   3.029
 5411SOL    HW216554   5.099   4.001   3.035
 5412SOL     OW16555   4.725   3.758   3.016
 5412SOL    HW116556   4.662   3.686   2.985
 5412SOL    HW216557   4.818   3.722   3.016
 5413SOL     OW16558   4.494   5.054   2.163
 5413SOL    HW116559   4.448   4.967   2.180
 5413SOL    HW216560   4.585   5.051   2.204
 5414SOL     OW16561   4.342   5.291   3.146
 5414SOL    HW116562   4.337   5.373   3.203
 5414SOL    HW216563   4.431   5.288   3.101
 5415SOL     OW16564   5.076   3.776   2.030
 5415SOL    HW116565   5.111   3.735   1.946
 5415SOL    HW216566   4.986   3.738   2.050
 5416SOL     OW16567   5.024   4.177   2.553
 5416SOL    HW116568   4.965   4.257   2.557
 5416SOL    HW216569   5.039   4.142   2.646
 5417SOL     OW16570   5.317   3.945   2.744
 5417SOL    HW116571   5.233   3.944   2.798
 5417SOL    HW216572   5.319   4.028   2.688
 5418SOL     OW16573   3.763   4.801   2.162
 5418SOL    HW116574   3.862   4.790   2.153
 5418SOL    HW216575   3.723   4.715   2.194
 5419SOL     OW16576   4.599   5.370   2.199
 5419SOL    HW116577   4.522   5.335   2.145
 5419SOL    HW216578   4.567   5.441   2.261
 5420SOL     OW16579   3.954   4.352   3.837
 5420SOL    HW116580   3.861   4.350   3.874
 5420SOL    HW216581   3.955   4.313   3.745
 5421SOL     OW16582   3.949   3.999   4.720
 5421SOL    HW116583   3.984   3.982   4.812
 5421SOL    HW216584   3.861   3.954   4.708
 5422SOL     OW16585   3.743   4.092   4.371
 5422SOL    HW116586   3.661   4.135   4.410
 5422SOL    HW216587   3.715   4.019   4.308
 5423SOL     OW16588   4.293   4.999   4.889
 5423SOL    HW116589   4.200   4.992   4.852
 5423SOL    HW216590   4.304   5.088   4.933
 5424SOL     OW16591   5.279   5.235   4.427
 5424SOL    HW116592   5.222   5.219   4.508
 5424SOL    HW216593   5.220   5.245   4.347
 5425SOL     OW16594   4.859   4.427   4.441
 5425SOL    HW116595   4.916   4.505   4.416
 5425SOL    HW216596   4.799   4.453   4.517
 5426SOL     OW16597   5.479   4.331   3.955
 5426SOL    HW116598   5.467   4.318   3.856
 5426SOL    HW216599   5.449   4.250   4.004
 5427SOL     OW16600   4.492   4.868   4.747
 5427SOL    HW116601   4.414   4.885   4.807
 5427SOL    HW216602   4.526   4.955   4.711
 5428SOL     OW16603   4.574   4.522   5.547
 5428SOL    HW116604   4.570   4.598   5.612
 5428SOL    HW216605   4.596   4.558   5.456
 5429SOL     OW16606   4.409   4.736   4.389
 5429SOL    HW116607   4.478   4.720   4.459
 5429SOL    HW216608   4.336   4.793   4.427
 5430SOL     OW16609   4.410   4.885   5.527
 5430SOL    HW116610   4.470   4.964   5.541
 5430SOL    HW216611   4.324   4.916   5.486
 5431SOL     OW16612   4.059   5.159   4.785
 5431SOL    HW116613   3.981   5.128   4.732
 5431SOL    HW216614   4.117   5.217   4.728
 5432SOL     OW16615   5.184   5.229   5.063
 5432SOL    HW116616   5.208   5.323   5.089
 5432SOL    HW216617   5.168   5.175   5.145
 5433SOL     OW16618   4.162   4.116   5.223
 5433SOL    HW116619   4.244   4.060   5.232
 5433SOL    HW216620   4.081   4.058   5.227
 5434SOL     OW16621   5.327   4.171   4.461
 5434SOL    HW116622   5.253   4.217   4.411
 5434SOL    HW216623   5.378   4.239   4.514
 5435SOL     OW16624   3.955   5.437   4.207
 5435SOL    HW116625   3.989   5.514   4.261
 5435SOL    HW216626   3.999   5.437   4.117
 5436SOL     OW16627   4.851   5.065   5.414
 5436SOL    HW116628   4.898   5.065   5.502
 5436SOL    HW216629   4.803   4.978   5.403
 5437SOL     OW16630   3.954   5.158   4.262
 5437SOL    HW116631   3.928   5.254   4.262
 5437SOL    HW216632   3.883   5.104   4.307
 5438SOL     OW16633   3.964   4.815   4.610
 5438SOL    HW116634   3.978   4.731   4.662
 5438SOL    HW216635   3.909   4.879   4.665
 5439SOL     OW16636   4.344   5.510   5.163
 5439SOL    HW116637   4.252   5.493   5.198
 5439SOL    HW216638   4.372   5.602   5.189
 5440SOL     OW16639   4.330   4.688   3.847
 5440SOL    HW116640   4.337   4.772   3.793
 5440SOL    HW216641   4.376   4.701   3.935
 5441SOL     OW16642   5.318   3.838   5.204
 5441SOL    HW116643   5.300   3.905   5.132
 5441SOL    HW216644   5.315   3.884   5.293
 5442SOL     OW16645   3.846   4.367   4.287
 5442SOL    HW116646   3.801   4.279   4.304
 5442SOL    HW216647   3.845   4.421   4.371
 5443SOL     OW16648   5.566   5.491   4.083
 5443SOL    HW116649   5.620   5.462   4.163
 5443SOL    HW216650   5.596   5.581   4.054
 5444SOL     OW16651   3.751   5.320   3.841
 5444SOL    HW116652   3.732   5.224   3.862
 5444SOL    HW216653   3.718   5.378   3.916
 5445SOL     OW16654   5.413   4.646   4.336
 5445SOL    HW116655   5.508   4.617   4.344
 5445SOL    HW216656   5.405   4.711   4.261
 5446SOL     OW16657   5.365   4.832   4.156
 5446SOL    HW116658   5.451   4.834   4.104
 5446SOL    HW216659   5.379   4.879   4.244
 5447SOL     OW16660   3.837   4.461   5.321
 5447SOL    HW116661   3.925   4.448   5.366
 5447SOL    HW216662   3.824   4.558   5.299
 5448SOL     OW16663   4.337   5.089   4.450
 5448SOL    HW116664   4.288   5.002   4.459
 5448SOL    HW216665   4.314   5.132   4.363
 5449SOL     OW16666   5.017   4.952   5.147
 5449SOL    HW116667   5.054   4.879   5.089
 5449SOL    HW216668   5.069   4.957   5.232
 5450SOL     OW16669   4.533   3.728   4.226
 5450SOL    HW116670   4.573   3.819   4.217
 5450SOL    HW216671   4.433   3.736   4.232
 5451SOL     OW16672   3.921   4.700   4.988
 5451SOL    HW116673   4.010   4.655   4.974
 5451SOL    HW216674   3.848   4.635   4.969
 5452SOL     OW16675   5.249   4.723   3.914
 5452SOL    HW116676   5.186   4.647   3.927
 5452SOL    HW216677   5.297   4.741   4.000
 5453SOL     OW16678   4.911   5.516   5.340
 5453SOL    HW116679   4.935   5.576   5.264
 5453SOL    HW216680   4.918   5.421   5.310
 5454SOL     OW16681   4.041   3.975   5.525
 5454SOL    HW116682   4.112   4.046   5.531
 5454SOL    HW216683   3.953   4.014   5.553
 5455SOL     OW16684   5.190   5.141   4.677
 5455SOL    HW116685   5.131   5.147   4.757
 5455SOL    HW216686   5.175   5.053   4.631
 5456SOL     OW16687   5.391   5.438   4.296
 5456SOL    HW116688   5.350   5.415   4.208
 5456SOL    HW216689   5.373   5.364   4.361
 5457SOL     OW16690   4.322   4.453   3.994
 5457SOL    HW116691   4.346   4.522   3.926
 5457SOL    HW216692   4.244   4.486   4.048
 5458SOL     OW16693   5.005   4.069   4.668
 5458SOL    HW116694   4.919   4.019   4.655
 5458SOL    HW216695   5.067   4.015   4.724
 5459SOL     OW16696   5.300   5.386   4.031
 5459SOL    HW116697   5.389   5.432   4.034
 5459SOL    HW216698   5.279   5.362   3.936
 5460SOL     OW16699   4.531   4.329   5.189
 5460SOL    HW116700   4.484   4.326   5.278
 5460SOL    HW216701   4.480   4.274   5.123
 5461SOL     OW16702   5.118   4.193   5.398
 5461SOL    HW116703   5.098   4.236   5.486
 5461SOL    HW216704   5.196   4.131   5.407
 5462SOL     OW16705   4.697   4.614   5.296
 5462SOL    HW116706   4.743   4.530   5.267
 5462SOL    HW216707   4.641   4.648   5.221
 5463SOL     OW16708   4.715   4.134   4.966
 5463SOL    HW116709   4.638   4.168   5.020
 5463SOL    HW216710   4.681   4.083   4.887
 5464SOL     OW16711   4.765   4.425   4.153
 5464SOL    HW116712   4.791   4.421   4.249
 5464SOL    HW216713   4.680   4.374   4.139
 5465SOL     OW16714   3.800   4.535   4.513
 5465SOL    HW116715   3.899   4.523   4.522
 5465SOL    HW216716   3.776   4.630   4.534
 5466SOL     OW16717   3.854   5.545   5.295
 5466SOL    HW116718   3.844   5.530   5.394
 5466SOL    HW216719   3.768   5.581   5.259
 5467SOL     OW16720   4.589   4.072   3.919
 5467SOL    HW116721   4.648   4.135   3.870
 5467SOL    HW216722   4.608   3.978   3.890
 5468SOL     OW16723   5.443   4.309   5.555
 5468SOL    HW116724   5.417   4.398   5.519
 5468SOL    HW216725   5.441   4.241   5.482
 5469SOL     OW16726   5.086   4.868   4.269
 5469SOL    HW116727   5.169   4.839   4.221
 5469SOL    HW216728   5.037   4.935   4.213
 5470SOL     OW16729   4.274   3.920   4.609
 5470SOL    HW116730   4.269   3.915   4.709
 5470SOL    HW216731   4.276   4.016   4.580
 5471SOL     OW16732   4.732   5.180   4.201
 5471SOL    HW116733   4.686   5.252   4.149
 5471SOL    HW216734   4.728   5.200   4.299
 5472SOL     OW16735   4.075   5.525   4.577
 5472SOL    HW116736   4.125   5.439   4.583
 5472SOL    HW216737   4.140   5.602   4.574
 5473SOL     OW16738   5.519   4.790   4.597
 5473SOL    HW116739   5.457   4.775   4.521
 5473SOL    HW216740   5.467   4.801   4.682
 5474SOL     OW16741   4.951   5.274   5.230
 5474SOL    HW116742   4.957   5.197   5.294
 5474SOL    HW216743   4.899   5.248   5.150
 5475SOL     OW16744   4.045   4.667   3.966
 5475SOL    HW116745   4.127   4.706   3.924
 5475SOL    HW216746   4.018   4.585   3.917
 5476SOL     OW16747   5.182   4.459   4.452
 5476SOL    HW116748   5.177   4.394   4.527
 5476SOL    HW216749   5.262   4.518   4.465
 5477SOL     OW16750   4.185   4.990   5.451
 5477SOL    HW116751   4.135   4.991   5.365
 5477SOL    HW216752   4.122   4.972   5.527
 5478SOL     OW16753   4.835   5.500   3.961
 5478SOL    HW116754   4.775   5.438   4.011
 5478SOL    HW216755   4.866   5.456   3.876
 5479SOL     OW16756   3.926   4.009   5.222
 5479SOL    HW116757   3.846   4.069   5.209
 5479SOL    HW216758   3.916   3.960   5.308
 5480SOL     OW16759   5.356   5.101   3.805
 5480SOL    HW116760   5.324   5.195   3.795
 5480SOL    HW216761   5.280   5.038   3.793
 5481SOL     OW16762   4.188   5.467   4.047
 5481SOL    HW116763   4.221   5.506   4.133
 5481SOL    HW216764   4.264   5.460   3.982
 5482SOL     OW16765   5.124   3.831   4.150
 5482SOL    HW116766   5.100   3.794   4.060
 5482SOL    HW216767   5.223   3.847   4.154
 5483SOL     OW16768   3.973   5.509   4.965
 5483SOL    HW116769   4.030   5.444   5.015
 5483SOL    HW216770   3.957   5.476   4.872
 5484SOL     OW16771   4.664   5.422   4.628
 5484SOL    HW116772   4.744   5.365   4.649
 5484SOL    HW216773   4.615   5.382   4.551
 5485SOL     OW16774   4.106   4.424   4.204
 5485SOL    HW116775   4.151   4.334   4.201
 5485SOL    HW216776   4.012   4.413   4.237
 5486SOL     OW16777   5.271   3.946   5.453
 5486SOL    HW116778   5.266   3.983   5.545
 5486SOL    HW216779   5.199   3.877   5.441
 5487SOL     OW16780   4.338   3.846   3.841
 5487SOL    HW116781   4.436   3.824   3.848
 5487SOL    HW216782   4.307   3.829   3.748
 5488SOL     OW16783   4.505   3.988   5.473
 5488SOL    HW116784   4.572   3.927   5.516
 5488SOL    HW216785   4.432   4.007   5.538
 5489SOL     OW16786   4.612   5.238   4.919
 5489SOL    HW116787   4.589   5.213   4.825
 5489SOL    HW216788   4.673   5.169   4.958
 5490SOL     OW16789   5.075   4.314   5.157
 5490SOL    HW116790   5.103   4.271   5.242
 5490SOL    HW216791   5.100   4.410   5.158
 5491SOL     OW16792   4.527   5.126   4.648
 5491SOL    HW116793   4.617   5.140   4.606
 5491SOL    HW216794   4.456   5.128   4.577
 5492SOL     OW16795   4.646   4.227   4.623
 5492SOL    HW116796   4.621   4.218   4.527
 5492SOL    HW216797   4.694   4.145   4.654
 5493SOL     OW16798   4.263   3.788   4.236
 5493SOL    HW116799   4.182   3.789   4.294
 5493SOL    HW216800   4.266   3.871   4.181
 5494SOL     OW16801   5.158   4.912   3.765
 5494SOL    HW116802   5.190   4.836   3.822
 5494SOL    HW216803   5.066   4.939   3.795
 5495SOL     OW16804   4.021   3.759   3.895
 5495SOL    HW116805   4.070   3.843   3.874
 5495SOL    HW216806   4.083   3.694   3.940
 5496SOL     OW16807   4.659   3.960   4.204
 5496SOL    HW116808   4.611   4.001   4.126
 5496SOL    HW216809   4.758   3.958   4.185
 5497SOL     OW16810   4.800   4.407   5.188
 5497SOL    HW116811   4.720   4.346   5.191
 5497SOL    HW216812   4.881   4.354   5.164
 5498SOL     OW16813   4.951   5.294   4.517
 5498SOL    HW116814   4.972   5.368   4.452
 5498SOL    HW216815   5.019   5.294   4.590
 5499SOL     OW16816   4.183   4.876   4.465
 5499SOL    HW116817   4.112   4.849   4.530
 5499SOL    HW216818   4.157   4.848   4.372
 5500SOL     OW16819   4.995   5.521   4.315
 5500SOL    HW116820   5.039   5.585   4.251
 5500SOL    HW216821   4.945   5.573   4.385
 5501SOL     OW16822   4.756   4.273   3.740
 5501SOL    HW116823   4.715   4.355   3.701
 5501SOL    HW216824   4.820   4.299   3.813
 5502SOL     OW16825   3.802   4.280   5.110
 5502SOL    HW116826   3.894   4.279   5.069
 5502SOL    HW216827   3.796   4.354   5.177
 5503SOL     OW16828   4.285   3.946   4.871
 5503SOL    HW116829   4.323   3.862   4.908
 5503SOL    HW216830   4.197   3.965   4.915
 5504SOL     OW16831   4.590   4.178   4.366
 5504SOL    HW116832   4.558   4.250   4.304
 5504SOL    HW216833   4.614   4.097   4.313
 5505SOL     OW16834   4.741   3.763   4.477
 5505SOL    HW116835   4.669   3.768   4.408
 5505SOL    HW216836   4.717   3.694   4.546
 5506SOL     OW16837   5.153   4.897   4.591
 5506SOL    HW116838   5.098   4.813   4.584
 5506SOL    HW216839   5.179   4.926   4.499
 5507SOL     OW16840   5.190   4.314   4.716
 5507SOL    HW116841   5.160   4.219   4.723
 5507SOL    HW216842   5.263   4.330   4.782
 5508SOL     OW16843   5.581   4.557   4.101
 5508SOL    HW116844   5.623   4.493   4.165
 5508SOL    HW216845   5.543   4.506   4.023
 5509SOL     OW16846   4.212   5.109   3.898
 5509SOL    HW116847   4.125   5.094   3.945
 5509SOL    HW216848   4.195   5.135   3.803
 5510SOL     OW16849   5.388   5.004   4.381
 5510SOL    HW116850   5.487   5.012   4.395
 5510SOL    HW216851   5.343   5.088   4.412
 5511SOL     OW16852   5.114   4.299   3.802
 5511SOL    HW116853   5.060   4.278   3.883
 5511SOL    HW216854   5.205   4.258   3.811
 5512SOL     OW16855   4.251   3.980   4.052
 5512SOL    HW116856   4.278   3.921   3.977
 5512SOL    HW216857   4.251   4.075   4.021
 5513SOL     OW16858   5.478   4.947   5.312
 5513SOL    HW116859   5.569   4.908   5.299
 5513SOL    HW216860   5.486   5.043   5.336
 5514SOL     OW16861   4.788   5.071   5.064
 5514SOL    HW116862   4.708   5.048   5.119
 5514SOL    HW216863   4.871   5.045   5.113
 5515SOL     OW16864   5.316   5.353   5.349
 5515SOL    HW116865   5.343   5.387   5.259
 5515SOL    HW216866   5.395   5.315   5.395
 5516SOL     OW16867   4.835   4.919   4.824
 5516SOL    HW116868   4.795   4.963   4.905
 5516SOL    HW216869   4.794   4.956   4.741
 5517SOL     OW16870   5.362   4.823   4.803
 5517SOL    HW116871   5.367   4.904   4.862
 5517SOL    HW216872   5.276   4.825   4.752
 5518SOL     OW16873   4.639   3.813   5.126
 5518SOL    HW116874   4.664   3.793   5.031
 5518SOL    HW216875   4.711   3.869   5.168
 5519SOL     OW16876   4.704   4.840   5.443
 5519SOL    HW116877   4.605   4.846   5.453
 5519SOL    HW216878   4.727   4.760   5.387
 5520SOL     OW16879   4.429   4.774   4.092
 5520SOL    HW116880   4.415   4.781   4.191
 5520SOL    HW216881   4.513   4.723   4.074
 5521SOL     OW16882   4.134   4.537   4.975
 5521SOL    HW116883   4.220   4.549   5.025
 5521SOL    HW216884   4.092   4.450   5.002
 5522SOL     OW16885   4.998   4.110   4.986
 5522SOL    HW116886   5.019   4.184   5.050
 5522SOL    HW216887   4.909   4.127   4.943
 5523SOL     OW16888   3.788   5.288   5.055
 5523SOL    HW116889   3.742   5.370   5.021
 5523SOL    HW216890   3.886   5.307   5.064
 5524SOL     OW16891   4.091   4.824   4.225
 5524SOL    HW116892   4.084   4.907   4.169
 5524SOL    HW216893   4.095   4.744   4.165
 5525SOL     OW16894   4.290   4.261   4.589
 5525SOL    HW116895   4.302   4.327   4.515
 5525SOL    HW216896   4.336   4.295   4.672
 5526SOL     OW16897   4.976   5.072   4.112
 5526SOL    HW116898   5.026   5.149   4.152
 5526SOL    HW216899   4.881   5.074   4.144
 5527SOL     OW16900   4.996   5.169   4.866
 5527SOL    HW116901   5.043   5.182   4.953
 5527SOL    HW216902   4.930   5.095   4.875
 5528SOL     OW16903   5.306   4.363   4.196
 5528SOL    HW116904   5.275   4.424   4.269
 5528SOL    HW216905   5.356   4.415   4.127
 5529SOL     OW16906   4.078   5.234   5.053
 5529SOL    HW116907   4.057   5.190   4.966
 5529SOL    HW216908   4.175   5.260   5.056
 5530SOL     OW16909   4.126   4.475   5.322
 5530SOL    HW116910   4.194   4.530   5.275
 5530SOL    HW216911   4.166   4.387   5.349
 5531SOL     OW16912   5.311   4.503   5.394
 5531SOL    HW116913   5.219   4.541   5.389
 5531SOL    HW216914   5.371   4.550   5.329
 5532SOL     OW16915   4.737   3.829   5.494
 5532SOL    HW116916   4.743   3.914   5.442
 5532SOL    HW216917   4.769   3.753   5.437
 5533SOL     OW16918   4.228   3.774   5.464
 5533SOL    HW116919   4.186   3.717   5.394
 5533SOL    HW216920   4.162   3.843   5.496
 5534SOL     OW16921   4.297   4.594   4.753
 5534SOL    HW116922   4.341   4.683   4.744
 5534SOL    HW216923   4.234   4.594   4.830
 5535SOL     OW16924   5.084   4.586   4.769
 5535SOL    HW116925   5.009   4.586   4.703
 5535SOL    HW216926   5.121   4.494   4.778
 5536SOL     OW16927   4.933   4.249   3.999
 5536SOL    HW116928   4.946   4.165   4.053
 5536SOL    HW216929   4.904   4.323   4.059
 5537SOL     OW16930   4.031   3.937   4.955
 5537SOL    HW116931   4.008   3.974   5.045
 5537SOL    HW216932   4.001   3.842   4.949
 5538SOL     OW16933   3.761   5.034   5.006
 5538SOL    HW116934   3.814   4.985   5.074
 5538SOL    HW216935   3.783   5.132   5.011
 5539SOL     OW16936   4.456   4.358   4.788
 5539SOL    HW116937   4.515   4.332   4.712
 5539SOL    HW216938   4.428   4.454   4.777
 5540SOL     OW16939   5.452   4.659   5.578
 5540SOL    HW116940   5.406   4.652   5.489
 5540SOL    HW216941   5.390   4.703   5.644
 5541SOL     OW16942   4.031   3.787   4.342
 5541SOL    HW116943   4.020   3.881   4.375
 5541SOL    HW216944   4.026   3.724   4.419
 5542SOL     OW16945   5.346   4.091   4.098
 5542SOL    HW116946   5.348   4.015   4.162
 5542SOL    HW216947   5.298   4.168   4.138
 5543SOL     OW16948   4.747   4.490   4.690
 5543SOL    HW116949   4.762   4.511   4.786
 5543SOL    HW216950   4.717   4.395   4.681
 5544SOL     OW16951   4.704   5.297   5.424
 5544SOL    HW116952   4.684   5.341   5.336
 5544SOL    HW216953   4.743   5.206   5.408
 5545SOL     OW16954   5.583   5.242   5.329
 5545SOL    HW116955   5.597   5.269   5.234
 5545SOL    HW216956   5.666   5.264   5.382
 5546SOL     OW16957   4.074   4.622   5.528
 5546SOL    HW116958   4.150   4.666   5.576
 5546SOL    HW216959   4.109   4.575   5.446
 5547SOL     OW16960   5.264   3.998   3.849
 5547SOL    HW116961   5.203   3.923   3.872
 5547SOL    HW216962   5.286   4.050   3.932
 5548SOL     OW16963   5.027   4.562   3.766
 5548SOL    HW116964   5.061   4.469   3.781
 5548SOL    HW216965   5.045   4.589   3.671
 5549SOL     OW16966   4.792   5.057   4.573
 5549SOL    HW116967   4.799   4.973   4.518
 5549SOL    HW216968   4.854   5.126   4.537
 5550SOL     OW16969   4.043   4.534   4.673
 5550SOL    HW116970   4.136   4.570   4.678
 5550SOL    HW216971   4.037   4.449   4.725
 5551SOL     OW16972   4.063   4.233   4.730
 5551SOL    HW116973   4.011   4.150   4.713
 5551SOL    HW216974   4.140   4.238   4.666
 5552SOL     OW16975   4.862   4.104   5.402
 5552SOL    HW116976   4.817   4.167   5.466
 5552SOL    HW216977   4.955   4.135   5.385
 5553SOL     OW16978   4.884   3.931   5.201
 5553SOL    HW116979   4.884   3.995   5.278
 5553SOL    HW216980   4.912   3.979   5.118
 5554SOL     OW16981   3.732   5.050   3.924
 5554SOL    HW116982   3.639   5.071   3.893
 5554SOL    HW216983   3.742   4.951   3.937
 5555SOL     OW16984   3.812   5.525   4.651
 5555SOL    HW116985   3.770   5.439   4.624
 5555SOL    HW216986   3.906   5.528   4.617
 5556SOL     OW16987   4.228   5.292   4.634
 5556SOL    HW116988   4.294   5.366   4.643
 5556SOL    HW216989   4.272   5.213   4.592
 5557SOL     OW16990   4.726   4.520   4.962
 5557SOL    HW116991   4.767   4.488   5.048
 5557SOL    HW216992   4.630   4.493   4.959
 5558SOL     OW16993   3.764   4.268   4.838
 5558SOL    HW116994   3.849   4.235   4.797
 5558SOL    HW216995   3.777   4.283   4.936
 5559SOL     OW16996   3.913   4.244   5.446
 5559SOL    HW116997   3.972   4.204   5.376
 5559SOL    HW216998   3.855   4.315   5.405
 5560SOL     OW16999   5.093   4.674   5.384
 5560SOL    HW117000   5.132   4.763   5.404
 5560SOL    HW217001   5.103   4.654   5.287
 5561SOL     OW17002   4.539   4.296   4.049
 5561SOL    HW117003   4.546   4.207   4.003
 5561SOL    HW217004   4.445   4.330   4.041
 5562SOL     OW17005   5.381   4.328   4.930
 5562SOL    HW117006   5.343   4.259   4.992
 5562SOL    HW217007   5.463   4.292   4.886
 5563SOL     OW17008   3.976   5.288   5.468
 5563SOL    HW117009   3.946   5.345   5.544
 5563SOL    HW217010   3.969   5.191   5.494
 5564SOL     OW17011   4.395   4.188   4.993
 5564SOL    HW117012   4.361   4.099   4.963
 5564SOL    HW217013   4.421   4.242   4.913
 5565SOL     OW17014   4.654   5.402   5.189
 5565SOL    HW117015   4.630   5.384   5.094
 5565SOL    HW217016   4.684   5.496   5.199
 5566SOL     OW17017   4.197   4.224   3.915
 5566SOL    HW117018   4.258   4.304   3.919
 5566SOL    HW217019   4.102   4.255   3.922
 5567SOL     OW17020   3.883   4.861   5.190
 5567SOL    HW117021   3.905   4.800   5.266
 5567SOL    HW217022   3.893   4.812   5.104
 5568SOL     OW17023   5.071   4.783   4.958
 5568SOL    HW117024   5.095   4.720   4.884
 5568SOL    HW217025   4.981   4.823   4.940
 5569SOL     OW17026   5.026   4.579   4.033
 5569SOL    HW117027   4.940   4.548   4.075
 5569SOL    HW217028   5.022   4.565   3.934
 5570SOL     OW17029   5.483   5.471   4.878
 5570SOL    HW117030   5.544   5.501   4.805
 5570SOL    HW217031   5.445   5.382   4.856
 5571SOL     OW17032   4.976   5.455   4.852
 5571SOL    HW117033   5.060   5.460   4.798
 5571SOL    HW217034   4.953   5.359   4.870
 5572SOL     OW17035   3.807   4.982   4.746
 5572SOL    HW117036   3.802   4.981   4.846
 5572SOL    HW217037   3.724   4.941   4.708
 5573SOL     OW17038   4.412   5.386   5.440
 5573SOL    HW117039   4.356   5.467   5.449
 5573SOL    HW217040   4.464   5.390   5.354
 5574SOL     OW17041   5.450   3.859   4.247
 5574SOL    HW117042   5.523   3.842   4.180
 5574SOL    HW217043   5.419   3.772   4.285
 5575SOL     OW17044   5.112   5.297   4.201
 5575SOL    HW117045   5.179   5.309   4.127
 5575SOL    HW217046   5.072   5.386   4.224
 5576SOL     OW17047   3.854   5.518   5.575
 5576SOL    HW117048   3.813   5.444   5.628
 5576SOL    HW217049   3.918   5.569   5.633
 5577SOL     OW17050   5.004   4.651   4.396
 5577SOL    HW117051   5.064   4.570   4.398
 5577SOL    HW217052   5.044   4.720   4.336
 5578SOL     OW17053   4.554   4.997   5.146
 5578SOL    HW117054   4.549   5.030   5.241
 5578SOL    HW217055   4.468   5.016   5.100
 5579SOL     OW17056   4.396   5.340   3.878
 5579SOL    HW117057   4.405   5.350   3.779
 5579SOL    HW217058   4.356   5.251   3.899
 5580SOL     OW17059   5.374   5.444   5.118
 5580SOL    HW117060   5.427   5.454   5.034
 5580SOL    HW217061   5.347   5.534   5.152
 5581SOL     OW17062   5.565   3.899   4.687
 5581SOL    HW117063   5.604   3.814   4.651
 5581SOL    HW217064   5.467   3.901   4.668
 5582SOL     OW17065   3.987   4.050   4.444
 5582SOL    HW117066   3.908   4.101   4.410
 5582SOL    HW217067   3.978   4.035   4.542
 5583SOL     OW17068   4.918   5.336   3.755
 5583SOL    HW117069   4.924   5.243   3.792
 5583SOL    HW217070   4.859   5.336   3.675
 5584SOL     OW17071   4.546   4.726   5.096
 5584SOL    HW117072   4.586   4.725   5.004
 5584SOL    HW217073   4.556   4.818   5.136
 5585SOL     OW17074   4.640   4.634   4.015
 5585SOL    HW117075   4.703   4.672   3.947
 5585SOL    HW217076   4.680   4.551   4.054
 5586SOL     OW17077   5.228   5.331   3.768
 5586SOL    HW117078   5.136   5.368   3.775
 5586SOL    HW217079   5.266   5.351   3.678
 5587SOL     OW17080   4.096   5.012   5.214
 5587SOL    HW117081   4.083   5.105   5.180
 5587SOL    HW217082   4.012   4.960   5.201
 5588SOL     OW17083   5.338   5.016   5.013
 5588SOL    HW117084   5.398   5.019   5.093
 5588SOL    HW217085   5.263   5.080   5.026
 5589SOL     OW17086   4.763   4.822   4.420
 5589SOL    HW117087   4.693   4.775   4.474
 5589SOL    HW217088   4.822   4.754   4.377
 5590SOL     OW17089   4.738   3.960   4.695
 5590SOL    HW117090   4.730   3.924   4.602
 5590SOL    HW217091   4.736   3.884   4.760
 5591SOL     OW17092   4.314   5.211   4.215
 5591SOL    HW117093   4.356   5.153   4.145
 5591SOL    HW217094   4.270   5.290   4.171
 5592SOL     OW17095   5.433   4.109   5.105
 5592SOL    HW117096   5.506   4.178   5.109
 5592SOL    HW217097   5.461   4.034   5.046
 5593SOL     OW17098   3.979   5.072   4.014
 5593SOL    HW117099   3.883   5.073   3.987
 5593SOL    HW217100   3.991   5.125   4.098
 5594SOL     OW17101   3.829   4.737   5.450
 5594SOL    HW117102   3.752   4.704   5.504
 5594SOL    HW217103   3.914   4.707   5.492
 5595SOL     OW17104   4.396   3.927   5.213
 5595SOL    HW117105   4.486   3.911   5.173
 5595SOL    HW217106   4.404   3.932   5.312
 5596SOL     OW17107   3.799   4.069   3.757
 5596SOL    HW117108   3.707   4.041   3.728
 5596SOL    HW217109   3.830   4.146   3.701
 5597SOL     OW17110   5.164   4.580   5.122
 5597SOL    HW117111   5.107   4.632   5.059
 5597SOL    HW217112   5.260   4.592   5.098
 5598SOL     OW17113   3.796   3.890   4.042
 5598SOL    HW117114   3.779   3.973   3.988
 5598SOL    HW217115   3.886   3.853   4.020
 5599SOL     OW17116   4.907   5.059   3.843
 5599SOL    HW117117   4.808   5.048   3.845
 5599SOL    HW217118   4.941   5.074   3.936
 5600SOL     OW17119   4.337   4.566   5.155
 5600SOL    HW117120   4.393   4.647   5.138
 5600SOL    HW217121   4.396   4.486   5.158
 5601SOL     OW17122   5.217   5.491   4.683
 5601SOL    HW117123   5.250   5.555   4.614
 5601SOL    HW217124   5.283   5.485   4.758
 5602SOL     OW17125   4.440   4.289   5.432
 5602SOL    HW117126   4.459   4.354   5.506
 5602SOL    HW217127   4.500   4.209   5.441
 5603SOL     OW17128   5.174   4.944   5.357
 5603SOL    HW117129   5.165   4.934   5.456
 5603SOL    HW217130   5.270   4.937   5.331
 5604SOL     OW17131   4.114   5.465   5.284
 5604SOL    HW117132   4.023   5.506   5.282
 5604SOL    HW217133   4.107   5.371   5.316
 5605SOL     OW17134   5.398   4.607   4.978
 5605SOL    HW117135   5.371   4.518   4.941
 5605SOL    HW217136   5.399   4.675   4.905
 5606SOL     OW17137   4.949   4.049   4.173
 5606SOL    HW117138   5.014   3.975   4.162
 5606SOL    HW217139   4.969   4.099   4.257
 5607SOL     OW17140   4.318   4.469   4.376
 5607SOL    HW117141   4.368   4.554   4.357
 5607SOL    HW217142   4.230   4.471   4.328
 5608SOL     OW17143   5.501   4.066   5.366
 5608SOL    HW117144   5.484   4.097   5.272
 5608SOL    HW217145   5.417   4.029   5.404
 5609SOL     OW17146   5.454   4.658   5.241
 5609SOL    HW117147   5.492   4.749   5.256
 5609SOL    HW217148   5.446   4.641   5.142
 5610SOL     OW17149   4.583   5.098   3.740
 5610SOL    HW117150   4.537   5.113   3.828
 5610SOL    HW217151   4.627   5.183   3.710
 5611SOL     OW17152   4.385   5.514   4.677
 5611SOL    HW117153   4.339   5.602   4.664
 5611SOL    HW217154   4.484   5.526   4.670
 5612SOL     OW17155   4.583   4.680   4.585
 5612SOL    HW117156   4.637   4.611   4.633
 5612SOL    HW217157   4.551   4.749   4.651
 5613SOL     OW17158   4.807   4.708   3.811
 5613SOL    HW117159   4.784   4.761   3.729
 5613SOL    HW217160   4.888   4.652   3.792
 5614SOL     OW17161   5.585   5.293   4.575
 5614SOL    HW117162   5.514   5.281   4.505
 5614SOL    HW217163   5.586   5.214   4.635
 5615SOL     OW17164   3.945   5.038   5.568
 5615SOL    HW117165   3.880   4.965   5.547
 5615SOL    HW217166   3.949   5.052   5.666
 5616SOL     OW17167   3.803   4.964   4.377
 5616SOL    HW117168   3.802   4.917   4.465
 5616SOL    HW217169   3.885   4.936   4.326
 5617SOL     OW17170   4.396   5.115   5.348
 5617SOL    HW117171   4.318   5.065   5.386
 5617SOL    HW217172   4.393   5.210   5.379
 5618SOL     OW17173   5.548   3.916   4.951
 5618SOL    HW117174   5.544   3.826   4.995
 5618SOL    HW217175   5.551   3.905   4.852
 5619SOL     OW17176   4.152   4.148   4.244
 5619SOL    HW117177   4.182   4.076   4.182
 5619SOL    HW217178   4.113   4.108   4.327
 5620SOL     OW17179   5.429   5.211   4.828
 5620SOL    HW117180   5.336   5.186   4.801
 5620SOL    HW217181   5.455   5.161   4.910
 5621SOL     OW17182   4.041   4.271   5.004
 5621SOL    HW117183   4.079   4.212   5.076
 5621SOL    HW217184   4.081   4.245   4.916
 5622SOL     OW17185   4.536   5.310   4.411
 5622SOL    HW117186   4.568   5.320   4.317
 5622SOL    HW217187   4.457   5.248   4.413
 5623SOL     OW17188   5.148   3.938   4.836
 5623SOL    HW117189   5.200   3.873   4.891
 5623SOL    HW217190   5.099   4.001   4.897
 5624SOL     OW17191   4.725   3.758   4.878
 5624SOL    HW117192   4.662   3.686   4.847
 5624SOL    HW217193   4.818   3.722   4.878
 5625SOL     OW17194   4.494   5.054   4.025
 5625SOL    HW117195   4.448   4.967   4.042
 5625SOL    HW217196   4.585   5.051   4.066
 5626SOL     OW17197   4.342   5.291   5.008
 5626SOL    HW117198   4.337   5.373   5.065
 5626SOL    HW217199   4.431   5.288   4.963
 5627SOL     OW17200   5.076   3.776   3.892
 5627SOL    HW117201   5.111   3.735   3.808
 5627SOL    HW217202   4.986   3.738   3.912
 5628SOL     OW17203   5.024   4.177   4.415
 5628SOL    HW117204   4.965   4.257   4.419
 5628SOL    HW217205   5.039   4.142   4.508
 5629SOL     OW17206   5.317   3.945   4.606
 5629SOL    HW117207   5.233   3.944   4.660
 5629SOL    HW217208   5.319   4.028   4.550
 5630SOL     OW17209   3.763   4.801   4.024
 5630SOL    HW117210   3.862   4.790   4.015
 5630SOL    HW217211   3.723   4.715   4.056
 5631SOL     OW17212   4.599   5.370   4.061
 5631SOL    HW117213   4.522   5.335   4.007
 5631SOL    HW217214   4.567   5.441   4.123
   5.59418   5.59418   5.59418
