;
;	File 'topol.top' was generated
;	By user: root (501)
;	On host: Amoghs-MacBook-Air.local
;	At date: Thu Jul 16 13:30:06 2026
;
;	This is a standalone topology file
;
;	Created by:
;	                :-) GROMACS - gmx pdb2gmx, 2026.3-Homebrew (-:
;	
;	Executable:   /opt/homebrew/bin/../Cellar/gromacs/2026.3/bin/gmx
;	Data prefix:  /opt/homebrew/bin/../Cellar/gromacs/2026.3
;	Working dir:  /Users/centurion616/Desktop/Silicon-Virovore
;	Command line:
;	  gmx pdb2gmx -f new_optimized_fixed.pdb -o peptide_processed.gro -p topol.top -water spce -ff amber99sb-ildn
;	Force field was read from the standard GROMACS share directory.
;

; Include forcefield parameters
#include "amber99sb-ildn.ff/forcefield.itp"

[ moleculetype ]
; Name            nrexcl
Protein_chain_A     3

[ atoms ]
;   nr       type  resnr residue  atom   cgnr     charge       mass  typeB    chargeB      massB
; residue   1 MET rtp NMET q +1.0
     1         N3      1    MET      N      1     0.1592      14.01
     2          H      1    MET     H1      2     0.1984      1.008
     3          H      1    MET     H2      3     0.1984      1.008
     4          H      1    MET     H3      4     0.1984      1.008
     5         CT      1    MET     CA      5     0.0221      12.01
     6         HP      1    MET     HA      6     0.1116      1.008
     7         CT      1    MET     CB      7     0.0865      12.01
     8         HC      1    MET    HB1      8     0.0125      1.008
     9         HC      1    MET    HB2      9     0.0125      1.008
    10         CT      1    MET     CG     10     0.0334      12.01
    11         H1      1    MET    HG1     11     0.0292      1.008
    12         H1      1    MET    HG2     12     0.0292      1.008
    13          S      1    MET     SD     13    -0.2774      32.06
    14         CT      1    MET     CE     14    -0.0341      12.01
    15         H1      1    MET    HE1     15     0.0597      1.008
    16         H1      1    MET    HE2     16     0.0597      1.008
    17         H1      1    MET    HE3     17     0.0597      1.008
    18          C      1    MET      C     18     0.6123      12.01
    19          O      1    MET      O     19    -0.5713         16   ; qtot 1
; residue   2 LYS rtp LYS  q +1.0
    20          N      2    LYS      N     20    -0.3479      14.01
    21          H      2    LYS      H     21     0.2747      1.008
    22         CT      2    LYS     CA     22      -0.24      12.01
    23         H1      2    LYS     HA     23     0.1426      1.008
    24         CT      2    LYS     CB     24    -0.0094      12.01
    25         HC      2    LYS    HB1     25     0.0362      1.008
    26         HC      2    LYS    HB2     26     0.0362      1.008
    27         CT      2    LYS     CG     27     0.0187      12.01
    28         HC      2    LYS    HG1     28     0.0103      1.008
    29         HC      2    LYS    HG2     29     0.0103      1.008
    30         CT      2    LYS     CD     30    -0.0479      12.01
    31         HC      2    LYS    HD1     31     0.0621      1.008
    32         HC      2    LYS    HD2     32     0.0621      1.008
    33         CT      2    LYS     CE     33    -0.0143      12.01
    34         HP      2    LYS    HE1     34     0.1135      1.008
    35         HP      2    LYS    HE2     35     0.1135      1.008
    36         N3      2    LYS     NZ     36    -0.3854      14.01
    37          H      2    LYS    HZ1     37       0.34      1.008
    38          H      2    LYS    HZ2     38       0.34      1.008
    39          H      2    LYS    HZ3     39       0.34      1.008
    40          C      2    LYS      C     40     0.7341      12.01
    41          O      2    LYS      O     41    -0.5894         16   ; qtot 2
; residue   3 LEU rtp LEU  q  0.0
    42          N      3    LEU      N     42    -0.4157      14.01
    43          H      3    LEU      H     43     0.2719      1.008
    44         CT      3    LEU     CA     44    -0.0518      12.01
    45         H1      3    LEU     HA     45     0.0922      1.008
    46         CT      3    LEU     CB     46    -0.1102      12.01
    47         HC      3    LEU    HB1     47     0.0457      1.008
    48         HC      3    LEU    HB2     48     0.0457      1.008
    49         CT      3    LEU     CG     49     0.3531      12.01
    50         HC      3    LEU     HG     50    -0.0361      1.008
    51         CT      3    LEU    CD1     51    -0.4121      12.01
    52         HC      3    LEU   HD11     52        0.1      1.008
    53         HC      3    LEU   HD12     53        0.1      1.008
    54         HC      3    LEU   HD13     54        0.1      1.008
    55         CT      3    LEU    CD2     55    -0.4121      12.01
    56         HC      3    LEU   HD21     56        0.1      1.008
    57         HC      3    LEU   HD22     57        0.1      1.008
    58         HC      3    LEU   HD23     58        0.1      1.008
    59          C      3    LEU      C     59     0.5973      12.01
    60          O      3    LEU      O     60    -0.5679         16   ; qtot 2
; residue   4 ALA rtp ALA  q  0.0
    61          N      4    ALA      N     61    -0.4157      14.01
    62          H      4    ALA      H     62     0.2719      1.008
    63         CT      4    ALA     CA     63     0.0337      12.01
    64         H1      4    ALA     HA     64     0.0823      1.008
    65         CT      4    ALA     CB     65    -0.1825      12.01
    66         HC      4    ALA    HB1     66     0.0603      1.008
    67         HC      4    ALA    HB2     67     0.0603      1.008
    68         HC      4    ALA    HB3     68     0.0603      1.008
    69          C      4    ALA      C     69     0.5973      12.01
    70          O      4    ALA      O     70    -0.5679         16   ; qtot 2
; residue   5 VAL rtp VAL  q  0.0
    71          N      5    VAL      N     71    -0.4157      14.01
    72          H      5    VAL      H     72     0.2719      1.008
    73         CT      5    VAL     CA     73    -0.0875      12.01
    74         H1      5    VAL     HA     74     0.0969      1.008
    75         CT      5    VAL     CB     75     0.2985      12.01
    76         HC      5    VAL     HB     76    -0.0297      1.008
    77         CT      5    VAL    CG1     77    -0.3192      12.01
    78         HC      5    VAL   HG11     78     0.0791      1.008
    79         HC      5    VAL   HG12     79     0.0791      1.008
    80         HC      5    VAL   HG13     80     0.0791      1.008
    81         CT      5    VAL    CG2     81    -0.3192      12.01
    82         HC      5    VAL   HG21     82     0.0791      1.008
    83         HC      5    VAL   HG22     83     0.0791      1.008
    84         HC      5    VAL   HG23     84     0.0791      1.008
    85          C      5    VAL      C     85     0.5973      12.01
    86          O      5    VAL      O     86    -0.5679         16   ; qtot 2
; residue   6 ASP rtp ASP  q -1.0
    87          N      6    ASP      N     87    -0.5163      14.01
    88          H      6    ASP      H     88     0.2936      1.008
    89         CT      6    ASP     CA     89     0.0381      12.01
    90         H1      6    ASP     HA     90      0.088      1.008
    91         CT      6    ASP     CB     91    -0.0303      12.01
    92         HC      6    ASP    HB1     92    -0.0122      1.008
    93         HC      6    ASP    HB2     93    -0.0122      1.008
    94          C      6    ASP     CG     94     0.7994      12.01
    95         O2      6    ASP    OD1     95    -0.8014         16
    96         O2      6    ASP    OD2     96    -0.8014         16
    97          C      6    ASP      C     97     0.5366      12.01
    98          O      6    ASP      O     98    -0.5819         16   ; qtot 1
; residue   7 ALA rtp ALA  q  0.0
    99          N      7    ALA      N     99    -0.4157      14.01
   100          H      7    ALA      H    100     0.2719      1.008
   101         CT      7    ALA     CA    101     0.0337      12.01
   102         H1      7    ALA     HA    102     0.0823      1.008
   103         CT      7    ALA     CB    103    -0.1825      12.01
   104         HC      7    ALA    HB1    104     0.0603      1.008
   105         HC      7    ALA    HB2    105     0.0603      1.008
   106         HC      7    ALA    HB3    106     0.0603      1.008
   107          C      7    ALA      C    107     0.5973      12.01
   108          O      7    ALA      O    108    -0.5679         16   ; qtot 1
; residue   8 LEU rtp LEU  q  0.0
   109          N      8    LEU      N    109    -0.4157      14.01
   110          H      8    LEU      H    110     0.2719      1.008
   111         CT      8    LEU     CA    111    -0.0518      12.01
   112         H1      8    LEU     HA    112     0.0922      1.008
   113         CT      8    LEU     CB    113    -0.1102      12.01
   114         HC      8    LEU    HB1    114     0.0457      1.008
   115         HC      8    LEU    HB2    115     0.0457      1.008
   116         CT      8    LEU     CG    116     0.3531      12.01
   117         HC      8    LEU     HG    117    -0.0361      1.008
   118         CT      8    LEU    CD1    118    -0.4121      12.01
   119         HC      8    LEU   HD11    119        0.1      1.008
   120         HC      8    LEU   HD12    120        0.1      1.008
   121         HC      8    LEU   HD13    121        0.1      1.008
   122         CT      8    LEU    CD2    122    -0.4121      12.01
   123         HC      8    LEU   HD21    123        0.1      1.008
   124         HC      8    LEU   HD22    124        0.1      1.008
   125         HC      8    LEU   HD23    125        0.1      1.008
   126          C      8    LEU      C    126     0.5973      12.01
   127          O      8    LEU      O    127    -0.5679         16   ; qtot 1
; residue   9 LEU rtp LEU  q  0.0
   128          N      9    LEU      N    128    -0.4157      14.01
   129          H      9    LEU      H    129     0.2719      1.008
   130         CT      9    LEU     CA    130    -0.0518      12.01
   131         H1      9    LEU     HA    131     0.0922      1.008
   132         CT      9    LEU     CB    132    -0.1102      12.01
   133         HC      9    LEU    HB1    133     0.0457      1.008
   134         HC      9    LEU    HB2    134     0.0457      1.008
   135         CT      9    LEU     CG    135     0.3531      12.01
   136         HC      9    LEU     HG    136    -0.0361      1.008
   137         CT      9    LEU    CD1    137    -0.4121      12.01
   138         HC      9    LEU   HD11    138        0.1      1.008
   139         HC      9    LEU   HD12    139        0.1      1.008
   140         HC      9    LEU   HD13    140        0.1      1.008
   141         CT      9    LEU    CD2    141    -0.4121      12.01
   142         HC      9    LEU   HD21    142        0.1      1.008
   143         HC      9    LEU   HD22    143        0.1      1.008
   144         HC      9    LEU   HD23    144        0.1      1.008
   145          C      9    LEU      C    145     0.5973      12.01
   146          O      9    LEU      O    146    -0.5679         16   ; qtot 1
; residue  10 ARG rtp ARG  q +1.0
   147          N     10    ARG      N    147    -0.3479      14.01
   148          H     10    ARG      H    148     0.2747      1.008
   149         CT     10    ARG     CA    149    -0.2637      12.01
   150         H1     10    ARG     HA    150      0.156      1.008
   151         CT     10    ARG     CB    151    -0.0007      12.01
   152         HC     10    ARG    HB1    152     0.0327      1.008
   153         HC     10    ARG    HB2    153     0.0327      1.008
   154         CT     10    ARG     CG    154      0.039      12.01
   155         HC     10    ARG    HG1    155     0.0285      1.008
   156         HC     10    ARG    HG2    156     0.0285      1.008
   157         CT     10    ARG     CD    157     0.0486      12.01
   158         H1     10    ARG    HD1    158     0.0687      1.008
   159         H1     10    ARG    HD2    159     0.0687      1.008
   160         N2     10    ARG     NE    160    -0.5295      14.01
   161          H     10    ARG     HE    161     0.3456      1.008
   162         CA     10    ARG     CZ    162     0.8076      12.01
   163         N2     10    ARG    NH1    163    -0.8627      14.01
   164          H     10    ARG   HH11    164     0.4478      1.008
   165          H     10    ARG   HH12    165     0.4478      1.008
   166         N2     10    ARG    NH2    166    -0.8627      14.01
   167          H     10    ARG   HH21    167     0.4478      1.008
   168          H     10    ARG   HH22    168     0.4478      1.008
   169          C     10    ARG      C    169     0.7341      12.01
   170          O     10    ARG      O    170    -0.5894         16   ; qtot 2
; residue  11 THR rtp THR  q  0.0
   171          N     11    THR      N    171    -0.4157      14.01
   172          H     11    THR      H    172     0.2719      1.008
   173         CT     11    THR     CA    173    -0.0389      12.01
   174         H1     11    THR     HA    174     0.1007      1.008
   175         CT     11    THR     CB    175     0.3654      12.01
   176         H1     11    THR     HB    176     0.0043      1.008
   177         CT     11    THR    CG2    177    -0.2438      12.01
   178         HC     11    THR   HG21    178     0.0642      1.008
   179         HC     11    THR   HG22    179     0.0642      1.008
   180         HC     11    THR   HG23    180     0.0642      1.008
   181         OH     11    THR    OG1    181    -0.6761         16
   182         HO     11    THR    HG1    182     0.4102      1.008
   183          C     11    THR      C    183     0.5973      12.01
   184          O     11    THR      O    184    -0.5679         16   ; qtot 2
; residue  12 PHE rtp PHE  q  0.0
   185          N     12    PHE      N    185    -0.4157      14.01
   186          H     12    PHE      H    186     0.2719      1.008
   187         CT     12    PHE     CA    187    -0.0024      12.01
   188         H1     12    PHE     HA    188     0.0978      1.008
   189         CT     12    PHE     CB    189    -0.0343      12.01
   190         HC     12    PHE    HB1    190     0.0295      1.008
   191         HC     12    PHE    HB2    191     0.0295      1.008
   192         CA     12    PHE     CG    192     0.0118      12.01
   193         CA     12    PHE    CD1    193    -0.1256      12.01
   194         HA     12    PHE    HD1    194      0.133      1.008
   195         CA     12    PHE    CE1    195    -0.1704      12.01
   196         HA     12    PHE    HE1    196      0.143      1.008
   197         CA     12    PHE     CZ    197    -0.1072      12.01
   198         HA     12    PHE     HZ    198     0.1297      1.008
   199         CA     12    PHE    CE2    199    -0.1704      12.01
   200         HA     12    PHE    HE2    200      0.143      1.008
   201         CA     12    PHE    CD2    201    -0.1256      12.01
   202         HA     12    PHE    HD2    202      0.133      1.008
   203          C     12    PHE      C    203     0.5973      12.01
   204          O     12    PHE      O    204    -0.5679         16   ; qtot 2
; residue  13 ALA rtp ALA  q  0.0
   205          N     13    ALA      N    205    -0.4157      14.01
   206          H     13    ALA      H    206     0.2719      1.008
   207         CT     13    ALA     CA    207     0.0337      12.01
   208         H1     13    ALA     HA    208     0.0823      1.008
   209         CT     13    ALA     CB    209    -0.1825      12.01
   210         HC     13    ALA    HB1    210     0.0603      1.008
   211         HC     13    ALA    HB2    211     0.0603      1.008
   212         HC     13    ALA    HB3    212     0.0603      1.008
   213          C     13    ALA      C    213     0.5973      12.01
   214          O     13    ALA      O    214    -0.5679         16   ; qtot 2
; residue  14 GLU rtp GLU  q -1.0
   215          N     14    GLU      N    215    -0.5163      14.01
   216          H     14    GLU      H    216     0.2936      1.008
   217         CT     14    GLU     CA    217     0.0397      12.01
   218         H1     14    GLU     HA    218     0.1105      1.008
   219         CT     14    GLU     CB    219      0.056      12.01
   220         HC     14    GLU    HB1    220    -0.0173      1.008
   221         HC     14    GLU    HB2    221    -0.0173      1.008
   222         CT     14    GLU     CG    222     0.0136      12.01
   223         HC     14    GLU    HG1    223    -0.0425      1.008
   224         HC     14    GLU    HG2    224    -0.0425      1.008
   225          C     14    GLU     CD    225     0.8054      12.01
   226         O2     14    GLU    OE1    226    -0.8188         16
   227         O2     14    GLU    OE2    227    -0.8188         16
   228          C     14    GLU      C    228     0.5366      12.01
   229          O     14    GLU      O    229    -0.5819         16   ; qtot 1
; residue  15 SER rtp SER  q  0.0
   230          N     15    SER      N    230    -0.4157      14.01
   231          H     15    SER      H    231     0.2719      1.008
   232         CT     15    SER     CA    232    -0.0249      12.01
   233         H1     15    SER     HA    233     0.0843      1.008
   234         CT     15    SER     CB    234     0.2117      12.01
   235         H1     15    SER    HB1    235     0.0352      1.008
   236         H1     15    SER    HB2    236     0.0352      1.008
   237         OH     15    SER     OG    237    -0.6546         16
   238         HO     15    SER     HG    238     0.4275      1.008
   239          C     15    SER      C    239     0.5973      12.01
   240          O     15    SER      O    240    -0.5679         16   ; qtot 1
; residue  16 SER rtp SER  q  0.0
   241          N     16    SER      N    241    -0.4157      14.01
   242          H     16    SER      H    242     0.2719      1.008
   243         CT     16    SER     CA    243    -0.0249      12.01
   244         H1     16    SER     HA    244     0.0843      1.008
   245         CT     16    SER     CB    245     0.2117      12.01
   246         H1     16    SER    HB1    246     0.0352      1.008
   247         H1     16    SER    HB2    247     0.0352      1.008
   248         OH     16    SER     OG    248    -0.6546         16
   249         HO     16    SER     HG    249     0.4275      1.008
   250          C     16    SER      C    250     0.5973      12.01
   251          O     16    SER      O    251    -0.5679         16   ; qtot 1
; residue  17 ASP rtp ASP  q -1.0
   252          N     17    ASP      N    252    -0.5163      14.01
   253          H     17    ASP      H    253     0.2936      1.008
   254         CT     17    ASP     CA    254     0.0381      12.01
   255         H1     17    ASP     HA    255      0.088      1.008
   256         CT     17    ASP     CB    256    -0.0303      12.01
   257         HC     17    ASP    HB1    257    -0.0122      1.008
   258         HC     17    ASP    HB2    258    -0.0122      1.008
   259          C     17    ASP     CG    259     0.7994      12.01
   260         O2     17    ASP    OD1    260    -0.8014         16
   261         O2     17    ASP    OD2    261    -0.8014         16
   262          C     17    ASP      C    262     0.5366      12.01
   263          O     17    ASP      O    263    -0.5819         16   ; qtot 0
; residue  18 LYS rtp LYS  q +1.0
   264          N     18    LYS      N    264    -0.3479      14.01
   265          H     18    LYS      H    265     0.2747      1.008
   266         CT     18    LYS     CA    266      -0.24      12.01
   267         H1     18    LYS     HA    267     0.1426      1.008
   268         CT     18    LYS     CB    268    -0.0094      12.01
   269         HC     18    LYS    HB1    269     0.0362      1.008
   270         HC     18    LYS    HB2    270     0.0362      1.008
   271         CT     18    LYS     CG    271     0.0187      12.01
   272         HC     18    LYS    HG1    272     0.0103      1.008
   273         HC     18    LYS    HG2    273     0.0103      1.008
   274         CT     18    LYS     CD    274    -0.0479      12.01
   275         HC     18    LYS    HD1    275     0.0621      1.008
   276         HC     18    LYS    HD2    276     0.0621      1.008
   277         CT     18    LYS     CE    277    -0.0143      12.01
   278         HP     18    LYS    HE1    278     0.1135      1.008
   279         HP     18    LYS    HE2    279     0.1135      1.008
   280         N3     18    LYS     NZ    280    -0.3854      14.01
   281          H     18    LYS    HZ1    281       0.34      1.008
   282          H     18    LYS    HZ2    282       0.34      1.008
   283          H     18    LYS    HZ3    283       0.34      1.008
   284          C     18    LYS      C    284     0.7341      12.01
   285          O     18    LYS      O    285    -0.5894         16   ; qtot 1
; residue  19 LEU rtp LEU  q  0.0
   286          N     19    LEU      N    286    -0.4157      14.01
   287          H     19    LEU      H    287     0.2719      1.008
   288         CT     19    LEU     CA    288    -0.0518      12.01
   289         H1     19    LEU     HA    289     0.0922      1.008
   290         CT     19    LEU     CB    290    -0.1102      12.01
   291         HC     19    LEU    HB1    291     0.0457      1.008
   292         HC     19    LEU    HB2    292     0.0457      1.008
   293         CT     19    LEU     CG    293     0.3531      12.01
   294         HC     19    LEU     HG    294    -0.0361      1.008
   295         CT     19    LEU    CD1    295    -0.4121      12.01
   296         HC     19    LEU   HD11    296        0.1      1.008
   297         HC     19    LEU   HD12    297        0.1      1.008
   298         HC     19    LEU   HD13    298        0.1      1.008
   299         CT     19    LEU    CD2    299    -0.4121      12.01
   300         HC     19    LEU   HD21    300        0.1      1.008
   301         HC     19    LEU   HD22    301        0.1      1.008
   302         HC     19    LEU   HD23    302        0.1      1.008
   303          C     19    LEU      C    303     0.5973      12.01
   304          O     19    LEU      O    304    -0.5679         16   ; qtot 1
; residue  20 ARG rtp ARG  q +1.0
   305          N     20    ARG      N    305    -0.3479      14.01
   306          H     20    ARG      H    306     0.2747      1.008
   307         CT     20    ARG     CA    307    -0.2637      12.01
   308         H1     20    ARG     HA    308      0.156      1.008
   309         CT     20    ARG     CB    309    -0.0007      12.01
   310         HC     20    ARG    HB1    310     0.0327      1.008
   311         HC     20    ARG    HB2    311     0.0327      1.008
   312         CT     20    ARG     CG    312      0.039      12.01
   313         HC     20    ARG    HG1    313     0.0285      1.008
   314         HC     20    ARG    HG2    314     0.0285      1.008
   315         CT     20    ARG     CD    315     0.0486      12.01
   316         H1     20    ARG    HD1    316     0.0687      1.008
   317         H1     20    ARG    HD2    317     0.0687      1.008
   318         N2     20    ARG     NE    318    -0.5295      14.01
   319          H     20    ARG     HE    319     0.3456      1.008
   320         CA     20    ARG     CZ    320     0.8076      12.01
   321         N2     20    ARG    NH1    321    -0.8627      14.01
   322          H     20    ARG   HH11    322     0.4478      1.008
   323          H     20    ARG   HH12    323     0.4478      1.008
   324         N2     20    ARG    NH2    324    -0.8627      14.01
   325          H     20    ARG   HH21    325     0.4478      1.008
   326          H     20    ARG   HH22    326     0.4478      1.008
   327          C     20    ARG      C    327     0.7341      12.01
   328          O     20    ARG      O    328    -0.5894         16   ; qtot 2
; residue  21 ARG rtp CARG q  0.0
   329          N     21    ARG      N    329    -0.3481      14.01
   330          H     21    ARG      H    330     0.2764      1.008
   331         CT     21    ARG     CA    331    -0.3068      12.01
   332         H1     21    ARG     HA    332     0.1447      1.008
   333         CT     21    ARG     CB    333    -0.0374      12.01
   334         HC     21    ARG    HB1    334     0.0371      1.008
   335         HC     21    ARG    HB2    335     0.0371      1.008
   336         CT     21    ARG     CG    336     0.0744      12.01
   337         HC     21    ARG    HG1    337     0.0185      1.008
   338         HC     21    ARG    HG2    338     0.0185      1.008
   339         CT     21    ARG     CD    339     0.1114      12.01
   340         H1     21    ARG    HD1    340     0.0468      1.008
   341         H1     21    ARG    HD2    341     0.0468      1.008
   342         N2     21    ARG     NE    342    -0.5564      14.01
   343          H     21    ARG     HE    343     0.3479      1.008
   344         CA     21    ARG     CZ    344     0.8368      12.01
   345         N2     21    ARG    NH1    345    -0.8737      14.01
   346          H     21    ARG   HH11    346     0.4493      1.008
   347          H     21    ARG   HH12    347     0.4493      1.008
   348         N2     21    ARG    NH2    348    -0.8737      14.01
   349          H     21    ARG   HH21    349     0.4493      1.008
   350          H     21    ARG   HH22    350     0.4493      1.008
   351          C     21    ARG      C    351     0.8557      12.01
   352         O2     21    ARG    OC1    352    -0.8266         16
   353         O2     21    ARG    OC2    353    -0.8266         16   ; qtot 2

[ bonds ]
;  ai    aj funct            c0            c1            c2            c3
    1     2     1 
    1     3     1 
    1     4     1 
    1     5     1 
    5     6     1 
    5     7     1 
    5    18     1 
    7     8     1 
    7     9     1 
    7    10     1 
   10    11     1 
   10    12     1 
   10    13     1 
   13    14     1 
   14    15     1 
   14    16     1 
   14    17     1 
   18    19     1 
   18    20     1 
   20    21     1 
   20    22     1 
   22    23     1 
   22    24     1 
   22    40     1 
   24    25     1 
   24    26     1 
   24    27     1 
   27    28     1 
   27    29     1 
   27    30     1 
   30    31     1 
   30    32     1 
   30    33     1 
   33    34     1 
   33    35     1 
   33    36     1 
   36    37     1 
   36    38     1 
   36    39     1 
   40    41     1 
   40    42     1 
   42    43     1 
   42    44     1 
   44    45     1 
   44    46     1 
   44    59     1 
   46    47     1 
   46    48     1 
   46    49     1 
   49    50     1 
   49    51     1 
   49    55     1 
   51    52     1 
   51    53     1 
   51    54     1 
   55    56     1 
   55    57     1 
   55    58     1 
   59    60     1 
   59    61     1 
   61    62     1 
   61    63     1 
   63    64     1 
   63    65     1 
   63    69     1 
   65    66     1 
   65    67     1 
   65    68     1 
   69    70     1 
   69    71     1 
   71    72     1 
   71    73     1 
   73    74     1 
   73    75     1 
   73    85     1 
   75    76     1 
   75    77     1 
   75    81     1 
   77    78     1 
   77    79     1 
   77    80     1 
   81    82     1 
   81    83     1 
   81    84     1 
   85    86     1 
   85    87     1 
   87    88     1 
   87    89     1 
   89    90     1 
   89    91     1 
   89    97     1 
   91    92     1 
   91    93     1 
   91    94     1 
   94    95     1 
   94    96     1 
   97    98     1 
   97    99     1 
   99   100     1 
   99   101     1 
  101   102     1 
  101   103     1 
  101   107     1 
  103   104     1 
  103   105     1 
  103   106     1 
  107   108     1 
  107   109     1 
  109   110     1 
  109   111     1 
  111   112     1 
  111   113     1 
  111   126     1 
  113   114     1 
  113   115     1 
  113   116     1 
  116   117     1 
  116   118     1 
  116   122     1 
  118   119     1 
  118   120     1 
  118   121     1 
  122   123     1 
  122   124     1 
  122   125     1 
  126   127     1 
  126   128     1 
  128   129     1 
  128   130     1 
  130   131     1 
  130   132     1 
  130   145     1 
  132   133     1 
  132   134     1 
  132   135     1 
  135   136     1 
  135   137     1 
  135   141     1 
  137   138     1 
  137   139     1 
  137   140     1 
  141   142     1 
  141   143     1 
  141   144     1 
  145   146     1 
  145   147     1 
  147   148     1 
  147   149     1 
  149   150     1 
  149   151     1 
  149   169     1 
  151   152     1 
  151   153     1 
  151   154     1 
  154   155     1 
  154   156     1 
  154   157     1 
  157   158     1 
  157   159     1 
  157   160     1 
  160   161     1 
  160   162     1 
  162   163     1 
  162   166     1 
  163   164     1 
  163   165     1 
  166   167     1 
  166   168     1 
  169   170     1 
  169   171     1 
  171   172     1 
  171   173     1 
  173   174     1 
  173   175     1 
  173   183     1 
  175   176     1 
  175   177     1 
  175   181     1 
  177   178     1 
  177   179     1 
  177   180     1 
  181   182     1 
  183   184     1 
  183   185     1 
  185   186     1 
  185   187     1 
  187   188     1 
  187   189     1 
  187   203     1 
  189   190     1 
  189   191     1 
  189   192     1 
  192   193     1 
  192   201     1 
  193   194     1 
  193   195     1 
  195   196     1 
  195   197     1 
  197   198     1 
  197   199     1 
  199   200     1 
  199   201     1 
  201   202     1 
  203   204     1 
  203   205     1 
  205   206     1 
  205   207     1 
  207   208     1 
  207   209     1 
  207   213     1 
  209   210     1 
  209   211     1 
  209   212     1 
  213   214     1 
  213   215     1 
  215   216     1 
  215   217     1 
  217   218     1 
  217   219     1 
  217   228     1 
  219   220     1 
  219   221     1 
  219   222     1 
  222   223     1 
  222   224     1 
  222   225     1 
  225   226     1 
  225   227     1 
  228   229     1 
  228   230     1 
  230   231     1 
  230   232     1 
  232   233     1 
  232   234     1 
  232   239     1 
  234   235     1 
  234   236     1 
  234   237     1 
  237   238     1 
  239   240     1 
  239   241     1 
  241   242     1 
  241   243     1 
  243   244     1 
  243   245     1 
  243   250     1 
  245   246     1 
  245   247     1 
  245   248     1 
  248   249     1 
  250   251     1 
  250   252     1 
  252   253     1 
  252   254     1 
  254   255     1 
  254   256     1 
  254   262     1 
  256   257     1 
  256   258     1 
  256   259     1 
  259   260     1 
  259   261     1 
  262   263     1 
  262   264     1 
  264   265     1 
  264   266     1 
  266   267     1 
  266   268     1 
  266   284     1 
  268   269     1 
  268   270     1 
  268   271     1 
  271   272     1 
  271   273     1 
  271   274     1 
  274   275     1 
  274   276     1 
  274   277     1 
  277   278     1 
  277   279     1 
  277   280     1 
  280   281     1 
  280   282     1 
  280   283     1 
  284   285     1 
  284   286     1 
  286   287     1 
  286   288     1 
  288   289     1 
  288   290     1 
  288   303     1 
  290   291     1 
  290   292     1 
  290   293     1 
  293   294     1 
  293   295     1 
  293   299     1 
  295   296     1 
  295   297     1 
  295   298     1 
  299   300     1 
  299   301     1 
  299   302     1 
  303   304     1 
  303   305     1 
  305   306     1 
  305   307     1 
  307   308     1 
  307   309     1 
  307   327     1 
  309   310     1 
  309   311     1 
  309   312     1 
  312   313     1 
  312   314     1 
  312   315     1 
  315   316     1 
  315   317     1 
  315   318     1 
  318   319     1 
  318   320     1 
  320   321     1 
  320   324     1 
  321   322     1 
  321   323     1 
  324   325     1 
  324   326     1 
  327   328     1 
  327   329     1 
  329   330     1 
  329   331     1 
  331   332     1 
  331   333     1 
  331   351     1 
  333   334     1 
  333   335     1 
  333   336     1 
  336   337     1 
  336   338     1 
  336   339     1 
  339   340     1 
  339   341     1 
  339   342     1 
  342   343     1 
  342   344     1 
  344   345     1 
  344   348     1 
  345   346     1 
  345   347     1 
  348   349     1 
  348   350     1 
  351   352     1 
  351   353     1 

[ pairs ]
;  ai    aj funct            c0            c1            c2            c3
    1     8     1 
    1     9     1 
    1    10     1 
    1    19     1 
    1    20     1 
    2     6     1 
    2     7     1 
    2    18     1 
    3     6     1 
    3     7     1 
    3    18     1 
    4     6     1 
    4     7     1 
    4    18     1 
    5    11     1 
    5    12     1 
    5    13     1 
    5    21     1 
    5    22     1 
    6     8     1 
    6     9     1 
    6    10     1 
    6    19     1 
    6    20     1 
    7    14     1 
    7    19     1 
    7    20     1 
    8    11     1 
    8    12     1 
    8    13     1 
    8    18     1 
    9    11     1 
    9    12     1 
    9    13     1 
    9    18     1 
   10    15     1 
   10    16     1 
   10    17     1 
   10    18     1 
   11    14     1 
   12    14     1 
   18    23     1 
   18    24     1 
   18    40     1 
   19    21     1 
   19    22     1 
   20    25     1 
   20    26     1 
   20    27     1 
   20    41     1 
   20    42     1 
   21    23     1 
   21    24     1 
   21    40     1 
   22    28     1 
   22    29     1 
   22    30     1 
   22    43     1 
   22    44     1 
   23    25     1 
   23    26     1 
   23    27     1 
   23    41     1 
   23    42     1 
   24    31     1 
   24    32     1 
   24    33     1 
   24    41     1 
   24    42     1 
   25    28     1 
   25    29     1 
   25    30     1 
   25    40     1 
   26    28     1 
   26    29     1 
   26    30     1 
   26    40     1 
   27    34     1 
   27    35     1 
   27    36     1 
   27    40     1 
   28    31     1 
   28    32     1 
   28    33     1 
   29    31     1 
   29    32     1 
   29    33     1 
   30    37     1 
   30    38     1 
   30    39     1 
   31    34     1 
   31    35     1 
   31    36     1 
   32    34     1 
   32    35     1 
   32    36     1 
   34    37     1 
   34    38     1 
   34    39     1 
   35    37     1 
   35    38     1 
   35    39     1 
   40    45     1 
   40    46     1 
   40    59     1 
   41    43     1 
   41    44     1 
   42    47     1 
   42    48     1 
   42    49     1 
   42    60     1 
   42    61     1 
   43    45     1 
   43    46     1 
   43    59     1 
   44    50     1 
   44    51     1 
   44    55     1 
   44    62     1 
   44    63     1 
   45    47     1 
   45    48     1 
   45    49     1 
   45    60     1 
   45    61     1 
   46    52     1 
   46    53     1 
   46    54     1 
   46    56     1 
   46    57     1 
   46    58     1 
   46    60     1 
   46    61     1 
   47    50     1 
   47    51     1 
   47    55     1 
   47    59     1 
   48    50     1 
   48    51     1 
   48    55     1 
   48    59     1 
   49    59     1 
   50    52     1 
   50    53     1 
   50    54     1 
   50    56     1 
   50    57     1 
   50    58     1 
   51    56     1 
   51    57     1 
   51    58     1 
   52    55     1 
   53    55     1 
   54    55     1 
   59    64     1 
   59    65     1 
   59    69     1 
   60    62     1 
   60    63     1 
   61    66     1 
   61    67     1 
   61    68     1 
   61    70     1 
   61    71     1 
   62    64     1 
   62    65     1 
   62    69     1 
   63    72     1 
   63    73     1 
   64    66     1 
   64    67     1 
   64    68     1 
   64    70     1 
   64    71     1 
   65    70     1 
   65    71     1 
   66    69     1 
   67    69     1 
   68    69     1 
   69    74     1 
   69    75     1 
   69    85     1 
   70    72     1 
   70    73     1 
   71    76     1 
   71    77     1 
   71    81     1 
   71    86     1 
   71    87     1 
   72    74     1 
   72    75     1 
   72    85     1 
   73    78     1 
   73    79     1 
   73    80     1 
   73    82     1 
   73    83     1 
   73    84     1 
   73    88     1 
   73    89     1 
   74    76     1 
   74    77     1 
   74    81     1 
   74    86     1 
   74    87     1 
   75    86     1 
   75    87     1 
   76    78     1 
   76    79     1 
   76    80     1 
   76    82     1 
   76    83     1 
   76    84     1 
   76    85     1 
   77    82     1 
   77    83     1 
   77    84     1 
   77    85     1 
   78    81     1 
   79    81     1 
   80    81     1 
   81    85     1 
   85    90     1 
   85    91     1 
   85    97     1 
   86    88     1 
   86    89     1 
   87    92     1 
   87    93     1 
   87    94     1 
   87    98     1 
   87    99     1 
   88    90     1 
   88    91     1 
   88    97     1 
   89    95     1 
   89    96     1 
   89   100     1 
   89   101     1 
   90    92     1 
   90    93     1 
   90    94     1 
   90    98     1 
   90    99     1 
   91    98     1 
   91    99     1 
   92    95     1 
   92    96     1 
   92    97     1 
   93    95     1 
   93    96     1 
   93    97     1 
   94    97     1 
   97   102     1 
   97   103     1 
   97   107     1 
   98   100     1 
   98   101     1 
   99   104     1 
   99   105     1 
   99   106     1 
   99   108     1 
   99   109     1 
  100   102     1 
  100   103     1 
  100   107     1 
  101   110     1 
  101   111     1 
  102   104     1 
  102   105     1 
  102   106     1 
  102   108     1 
  102   109     1 
  103   108     1 
  103   109     1 
  104   107     1 
  105   107     1 
  106   107     1 
  107   112     1 
  107   113     1 
  107   126     1 
  108   110     1 
  108   111     1 
  109   114     1 
  109   115     1 
  109   116     1 
  109   127     1 
  109   128     1 
  110   112     1 
  110   113     1 
  110   126     1 
  111   117     1 
  111   118     1 
  111   122     1 
  111   129     1 
  111   130     1 
  112   114     1 
  112   115     1 
  112   116     1 
  112   127     1 
  112   128     1 
  113   119     1 
  113   120     1 
  113   121     1 
  113   123     1 
  113   124     1 
  113   125     1 
  113   127     1 
  113   128     1 
  114   117     1 
  114   118     1 
  114   122     1 
  114   126     1 
  115   117     1 
  115   118     1 
  115   122     1 
  115   126     1 
  116   126     1 
  117   119     1 
  117   120     1 
  117   121     1 
  117   123     1 
  117   124     1 
  117   125     1 
  118   123     1 
  118   124     1 
  118   125     1 
  119   122     1 
  120   122     1 
  121   122     1 
  126   131     1 
  126   132     1 
  126   145     1 
  127   129     1 
  127   130     1 
  128   133     1 
  128   134     1 
  128   135     1 
  128   146     1 
  128   147     1 
  129   131     1 
  129   132     1 
  129   145     1 
  130   136     1 
  130   137     1 
  130   141     1 
  130   148     1 
  130   149     1 
  131   133     1 
  131   134     1 
  131   135     1 
  131   146     1 
  131   147     1 
  132   138     1 
  132   139     1 
  132   140     1 
  132   142     1 
  132   143     1 
  132   144     1 
  132   146     1 
  132   147     1 
  133   136     1 
  133   137     1 
  133   141     1 
  133   145     1 
  134   136     1 
  134   137     1 
  134   141     1 
  134   145     1 
  135   145     1 
  136   138     1 
  136   139     1 
  136   140     1 
  136   142     1 
  136   143     1 
  136   144     1 
  137   142     1 
  137   143     1 
  137   144     1 
  138   141     1 
  139   141     1 
  140   141     1 
  145   150     1 
  145   151     1 
  145   169     1 
  146   148     1 
  146   149     1 
  147   152     1 
  147   153     1 
  147   154     1 
  147   170     1 
  147   171     1 
  148   150     1 
  148   151     1 
  148   169     1 
  149   155     1 
  149   156     1 
  149   157     1 
  149   172     1 
  149   173     1 
  150   152     1 
  150   153     1 
  150   154     1 
  150   170     1 
  150   171     1 
  151   158     1 
  151   159     1 
  151   160     1 
  151   170     1 
  151   171     1 
  152   155     1 
  152   156     1 
  152   157     1 
  152   169     1 
  153   155     1 
  153   156     1 
  153   157     1 
  153   169     1 
  154   161     1 
  154   162     1 
  154   169     1 
  155   158     1 
  155   159     1 
  155   160     1 
  156   158     1 
  156   159     1 
  156   160     1 
  157   163     1 
  157   166     1 
  158   161     1 
  158   162     1 
  159   161     1 
  159   162     1 
  160   164     1 
  160   165     1 
  160   167     1 
  160   168     1 
  161   163     1 
  161   166     1 
  163   167     1 
  163   168     1 
  164   166     1 
  165   166     1 
  169   174     1 
  169   175     1 
  169   183     1 
  170   172     1 
  170   173     1 
  171   176     1 
  171   177     1 
  171   181     1 
  171   184     1 
  171   185     1 
  172   174     1 
  172   175     1 
  172   183     1 
  173   178     1 
  173   179     1 
  173   180     1 
  173   182     1 
  173   186     1 
  173   187     1 
  174   176     1 
  174   177     1 
  174   181     1 
  174   184     1 
  174   185     1 
  175   184     1 
  175   185     1 
  176   178     1 
  176   179     1 
  176   180     1 
  176   182     1 
  176   183     1 
  177   182     1 
  177   183     1 
  178   181     1 
  179   181     1 
  180   181     1 
  181   183     1 
  183   188     1 
  183   189     1 
  183   203     1 
  184   186     1 
  184   187     1 
  185   190     1 
  185   191     1 
  185   192     1 
  185   204     1 
  185   205     1 
  186   188     1 
  186   189     1 
  186   203     1 
  187   193     1 
  187   201     1 
  187   206     1 
  187   207     1 
  188   190     1 
  188   191     1 
  188   192     1 
  188   204     1 
  188   205     1 
  189   194     1 
  189   195     1 
  189   199     1 
  189   202     1 
  189   204     1 
  189   205     1 
  190   193     1 
  190   201     1 
  190   203     1 
  191   193     1 
  191   201     1 
  191   203     1 
  192   196     1 
  192   197     1 
  192   200     1 
  192   203     1 
  193   198     1 
  193   199     1 
  193   202     1 
  194   196     1 
  194   197     1 
  194   201     1 
  195   200     1 
  195   201     1 
  196   198     1 
  196   199     1 
  197   202     1 
  198   200     1 
  198   201     1 
  200   202     1 
  203   208     1 
  203   209     1 
  203   213     1 
  204   206     1 
  204   207     1 
  205   210     1 
  205   211     1 
  205   212     1 
  205   214     1 
  205   215     1 
  206   208     1 
  206   209     1 
  206   213     1 
  207   216     1 
  207   217     1 
  208   210     1 
  208   211     1 
  208   212     1 
  208   214     1 
  208   215     1 
  209   214     1 
  209   215     1 
  210   213     1 
  211   213     1 
  212   213     1 
  213   218     1 
  213   219     1 
  213   228     1 
  214   216     1 
  214   217     1 
  215   220     1 
  215   221     1 
  215   222     1 
  215   229     1 
  215   230     1 
  216   218     1 
  216   219     1 
  216   228     1 
  217   223     1 
  217   224     1 
  217   225     1 
  217   231     1 
  217   232     1 
  218   220     1 
  218   221     1 
  218   222     1 
  218   229     1 
  218   230     1 
  219   226     1 
  219   227     1 
  219   229     1 
  219   230     1 
  220   223     1 
  220   224     1 
  220   225     1 
  220   228     1 
  221   223     1 
  221   224     1 
  221   225     1 
  221   228     1 
  222   228     1 
  223   226     1 
  223   227     1 
  224   226     1 
  224   227     1 
  228   233     1 
  228   234     1 
  228   239     1 
  229   231     1 
  229   232     1 
  230   235     1 
  230   236     1 
  230   237     1 
  230   240     1 
  230   241     1 
  231   233     1 
  231   234     1 
  231   239     1 
  232   238     1 
  232   242     1 
  232   243     1 
  233   235     1 
  233   236     1 
  233   237     1 
  233   240     1 
  233   241     1 
  234   240     1 
  234   241     1 
  235   238     1 
  235   239     1 
  236   238     1 
  236   239     1 
  237   239     1 
  239   244     1 
  239   245     1 
  239   250     1 
  240   242     1 
  240   243     1 
  241   246     1 
  241   247     1 
  241   248     1 
  241   251     1 
  241   252     1 
  242   244     1 
  242   245     1 
  242   250     1 
  243   249     1 
  243   253     1 
  243   254     1 
  244   246     1 
  244   247     1 
  244   248     1 
  244   251     1 
  244   252     1 
  245   251     1 
  245   252     1 
  246   249     1 
  246   250     1 
  247   249     1 
  247   250     1 
  248   250     1 
  250   255     1 
  250   256     1 
  250   262     1 
  251   253     1 
  251   254     1 
  252   257     1 
  252   258     1 
  252   259     1 
  252   263     1 
  252   264     1 
  253   255     1 
  253   256     1 
  253   262     1 
  254   260     1 
  254   261     1 
  254   265     1 
  254   266     1 
  255   257     1 
  255   258     1 
  255   259     1 
  255   263     1 
  255   264     1 
  256   263     1 
  256   264     1 
  257   260     1 
  257   261     1 
  257   262     1 
  258   260     1 
  258   261     1 
  258   262     1 
  259   262     1 
  262   267     1 
  262   268     1 
  262   284     1 
  263   265     1 
  263   266     1 
  264   269     1 
  264   270     1 
  264   271     1 
  264   285     1 
  264   286     1 
  265   267     1 
  265   268     1 
  265   284     1 
  266   272     1 
  266   273     1 
  266   274     1 
  266   287     1 
  266   288     1 
  267   269     1 
  267   270     1 
  267   271     1 
  267   285     1 
  267   286     1 
  268   275     1 
  268   276     1 
  268   277     1 
  268   285     1 
  268   286     1 
  269   272     1 
  269   273     1 
  269   274     1 
  269   284     1 
  270   272     1 
  270   273     1 
  270   274     1 
  270   284     1 
  271   278     1 
  271   279     1 
  271   280     1 
  271   284     1 
  272   275     1 
  272   276     1 
  272   277     1 
  273   275     1 
  273   276     1 
  273   277     1 
  274   281     1 
  274   282     1 
  274   283     1 
  275   278     1 
  275   279     1 
  275   280     1 
  276   278     1 
  276   279     1 
  276   280     1 
  278   281     1 
  278   282     1 
  278   283     1 
  279   281     1 
  279   282     1 
  279   283     1 
  284   289     1 
  284   290     1 
  284   303     1 
  285   287     1 
  285   288     1 
  286   291     1 
  286   292     1 
  286   293     1 
  286   304     1 
  286   305     1 
  287   289     1 
  287   290     1 
  287   303     1 
  288   294     1 
  288   295     1 
  288   299     1 
  288   306     1 
  288   307     1 
  289   291     1 
  289   292     1 
  289   293     1 
  289   304     1 
  289   305     1 
  290   296     1 
  290   297     1 
  290   298     1 
  290   300     1 
  290   301     1 
  290   302     1 
  290   304     1 
  290   305     1 
  291   294     1 
  291   295     1 
  291   299     1 
  291   303     1 
  292   294     1 
  292   295     1 
  292   299     1 
  292   303     1 
  293   303     1 
  294   296     1 
  294   297     1 
  294   298     1 
  294   300     1 
  294   301     1 
  294   302     1 
  295   300     1 
  295   301     1 
  295   302     1 
  296   299     1 
  297   299     1 
  298   299     1 
  303   308     1 
  303   309     1 
  303   327     1 
  304   306     1 
  304   307     1 
  305   310     1 
  305   311     1 
  305   312     1 
  305   328     1 
  305   329     1 
  306   308     1 
  306   309     1 
  306   327     1 
  307   313     1 
  307   314     1 
  307   315     1 
  307   330     1 
  307   331     1 
  308   310     1 
  308   311     1 
  308   312     1 
  308   328     1 
  308   329     1 
  309   316     1 
  309   317     1 
  309   318     1 
  309   328     1 
  309   329     1 
  310   313     1 
  310   314     1 
  310   315     1 
  310   327     1 
  311   313     1 
  311   314     1 
  311   315     1 
  311   327     1 
  312   319     1 
  312   320     1 
  312   327     1 
  313   316     1 
  313   317     1 
  313   318     1 
  314   316     1 
  314   317     1 
  314   318     1 
  315   321     1 
  315   324     1 
  316   319     1 
  316   320     1 
  317   319     1 
  317   320     1 
  318   322     1 
  318   323     1 
  318   325     1 
  318   326     1 
  319   321     1 
  319   324     1 
  321   325     1 
  321   326     1 
  322   324     1 
  323   324     1 
  327   332     1 
  327   333     1 
  327   351     1 
  328   330     1 
  328   331     1 
  329   334     1 
  329   335     1 
  329   336     1 
  329   352     1 
  329   353     1 
  330   332     1 
  330   333     1 
  330   351     1 
  331   337     1 
  331   338     1 
  331   339     1 
  332   334     1 
  332   335     1 
  332   336     1 
  332   352     1 
  332   353     1 
  333   340     1 
  333   341     1 
  333   342     1 
  333   352     1 
  333   353     1 
  334   337     1 
  334   338     1 
  334   339     1 
  334   351     1 
  335   337     1 
  335   338     1 
  335   339     1 
  335   351     1 
  336   343     1 
  336   344     1 
  336   351     1 
  337   340     1 
  337   341     1 
  337   342     1 
  338   340     1 
  338   341     1 
  338   342     1 
  339   345     1 
  339   348     1 
  340   343     1 
  340   344     1 
  341   343     1 
  341   344     1 
  342   346     1 
  342   347     1 
  342   349     1 
  342   350     1 
  343   345     1 
  343   348     1 
  345   349     1 
  345   350     1 
  346   348     1 
  347   348     1 

[ angles ]
;  ai    aj    ak funct            c0            c1            c2            c3
    2     1     3     1 
    2     1     4     1 
    2     1     5     1 
    3     1     4     1 
    3     1     5     1 
    4     1     5     1 
    1     5     6     1 
    1     5     7     1 
    1     5    18     1 
    6     5     7     1 
    6     5    18     1 
    7     5    18     1 
    5     7     8     1 
    5     7     9     1 
    5     7    10     1 
    8     7     9     1 
    8     7    10     1 
    9     7    10     1 
    7    10    11     1 
    7    10    12     1 
    7    10    13     1 
   11    10    12     1 
   11    10    13     1 
   12    10    13     1 
   10    13    14     1 
   13    14    15     1 
   13    14    16     1 
   13    14    17     1 
   15    14    16     1 
   15    14    17     1 
   16    14    17     1 
    5    18    19     1 
    5    18    20     1 
   19    18    20     1 
   18    20    21     1 
   18    20    22     1 
   21    20    22     1 
   20    22    23     1 
   20    22    24     1 
   20    22    40     1 
   23    22    24     1 
   23    22    40     1 
   24    22    40     1 
   22    24    25     1 
   22    24    26     1 
   22    24    27     1 
   25    24    26     1 
   25    24    27     1 
   26    24    27     1 
   24    27    28     1 
   24    27    29     1 
   24    27    30     1 
   28    27    29     1 
   28    27    30     1 
   29    27    30     1 
   27    30    31     1 
   27    30    32     1 
   27    30    33     1 
   31    30    32     1 
   31    30    33     1 
   32    30    33     1 
   30    33    34     1 
   30    33    35     1 
   30    33    36     1 
   34    33    35     1 
   34    33    36     1 
   35    33    36     1 
   33    36    37     1 
   33    36    38     1 
   33    36    39     1 
   37    36    38     1 
   37    36    39     1 
   38    36    39     1 
   22    40    41     1 
   22    40    42     1 
   41    40    42     1 
   40    42    43     1 
   40    42    44     1 
   43    42    44     1 
   42    44    45     1 
   42    44    46     1 
   42    44    59     1 
   45    44    46     1 
   45    44    59     1 
   46    44    59     1 
   44    46    47     1 
   44    46    48     1 
   44    46    49     1 
   47    46    48     1 
   47    46    49     1 
   48    46    49     1 
   46    49    50     1 
   46    49    51     1 
   46    49    55     1 
   50    49    51     1 
   50    49    55     1 
   51    49    55     1 
   49    51    52     1 
   49    51    53     1 
   49    51    54     1 
   52    51    53     1 
   52    51    54     1 
   53    51    54     1 
   49    55    56     1 
   49    55    57     1 
   49    55    58     1 
   56    55    57     1 
   56    55    58     1 
   57    55    58     1 
   44    59    60     1 
   44    59    61     1 
   60    59    61     1 
   59    61    62     1 
   59    61    63     1 
   62    61    63     1 
   61    63    64     1 
   61    63    65     1 
   61    63    69     1 
   64    63    65     1 
   64    63    69     1 
   65    63    69     1 
   63    65    66     1 
   63    65    67     1 
   63    65    68     1 
   66    65    67     1 
   66    65    68     1 
   67    65    68     1 
   63    69    70     1 
   63    69    71     1 
   70    69    71     1 
   69    71    72     1 
   69    71    73     1 
   72    71    73     1 
   71    73    74     1 
   71    73    75     1 
   71    73    85     1 
   74    73    75     1 
   74    73    85     1 
   75    73    85     1 
   73    75    76     1 
   73    75    77     1 
   73    75    81     1 
   76    75    77     1 
   76    75    81     1 
   77    75    81     1 
   75    77    78     1 
   75    77    79     1 
   75    77    80     1 
   78    77    79     1 
   78    77    80     1 
   79    77    80     1 
   75    81    82     1 
   75    81    83     1 
   75    81    84     1 
   82    81    83     1 
   82    81    84     1 
   83    81    84     1 
   73    85    86     1 
   73    85    87     1 
   86    85    87     1 
   85    87    88     1 
   85    87    89     1 
   88    87    89     1 
   87    89    90     1 
   87    89    91     1 
   87    89    97     1 
   90    89    91     1 
   90    89    97     1 
   91    89    97     1 
   89    91    92     1 
   89    91    93     1 
   89    91    94     1 
   92    91    93     1 
   92    91    94     1 
   93    91    94     1 
   91    94    95     1 
   91    94    96     1 
   95    94    96     1 
   89    97    98     1 
   89    97    99     1 
   98    97    99     1 
   97    99   100     1 
   97    99   101     1 
  100    99   101     1 
   99   101   102     1 
   99   101   103     1 
   99   101   107     1 
  102   101   103     1 
  102   101   107     1 
  103   101   107     1 
  101   103   104     1 
  101   103   105     1 
  101   103   106     1 
  104   103   105     1 
  104   103   106     1 
  105   103   106     1 
  101   107   108     1 
  101   107   109     1 
  108   107   109     1 
  107   109   110     1 
  107   109   111     1 
  110   109   111     1 
  109   111   112     1 
  109   111   113     1 
  109   111   126     1 
  112   111   113     1 
  112   111   126     1 
  113   111   126     1 
  111   113   114     1 
  111   113   115     1 
  111   113   116     1 
  114   113   115     1 
  114   113   116     1 
  115   113   116     1 
  113   116   117     1 
  113   116   118     1 
  113   116   122     1 
  117   116   118     1 
  117   116   122     1 
  118   116   122     1 
  116   118   119     1 
  116   118   120     1 
  116   118   121     1 
  119   118   120     1 
  119   118   121     1 
  120   118   121     1 
  116   122   123     1 
  116   122   124     1 
  116   122   125     1 
  123   122   124     1 
  123   122   125     1 
  124   122   125     1 
  111   126   127     1 
  111   126   128     1 
  127   126   128     1 
  126   128   129     1 
  126   128   130     1 
  129   128   130     1 
  128   130   131     1 
  128   130   132     1 
  128   130   145     1 
  131   130   132     1 
  131   130   145     1 
  132   130   145     1 
  130   132   133     1 
  130   132   134     1 
  130   132   135     1 
  133   132   134     1 
  133   132   135     1 
  134   132   135     1 
  132   135   136     1 
  132   135   137     1 
  132   135   141     1 
  136   135   137     1 
  136   135   141     1 
  137   135   141     1 
  135   137   138     1 
  135   137   139     1 
  135   137   140     1 
  138   137   139     1 
  138   137   140     1 
  139   137   140     1 
  135   141   142     1 
  135   141   143     1 
  135   141   144     1 
  142   141   143     1 
  142   141   144     1 
  143   141   144     1 
  130   145   146     1 
  130   145   147     1 
  146   145   147     1 
  145   147   148     1 
  145   147   149     1 
  148   147   149     1 
  147   149   150     1 
  147   149   151     1 
  147   149   169     1 
  150   149   151     1 
  150   149   169     1 
  151   149   169     1 
  149   151   152     1 
  149   151   153     1 
  149   151   154     1 
  152   151   153     1 
  152   151   154     1 
  153   151   154     1 
  151   154   155     1 
  151   154   156     1 
  151   154   157     1 
  155   154   156     1 
  155   154   157     1 
  156   154   157     1 
  154   157   158     1 
  154   157   159     1 
  154   157   160     1 
  158   157   159     1 
  158   157   160     1 
  159   157   160     1 
  157   160   161     1 
  157   160   162     1 
  161   160   162     1 
  160   162   163     1 
  160   162   166     1 
  163   162   166     1 
  162   163   164     1 
  162   163   165     1 
  164   163   165     1 
  162   166   167     1 
  162   166   168     1 
  167   166   168     1 
  149   169   170     1 
  149   169   171     1 
  170   169   171     1 
  169   171   172     1 
  169   171   173     1 
  172   171   173     1 
  171   173   174     1 
  171   173   175     1 
  171   173   183     1 
  174   173   175     1 
  174   173   183     1 
  175   173   183     1 
  173   175   176     1 
  173   175   177     1 
  173   175   181     1 
  176   175   177     1 
  176   175   181     1 
  177   175   181     1 
  175   177   178     1 
  175   177   179     1 
  175   177   180     1 
  178   177   179     1 
  178   177   180     1 
  179   177   180     1 
  175   181   182     1 
  173   183   184     1 
  173   183   185     1 
  184   183   185     1 
  183   185   186     1 
  183   185   187     1 
  186   185   187     1 
  185   187   188     1 
  185   187   189     1 
  185   187   203     1 
  188   187   189     1 
  188   187   203     1 
  189   187   203     1 
  187   189   190     1 
  187   189   191     1 
  187   189   192     1 
  190   189   191     1 
  190   189   192     1 
  191   189   192     1 
  189   192   193     1 
  189   192   201     1 
  193   192   201     1 
  192   193   194     1 
  192   193   195     1 
  194   193   195     1 
  193   195   196     1 
  193   195   197     1 
  196   195   197     1 
  195   197   198     1 
  195   197   199     1 
  198   197   199     1 
  197   199   200     1 
  197   199   201     1 
  200   199   201     1 
  192   201   199     1 
  192   201   202     1 
  199   201   202     1 
  187   203   204     1 
  187   203   205     1 
  204   203   205     1 
  203   205   206     1 
  203   205   207     1 
  206   205   207     1 
  205   207   208     1 
  205   207   209     1 
  205   207   213     1 
  208   207   209     1 
  208   207   213     1 
  209   207   213     1 
  207   209   210     1 
  207   209   211     1 
  207   209   212     1 
  210   209   211     1 
  210   209   212     1 
  211   209   212     1 
  207   213   214     1 
  207   213   215     1 
  214   213   215     1 
  213   215   216     1 
  213   215   217     1 
  216   215   217     1 
  215   217   218     1 
  215   217   219     1 
  215   217   228     1 
  218   217   219     1 
  218   217   228     1 
  219   217   228     1 
  217   219   220     1 
  217   219   221     1 
  217   219   222     1 
  220   219   221     1 
  220   219   222     1 
  221   219   222     1 
  219   222   223     1 
  219   222   224     1 
  219   222   225     1 
  223   222   224     1 
  223   222   225     1 
  224   222   225     1 
  222   225   226     1 
  222   225   227     1 
  226   225   227     1 
  217   228   229     1 
  217   228   230     1 
  229   228   230     1 
  228   230   231     1 
  228   230   232     1 
  231   230   232     1 
  230   232   233     1 
  230   232   234     1 
  230   232   239     1 
  233   232   234     1 
  233   232   239     1 
  234   232   239     1 
  232   234   235     1 
  232   234   236     1 
  232   234   237     1 
  235   234   236     1 
  235   234   237     1 
  236   234   237     1 
  234   237   238     1 
  232   239   240     1 
  232   239   241     1 
  240   239   241     1 
  239   241   242     1 
  239   241   243     1 
  242   241   243     1 
  241   243   244     1 
  241   243   245     1 
  241   243   250     1 
  244   243   245     1 
  244   243   250     1 
  245   243   250     1 
  243   245   246     1 
  243   245   247     1 
  243   245   248     1 
  246   245   247     1 
  246   245   248     1 
  247   245   248     1 
  245   248   249     1 
  243   250   251     1 
  243   250   252     1 
  251   250   252     1 
  250   252   253     1 
  250   252   254     1 
  253   252   254     1 
  252   254   255     1 
  252   254   256     1 
  252   254   262     1 
  255   254   256     1 
  255   254   262     1 
  256   254   262     1 
  254   256   257     1 
  254   256   258     1 
  254   256   259     1 
  257   256   258     1 
  257   256   259     1 
  258   256   259     1 
  256   259   260     1 
  256   259   261     1 
  260   259   261     1 
  254   262   263     1 
  254   262   264     1 
  263   262   264     1 
  262   264   265     1 
  262   264   266     1 
  265   264   266     1 
  264   266   267     1 
  264   266   268     1 
  264   266   284     1 
  267   266   268     1 
  267   266   284     1 
  268   266   284     1 
  266   268   269     1 
  266   268   270     1 
  266   268   271     1 
  269   268   270     1 
  269   268   271     1 
  270   268   271     1 
  268   271   272     1 
  268   271   273     1 
  268   271   274     1 
  272   271   273     1 
  272   271   274     1 
  273   271   274     1 
  271   274   275     1 
  271   274   276     1 
  271   274   277     1 
  275   274   276     1 
  275   274   277     1 
  276   274   277     1 
  274   277   278     1 
  274   277   279     1 
  274   277   280     1 
  278   277   279     1 
  278   277   280     1 
  279   277   280     1 
  277   280   281     1 
  277   280   282     1 
  277   280   283     1 
  281   280   282     1 
  281   280   283     1 
  282   280   283     1 
  266   284   285     1 
  266   284   286     1 
  285   284   286     1 
  284   286   287     1 
  284   286   288     1 
  287   286   288     1 
  286   288   289     1 
  286   288   290     1 
  286   288   303     1 
  289   288   290     1 
  289   288   303     1 
  290   288   303     1 
  288   290   291     1 
  288   290   292     1 
  288   290   293     1 
  291   290   292     1 
  291   290   293     1 
  292   290   293     1 
  290   293   294     1 
  290   293   295     1 
  290   293   299     1 
  294   293   295     1 
  294   293   299     1 
  295   293   299     1 
  293   295   296     1 
  293   295   297     1 
  293   295   298     1 
  296   295   297     1 
  296   295   298     1 
  297   295   298     1 
  293   299   300     1 
  293   299   301     1 
  293   299   302     1 
  300   299   301     1 
  300   299   302     1 
  301   299   302     1 
  288   303   304     1 
  288   303   305     1 
  304   303   305     1 
  303   305   306     1 
  303   305   307     1 
  306   305   307     1 
  305   307   308     1 
  305   307   309     1 
  305   307   327     1 
  308   307   309     1 
  308   307   327     1 
  309   307   327     1 
  307   309   310     1 
  307   309   311     1 
  307   309   312     1 
  310   309   311     1 
  310   309   312     1 
  311   309   312     1 
  309   312   313     1 
  309   312   314     1 
  309   312   315     1 
  313   312   314     1 
  313   312   315     1 
  314   312   315     1 
  312   315   316     1 
  312   315   317     1 
  312   315   318     1 
  316   315   317     1 
  316   315   318     1 
  317   315   318     1 
  315   318   319     1 
  315   318   320     1 
  319   318   320     1 
  318   320   321     1 
  318   320   324     1 
  321   320   324     1 
  320   321   322     1 
  320   321   323     1 
  322   321   323     1 
  320   324   325     1 
  320   324   326     1 
  325   324   326     1 
  307   327   328     1 
  307   327   329     1 
  328   327   329     1 
  327   329   330     1 
  327   329   331     1 
  330   329   331     1 
  329   331   332     1 
  329   331   333     1 
  329   331   351     1 
  332   331   333     1 
  332   331   351     1 
  333   331   351     1 
  331   333   334     1 
  331   333   335     1 
  331   333   336     1 
  334   333   335     1 
  334   333   336     1 
  335   333   336     1 
  333   336   337     1 
  333   336   338     1 
  333   336   339     1 
  337   336   338     1 
  337   336   339     1 
  338   336   339     1 
  336   339   340     1 
  336   339   341     1 
  336   339   342     1 
  340   339   341     1 
  340   339   342     1 
  341   339   342     1 
  339   342   343     1 
  339   342   344     1 
  343   342   344     1 
  342   344   345     1 
  342   344   348     1 
  345   344   348     1 
  344   345   346     1 
  344   345   347     1 
  346   345   347     1 
  344   348   349     1 
  344   348   350     1 
  349   348   350     1 
  331   351   352     1 
  331   351   353     1 
  352   351   353     1 

[ dihedrals ]
;  ai    aj    ak    al funct            c0            c1            c2            c3            c4            c5
    2     1     5     6     9 
    2     1     5     7     9 
    2     1     5    18     9 
    3     1     5     6     9 
    3     1     5     7     9 
    3     1     5    18     9 
    4     1     5     6     9 
    4     1     5     7     9 
    4     1     5    18     9 
    1     5     7     8     9 
    1     5     7     9     9 
    1     5     7    10     9 
    6     5     7     8     9 
    6     5     7     9     9 
    6     5     7    10     9 
   18     5     7     8     9 
   18     5     7     9     9 
   18     5     7    10     9 
    1     5    18    19     9 
    1     5    18    20     9 
    6     5    18    19     9 
    6     5    18    20     9 
    7     5    18    19     9 
    7     5    18    20     9 
    5     7    10    11     9 
    5     7    10    12     9 
    5     7    10    13     9 
    8     7    10    11     9 
    8     7    10    12     9 
    8     7    10    13     9 
    9     7    10    11     9 
    9     7    10    12     9 
    9     7    10    13     9 
    7    10    13    14     9 
   11    10    13    14     9 
   12    10    13    14     9 
   10    13    14    15     9 
   10    13    14    16     9 
   10    13    14    17     9 
    5    18    20    21     9 
    5    18    20    22     9 
   19    18    20    21     9 
   19    18    20    22     9 
   18    20    22    23     9 
   18    20    22    24     9 
   18    20    22    40     9 
   21    20    22    23     9 
   21    20    22    24     9 
   21    20    22    40     9 
   20    22    24    25     9 
   20    22    24    26     9 
   20    22    24    27     9 
   23    22    24    25     9 
   23    22    24    26     9 
   23    22    24    27     9 
   40    22    24    25     9 
   40    22    24    26     9 
   40    22    24    27     9 
   20    22    40    41     9 
   20    22    40    42     9 
   23    22    40    41     9 
   23    22    40    42     9 
   24    22    40    41     9 
   24    22    40    42     9 
   22    24    27    28     9 
   22    24    27    29     9 
   22    24    27    30     9 
   25    24    27    28     9 
   25    24    27    29     9 
   25    24    27    30     9 
   26    24    27    28     9 
   26    24    27    29     9 
   26    24    27    30     9 
   24    27    30    31     9 
   24    27    30    32     9 
   24    27    30    33     9 
   28    27    30    31     9 
   28    27    30    32     9 
   28    27    30    33     9 
   29    27    30    31     9 
   29    27    30    32     9 
   29    27    30    33     9 
   27    30    33    34     9 
   27    30    33    35     9 
   27    30    33    36     9 
   31    30    33    34     9 
   31    30    33    35     9 
   31    30    33    36     9 
   32    30    33    34     9 
   32    30    33    35     9 
   32    30    33    36     9 
   30    33    36    37     9 
   30    33    36    38     9 
   30    33    36    39     9 
   34    33    36    37     9 
   34    33    36    38     9 
   34    33    36    39     9 
   35    33    36    37     9 
   35    33    36    38     9 
   35    33    36    39     9 
   22    40    42    43     9 
   22    40    42    44     9 
   41    40    42    43     9 
   41    40    42    44     9 
   40    42    44    45     9 
   40    42    44    46     9 
   40    42    44    59     9 
   43    42    44    45     9 
   43    42    44    46     9 
   43    42    44    59     9 
   59    44    46    49     9    torsion_LEU_C_CA_CB_CG_mult1
   59    44    46    49     9    torsion_LEU_C_CA_CB_CG_mult2
   59    44    46    49     9    torsion_LEU_C_CA_CB_CG_mult3
   42    44    46    47     9 
   42    44    46    48     9 
   42    44    46    49     9 
   45    44    46    47     9 
   45    44    46    48     9 
   45    44    46    49     9 
   59    44    46    47     9 
   59    44    46    48     9 
   42    44    59    60     9 
   42    44    59    61     9 
   45    44    59    60     9 
   45    44    59    61     9 
   46    44    59    60     9 
   46    44    59    61     9 
   44    46    49    50     9 
   44    46    49    51     9 
   44    46    49    55     9 
   47    46    49    50     9 
   47    46    49    51     9 
   47    46    49    55     9 
   48    46    49    50     9 
   48    46    49    51     9 
   48    46    49    55     9 
   46    49    51    52     9 
   46    49    51    53     9 
   46    49    51    54     9 
   50    49    51    52     9 
   50    49    51    53     9 
   50    49    51    54     9 
   55    49    51    52     9 
   55    49    51    53     9 
   55    49    51    54     9 
   46    49    55    56     9 
   46    49    55    57     9 
   46    49    55    58     9 
   50    49    55    56     9 
   50    49    55    57     9 
   50    49    55    58     9 
   51    49    55    56     9 
   51    49    55    57     9 
   51    49    55    58     9 
   44    59    61    62     9 
   44    59    61    63     9 
   60    59    61    62     9 
   60    59    61    63     9 
   59    61    63    64     9 
   59    61    63    65     9 
   59    61    63    69     9 
   62    61    63    64     9 
   62    61    63    65     9 
   62    61    63    69     9 
   61    63    65    66     9 
   61    63    65    67     9 
   61    63    65    68     9 
   64    63    65    66     9 
   64    63    65    67     9 
   64    63    65    68     9 
   69    63    65    66     9 
   69    63    65    67     9 
   69    63    65    68     9 
   61    63    69    70     9 
   61    63    69    71     9 
   64    63    69    70     9 
   64    63    69    71     9 
   65    63    69    70     9 
   65    63    69    71     9 
   63    69    71    72     9 
   63    69    71    73     9 
   70    69    71    72     9 
   70    69    71    73     9 
   69    71    73    74     9 
   69    71    73    75     9 
   69    71    73    85     9 
   72    71    73    74     9 
   72    71    73    75     9 
   72    71    73    85     9 
   71    73    75    76     9 
   71    73    75    77     9 
   71    73    75    81     9 
   74    73    75    76     9 
   74    73    75    77     9 
   74    73    75    81     9 
   85    73    75    76     9 
   85    73    75    77     9 
   85    73    75    81     9 
   71    73    85    86     9 
   71    73    85    87     9 
   74    73    85    86     9 
   74    73    85    87     9 
   75    73    85    86     9 
   75    73    85    87     9 
   73    75    77    78     9 
   73    75    77    79     9 
   73    75    77    80     9 
   76    75    77    78     9 
   76    75    77    79     9 
   76    75    77    80     9 
   81    75    77    78     9 
   81    75    77    79     9 
   81    75    77    80     9 
   73    75    81    82     9 
   73    75    81    83     9 
   73    75    81    84     9 
   76    75    81    82     9 
   76    75    81    83     9 
   76    75    81    84     9 
   77    75    81    82     9 
   77    75    81    83     9 
   77    75    81    84     9 
   73    85    87    88     9 
   73    85    87    89     9 
   86    85    87    88     9 
   86    85    87    89     9 
   85    87    89    90     9 
   85    87    89    91     9 
   85    87    89    97     9 
   88    87    89    90     9 
   88    87    89    91     9 
   88    87    89    97     9 
   87    89    91    94     9    torsion_ASP_N_CA_CB_CG_mult1
   87    89    91    94     9    torsion_ASP_N_CA_CB_CG_mult2
   87    89    91    94     9    torsion_ASP_N_CA_CB_CG_mult3
   87    89    91    94     9    torsion_ASP_N_CA_CB_CG_mult4
   87    89    91    94     9    torsion_ASP_N_CA_CB_CG_mult5
   87    89    91    94     9    torsion_ASP_N_CA_CB_CG_mult6
   87    89    91    92     9 
   87    89    91    93     9 
   90    89    91    92     9 
   90    89    91    93     9 
   90    89    91    94     9 
   97    89    91    92     9 
   97    89    91    93     9 
   97    89    91    94     9 
   87    89    97    98     9 
   87    89    97    99     9 
   90    89    97    98     9 
   90    89    97    99     9 
   91    89    97    98     9 
   91    89    97    99     9 
   89    91    94    95     9    torsion_ASP_CA_CB_CG_OD_mult1
   89    91    94    95     9    torsion_ASP_CA_CB_CG_OD_mult2
   89    91    94    95     9    torsion_ASP_CA_CB_CG_OD_mult3
   89    91    94    95     9    torsion_ASP_CA_CB_CG_OD_mult4
   89    91    94    95     9    torsion_ASP_CA_CB_CG_OD_mult5
   89    91    94    95     9    torsion_ASP_CA_CB_CG_OD_mult6
   89    91    94    96     9    torsion_ASP_CA_CB_CG_OD_mult1
   89    91    94    96     9    torsion_ASP_CA_CB_CG_OD_mult2
   89    91    94    96     9    torsion_ASP_CA_CB_CG_OD_mult3
   89    91    94    96     9    torsion_ASP_CA_CB_CG_OD_mult4
   89    91    94    96     9    torsion_ASP_CA_CB_CG_OD_mult5
   89    91    94    96     9    torsion_ASP_CA_CB_CG_OD_mult6
   92    91    94    95     9 
   92    91    94    96     9 
   93    91    94    95     9 
   93    91    94    96     9 
   89    97    99   100     9 
   89    97    99   101     9 
   98    97    99   100     9 
   98    97    99   101     9 
   97    99   101   102     9 
   97    99   101   103     9 
   97    99   101   107     9 
  100    99   101   102     9 
  100    99   101   103     9 
  100    99   101   107     9 
   99   101   103   104     9 
   99   101   103   105     9 
   99   101   103   106     9 
  102   101   103   104     9 
  102   101   103   105     9 
  102   101   103   106     9 
  107   101   103   104     9 
  107   101   103   105     9 
  107   101   103   106     9 
   99   101   107   108     9 
   99   101   107   109     9 
  102   101   107   108     9 
  102   101   107   109     9 
  103   101   107   108     9 
  103   101   107   109     9 
  101   107   109   110     9 
  101   107   109   111     9 
  108   107   109   110     9 
  108   107   109   111     9 
  107   109   111   112     9 
  107   109   111   113     9 
  107   109   111   126     9 
  110   109   111   112     9 
  110   109   111   113     9 
  110   109   111   126     9 
  126   111   113   116     9    torsion_LEU_C_CA_CB_CG_mult1
  126   111   113   116     9    torsion_LEU_C_CA_CB_CG_mult2
  126   111   113   116     9    torsion_LEU_C_CA_CB_CG_mult3
  109   111   113   114     9 
  109   111   113   115     9 
  109   111   113   116     9 
  112   111   113   114     9 
  112   111   113   115     9 
  112   111   113   116     9 
  126   111   113   114     9 
  126   111   113   115     9 
  109   111   126   127     9 
  109   111   126   128     9 
  112   111   126   127     9 
  112   111   126   128     9 
  113   111   126   127     9 
  113   111   126   128     9 
  111   113   116   117     9 
  111   113   116   118     9 
  111   113   116   122     9 
  114   113   116   117     9 
  114   113   116   118     9 
  114   113   116   122     9 
  115   113   116   117     9 
  115   113   116   118     9 
  115   113   116   122     9 
  113   116   118   119     9 
  113   116   118   120     9 
  113   116   118   121     9 
  117   116   118   119     9 
  117   116   118   120     9 
  117   116   118   121     9 
  122   116   118   119     9 
  122   116   118   120     9 
  122   116   118   121     9 
  113   116   122   123     9 
  113   116   122   124     9 
  113   116   122   125     9 
  117   116   122   123     9 
  117   116   122   124     9 
  117   116   122   125     9 
  118   116   122   123     9 
  118   116   122   124     9 
  118   116   122   125     9 
  111   126   128   129     9 
  111   126   128   130     9 
  127   126   128   129     9 
  127   126   128   130     9 
  126   128   130   131     9 
  126   128   130   132     9 
  126   128   130   145     9 
  129   128   130   131     9 
  129   128   130   132     9 
  129   128   130   145     9 
  145   130   132   135     9    torsion_LEU_C_CA_CB_CG_mult1
  145   130   132   135     9    torsion_LEU_C_CA_CB_CG_mult2
  145   130   132   135     9    torsion_LEU_C_CA_CB_CG_mult3
  128   130   132   133     9 
  128   130   132   134     9 
  128   130   132   135     9 
  131   130   132   133     9 
  131   130   132   134     9 
  131   130   132   135     9 
  145   130   132   133     9 
  145   130   132   134     9 
  128   130   145   146     9 
  128   130   145   147     9 
  131   130   145   146     9 
  131   130   145   147     9 
  132   130   145   146     9 
  132   130   145   147     9 
  130   132   135   136     9 
  130   132   135   137     9 
  130   132   135   141     9 
  133   132   135   136     9 
  133   132   135   137     9 
  133   132   135   141     9 
  134   132   135   136     9 
  134   132   135   137     9 
  134   132   135   141     9 
  132   135   137   138     9 
  132   135   137   139     9 
  132   135   137   140     9 
  136   135   137   138     9 
  136   135   137   139     9 
  136   135   137   140     9 
  141   135   137   138     9 
  141   135   137   139     9 
  141   135   137   140     9 
  132   135   141   142     9 
  132   135   141   143     9 
  132   135   141   144     9 
  136   135   141   142     9 
  136   135   141   143     9 
  136   135   141   144     9 
  137   135   141   142     9 
  137   135   141   143     9 
  137   135   141   144     9 
  130   145   147   148     9 
  130   145   147   149     9 
  146   145   147   148     9 
  146   145   147   149     9 
  145   147   149   150     9 
  145   147   149   151     9 
  145   147   149   169     9 
  148   147   149   150     9 
  148   147   149   151     9 
  148   147   149   169     9 
  147   149   151   152     9 
  147   149   151   153     9 
  147   149   151   154     9 
  150   149   151   152     9 
  150   149   151   153     9 
  150   149   151   154     9 
  169   149   151   152     9 
  169   149   151   153     9 
  169   149   151   154     9 
  147   149   169   170     9 
  147   149   169   171     9 
  150   149   169   170     9 
  150   149   169   171     9 
  151   149   169   170     9 
  151   149   169   171     9 
  149   151   154   155     9 
  149   151   154   156     9 
  149   151   154   157     9 
  152   151   154   155     9 
  152   151   154   156     9 
  152   151   154   157     9 
  153   151   154   155     9 
  153   151   154   156     9 
  153   151   154   157     9 
  151   154   157   158     9 
  151   154   157   159     9 
  151   154   157   160     9 
  155   154   157   158     9 
  155   154   157   159     9 
  155   154   157   160     9 
  156   154   157   158     9 
  156   154   157   159     9 
  156   154   157   160     9 
  154   157   160   161     9 
  154   157   160   162     9 
  158   157   160   161     9 
  158   157   160   162     9 
  159   157   160   161     9 
  159   157   160   162     9 
  157   160   162   163     9 
  157   160   162   166     9 
  161   160   162   163     9 
  161   160   162   166     9 
  160   162   163   164     9 
  160   162   163   165     9 
  166   162   163   164     9 
  166   162   163   165     9 
  160   162   166   167     9 
  160   162   166   168     9 
  163   162   166   167     9 
  163   162   166   168     9 
  149   169   171   172     9 
  149   169   171   173     9 
  170   169   171   172     9 
  170   169   171   173     9 
  169   171   173   174     9 
  169   171   173   175     9 
  169   171   173   183     9 
  172   171   173   174     9 
  172   171   173   175     9 
  172   171   173   183     9 
  171   173   175   176     9 
  171   173   175   177     9 
  171   173   175   181     9 
  174   173   175   176     9 
  174   173   175   177     9 
  174   173   175   181     9 
  183   173   175   176     9 
  183   173   175   177     9 
  183   173   175   181     9 
  171   173   183   184     9 
  171   173   183   185     9 
  174   173   183   184     9 
  174   173   183   185     9 
  175   173   183   184     9 
  175   173   183   185     9 
  173   175   177   178     9 
  173   175   177   179     9 
  173   175   177   180     9 
  176   175   177   178     9 
  176   175   177   179     9 
  176   175   177   180     9 
  181   175   177   178     9 
  181   175   177   179     9 
  181   175   177   180     9 
  173   175   181   182     9 
  176   175   181   182     9 
  177   175   181   182     9 
  173   183   185   186     9 
  173   183   185   187     9 
  184   183   185   186     9 
  184   183   185   187     9 
  183   185   187   188     9 
  183   185   187   189     9 
  183   185   187   203     9 
  186   185   187   188     9 
  186   185   187   189     9 
  186   185   187   203     9 
  185   187   189   190     9 
  185   187   189   191     9 
  185   187   189   192     9 
  188   187   189   190     9 
  188   187   189   191     9 
  188   187   189   192     9 
  203   187   189   190     9 
  203   187   189   191     9 
  203   187   189   192     9 
  185   187   203   204     9 
  185   187   203   205     9 
  188   187   203   204     9 
  188   187   203   205     9 
  189   187   203   204     9 
  189   187   203   205     9 
  187   189   192   193     9 
  187   189   192   201     9 
  190   189   192   193     9 
  190   189   192   201     9 
  191   189   192   193     9 
  191   189   192   201     9 
  189   192   193   194     9 
  189   192   193   195     9 
  201   192   193   194     9 
  201   192   193   195     9 
  189   192   201   199     9 
  189   192   201   202     9 
  193   192   201   199     9 
  193   192   201   202     9 
  192   193   195   196     9 
  192   193   195   197     9 
  194   193   195   196     9 
  194   193   195   197     9 
  193   195   197   198     9 
  193   195   197   199     9 
  196   195   197   198     9 
  196   195   197   199     9 
  195   197   199   200     9 
  195   197   199   201     9 
  198   197   199   200     9 
  198   197   199   201     9 
  197   199   201   192     9 
  197   199   201   202     9 
  200   199   201   192     9 
  200   199   201   202     9 
  187   203   205   206     9 
  187   203   205   207     9 
  204   203   205   206     9 
  204   203   205   207     9 
  203   205   207   208     9 
  203   205   207   209     9 
  203   205   207   213     9 
  206   205   207   208     9 
  206   205   207   209     9 
  206   205   207   213     9 
  205   207   209   210     9 
  205   207   209   211     9 
  205   207   209   212     9 
  208   207   209   210     9 
  208   207   209   211     9 
  208   207   209   212     9 
  213   207   209   210     9 
  213   207   209   211     9 
  213   207   209   212     9 
  205   207   213   214     9 
  205   207   213   215     9 
  208   207   213   214     9 
  208   207   213   215     9 
  209   207   213   214     9 
  209   207   213   215     9 
  207   213   215   216     9 
  207   213   215   217     9 
  214   213   215   216     9 
  214   213   215   217     9 
  213   215   217   218     9 
  213   215   217   219     9 
  213   215   217   228     9 
  216   215   217   218     9 
  216   215   217   219     9 
  216   215   217   228     9 
  215   217   219   220     9 
  215   217   219   221     9 
  215   217   219   222     9 
  218   217   219   220     9 
  218   217   219   221     9 
  218   217   219   222     9 
  228   217   219   220     9 
  228   217   219   221     9 
  228   217   219   222     9 
  215   217   228   229     9 
  215   217   228   230     9 
  218   217   228   229     9 
  218   217   228   230     9 
  219   217   228   229     9 
  219   217   228   230     9 
  217   219   222   223     9 
  217   219   222   224     9 
  217   219   222   225     9 
  220   219   222   223     9 
  220   219   222   224     9 
  220   219   222   225     9 
  221   219   222   223     9 
  221   219   222   224     9 
  221   219   222   225     9 
  219   222   225   226     9 
  219   222   225   227     9 
  223   222   225   226     9 
  223   222   225   227     9 
  224   222   225   226     9 
  224   222   225   227     9 
  217   228   230   231     9 
  217   228   230   232     9 
  229   228   230   231     9 
  229   228   230   232     9 
  228   230   232   233     9 
  228   230   232   234     9 
  228   230   232   239     9 
  231   230   232   233     9 
  231   230   232   234     9 
  231   230   232   239     9 
  230   232   234   235     9 
  230   232   234   236     9 
  230   232   234   237     9 
  233   232   234   235     9 
  233   232   234   236     9 
  233   232   234   237     9 
  239   232   234   235     9 
  239   232   234   236     9 
  239   232   234   237     9 
  230   232   239   240     9 
  230   232   239   241     9 
  233   232   239   240     9 
  233   232   239   241     9 
  234   232   239   240     9 
  234   232   239   241     9 
  232   234   237   238     9 
  235   234   237   238     9 
  236   234   237   238     9 
  232   239   241   242     9 
  232   239   241   243     9 
  240   239   241   242     9 
  240   239   241   243     9 
  239   241   243   244     9 
  239   241   243   245     9 
  239   241   243   250     9 
  242   241   243   244     9 
  242   241   243   245     9 
  242   241   243   250     9 
  241   243   245   246     9 
  241   243   245   247     9 
  241   243   245   248     9 
  244   243   245   246     9 
  244   243   245   247     9 
  244   243   245   248     9 
  250   243   245   246     9 
  250   243   245   247     9 
  250   243   245   248     9 
  241   243   250   251     9 
  241   243   250   252     9 
  244   243   250   251     9 
  244   243   250   252     9 
  245   243   250   251     9 
  245   243   250   252     9 
  243   245   248   249     9 
  246   245   248   249     9 
  247   245   248   249     9 
  243   250   252   253     9 
  243   250   252   254     9 
  251   250   252   253     9 
  251   250   252   254     9 
  250   252   254   255     9 
  250   252   254   256     9 
  250   252   254   262     9 
  253   252   254   255     9 
  253   252   254   256     9 
  253   252   254   262     9 
  252   254   256   259     9    torsion_ASP_N_CA_CB_CG_mult1
  252   254   256   259     9    torsion_ASP_N_CA_CB_CG_mult2
  252   254   256   259     9    torsion_ASP_N_CA_CB_CG_mult3
  252   254   256   259     9    torsion_ASP_N_CA_CB_CG_mult4
  252   254   256   259     9    torsion_ASP_N_CA_CB_CG_mult5
  252   254   256   259     9    torsion_ASP_N_CA_CB_CG_mult6
  252   254   256   257     9 
  252   254   256   258     9 
  255   254   256   257     9 
  255   254   256   258     9 
  255   254   256   259     9 
  262   254   256   257     9 
  262   254   256   258     9 
  262   254   256   259     9 
  252   254   262   263     9 
  252   254   262   264     9 
  255   254   262   263     9 
  255   254   262   264     9 
  256   254   262   263     9 
  256   254   262   264     9 
  254   256   259   260     9    torsion_ASP_CA_CB_CG_OD_mult1
  254   256   259   260     9    torsion_ASP_CA_CB_CG_OD_mult2
  254   256   259   260     9    torsion_ASP_CA_CB_CG_OD_mult3
  254   256   259   260     9    torsion_ASP_CA_CB_CG_OD_mult4
  254   256   259   260     9    torsion_ASP_CA_CB_CG_OD_mult5
  254   256   259   260     9    torsion_ASP_CA_CB_CG_OD_mult6
  254   256   259   261     9    torsion_ASP_CA_CB_CG_OD_mult1
  254   256   259   261     9    torsion_ASP_CA_CB_CG_OD_mult2
  254   256   259   261     9    torsion_ASP_CA_CB_CG_OD_mult3
  254   256   259   261     9    torsion_ASP_CA_CB_CG_OD_mult4
  254   256   259   261     9    torsion_ASP_CA_CB_CG_OD_mult5
  254   256   259   261     9    torsion_ASP_CA_CB_CG_OD_mult6
  257   256   259   260     9 
  257   256   259   261     9 
  258   256   259   260     9 
  258   256   259   261     9 
  254   262   264   265     9 
  254   262   264   266     9 
  263   262   264   265     9 
  263   262   264   266     9 
  262   264   266   267     9 
  262   264   266   268     9 
  262   264   266   284     9 
  265   264   266   267     9 
  265   264   266   268     9 
  265   264   266   284     9 
  264   266   268   269     9 
  264   266   268   270     9 
  264   266   268   271     9 
  267   266   268   269     9 
  267   266   268   270     9 
  267   266   268   271     9 
  284   266   268   269     9 
  284   266   268   270     9 
  284   266   268   271     9 
  264   266   284   285     9 
  264   266   284   286     9 
  267   266   284   285     9 
  267   266   284   286     9 
  268   266   284   285     9 
  268   266   284   286     9 
  266   268   271   272     9 
  266   268   271   273     9 
  266   268   271   274     9 
  269   268   271   272     9 
  269   268   271   273     9 
  269   268   271   274     9 
  270   268   271   272     9 
  270   268   271   273     9 
  270   268   271   274     9 
  268   271   274   275     9 
  268   271   274   276     9 
  268   271   274   277     9 
  272   271   274   275     9 
  272   271   274   276     9 
  272   271   274   277     9 
  273   271   274   275     9 
  273   271   274   276     9 
  273   271   274   277     9 
  271   274   277   278     9 
  271   274   277   279     9 
  271   274   277   280     9 
  275   274   277   278     9 
  275   274   277   279     9 
  275   274   277   280     9 
  276   274   277   278     9 
  276   274   277   279     9 
  276   274   277   280     9 
  274   277   280   281     9 
  274   277   280   282     9 
  274   277   280   283     9 
  278   277   280   281     9 
  278   277   280   282     9 
  278   277   280   283     9 
  279   277   280   281     9 
  279   277   280   282     9 
  279   277   280   283     9 
  266   284   286   287     9 
  266   284   286   288     9 
  285   284   286   287     9 
  285   284   286   288     9 
  284   286   288   289     9 
  284   286   288   290     9 
  284   286   288   303     9 
  287   286   288   289     9 
  287   286   288   290     9 
  287   286   288   303     9 
  303   288   290   293     9    torsion_LEU_C_CA_CB_CG_mult1
  303   288   290   293     9    torsion_LEU_C_CA_CB_CG_mult2
  303   288   290   293     9    torsion_LEU_C_CA_CB_CG_mult3
  286   288   290   291     9 
  286   288   290   292     9 
  286   288   290   293     9 
  289   288   290   291     9 
  289   288   290   292     9 
  289   288   290   293     9 
  303   288   290   291     9 
  303   288   290   292     9 
  286   288   303   304     9 
  286   288   303   305     9 
  289   288   303   304     9 
  289   288   303   305     9 
  290   288   303   304     9 
  290   288   303   305     9 
  288   290   293   294     9 
  288   290   293   295     9 
  288   290   293   299     9 
  291   290   293   294     9 
  291   290   293   295     9 
  291   290   293   299     9 
  292   290   293   294     9 
  292   290   293   295     9 
  292   290   293   299     9 
  290   293   295   296     9 
  290   293   295   297     9 
  290   293   295   298     9 
  294   293   295   296     9 
  294   293   295   297     9 
  294   293   295   298     9 
  299   293   295   296     9 
  299   293   295   297     9 
  299   293   295   298     9 
  290   293   299   300     9 
  290   293   299   301     9 
  290   293   299   302     9 
  294   293   299   300     9 
  294   293   299   301     9 
  294   293   299   302     9 
  295   293   299   300     9 
  295   293   299   301     9 
  295   293   299   302     9 
  288   303   305   306     9 
  288   303   305   307     9 
  304   303   305   306     9 
  304   303   305   307     9 
  303   305   307   308     9 
  303   305   307   309     9 
  303   305   307   327     9 
  306   305   307   308     9 
  306   305   307   309     9 
  306   305   307   327     9 
  305   307   309   310     9 
  305   307   309   311     9 
  305   307   309   312     9 
  308   307   309   310     9 
  308   307   309   311     9 
  308   307   309   312     9 
  327   307   309   310     9 
  327   307   309   311     9 
  327   307   309   312     9 
  305   307   327   328     9 
  305   307   327   329     9 
  308   307   327   328     9 
  308   307   327   329     9 
  309   307   327   328     9 
  309   307   327   329     9 
  307   309   312   313     9 
  307   309   312   314     9 
  307   309   312   315     9 
  310   309   312   313     9 
  310   309   312   314     9 
  310   309   312   315     9 
  311   309   312   313     9 
  311   309   312   314     9 
  311   309   312   315     9 
  309   312   315   316     9 
  309   312   315   317     9 
  309   312   315   318     9 
  313   312   315   316     9 
  313   312   315   317     9 
  313   312   315   318     9 
  314   312   315   316     9 
  314   312   315   317     9 
  314   312   315   318     9 
  312   315   318   319     9 
  312   315   318   320     9 
  316   315   318   319     9 
  316   315   318   320     9 
  317   315   318   319     9 
  317   315   318   320     9 
  315   318   320   321     9 
  315   318   320   324     9 
  319   318   320   321     9 
  319   318   320   324     9 
  318   320   321   322     9 
  318   320   321   323     9 
  324   320   321   322     9 
  324   320   321   323     9 
  318   320   324   325     9 
  318   320   324   326     9 
  321   320   324   325     9 
  321   320   324   326     9 
  307   327   329   330     9 
  307   327   329   331     9 
  328   327   329   330     9 
  328   327   329   331     9 
  327   329   331   332     9 
  327   329   331   333     9 
  327   329   331   351     9 
  330   329   331   332     9 
  330   329   331   333     9 
  330   329   331   351     9 
  329   331   333   334     9 
  329   331   333   335     9 
  329   331   333   336     9 
  332   331   333   334     9 
  332   331   333   335     9 
  332   331   333   336     9 
  351   331   333   334     9 
  351   331   333   335     9 
  351   331   333   336     9 
  329   331   351   352     9 
  329   331   351   353     9 
  332   331   351   352     9 
  332   331   351   353     9 
  333   331   351   352     9 
  333   331   351   353     9 
  331   333   336   337     9 
  331   333   336   338     9 
  331   333   336   339     9 
  334   333   336   337     9 
  334   333   336   338     9 
  334   333   336   339     9 
  335   333   336   337     9 
  335   333   336   338     9 
  335   333   336   339     9 
  333   336   339   340     9 
  333   336   339   341     9 
  333   336   339   342     9 
  337   336   339   340     9 
  337   336   339   341     9 
  337   336   339   342     9 
  338   336   339   340     9 
  338   336   339   341     9 
  338   336   339   342     9 
  336   339   342   343     9 
  336   339   342   344     9 
  340   339   342   343     9 
  340   339   342   344     9 
  341   339   342   343     9 
  341   339   342   344     9 
  339   342   344   345     9 
  339   342   344   348     9 
  343   342   344   345     9 
  343   342   344   348     9 
  342   344   345   346     9 
  342   344   345   347     9 
  348   344   345   346     9 
  348   344   345   347     9 
  342   344   348   349     9 
  342   344   348   350     9 
  345   344   348   349     9 
  345   344   348   350     9 

[ dihedrals ]
;  ai    aj    ak    al funct            c0            c1            c2            c3
    5    20    18    19     4 
   18    22    20    21     4 
   22    42    40    41     4 
   40    44    42    43     4 
   44    61    59    60     4 
   59    63    61    62     4 
   63    71    69    70     4 
   69    73    71    72     4 
   73    87    85    86     4 
   85    89    87    88     4 
   89    99    97    98     4 
   91    95    94    96     4 
   97   101    99   100     4 
  101   109   107   108     4 
  107   111   109   110     4 
  111   128   126   127     4 
  126   130   128   129     4 
  130   147   145   146     4 
  145   149   147   148     4 
  149   171   169   170     4 
  157   162   160   161     4 
  160   163   162   166     4 
  162   164   163   165     4 
  162   167   166   168     4 
  169   173   171   172     4 
  173   185   183   184     4 
  183   187   185   186     4 
  187   205   203   204     4 
  189   192   201   193     4 
  192   195   193   194     4 
  192   199   201   202     4 
  193   197   195   196     4 
  195   199   197   198     4 
  197   201   199   200     4 
  203   207   205   206     4 
  207   215   213   214     4 
  213   217   215   216     4 
  217   230   228   229     4 
  222   226   225   227     4 
  228   232   230   231     4 
  232   241   239   240     4 
  239   243   241   242     4 
  243   252   250   251     4 
  250   254   252   253     4 
  254   264   262   263     4 
  256   260   259   261     4 
  262   266   264   265     4 
  266   286   284   285     4 
  284   288   286   287     4 
  288   305   303   304     4 
  303   307   305   306     4 
  307   329   327   328     4 
  315   320   318   319     4 
  318   321   320   324     4 
  320   322   321   323     4 
  320   325   324   326     4 
  327   331   329   330     4 
  331   352   351   353     4 
  339   344   342   343     4 
  342   345   344   348     4 
  344   346   345   347     4 
  344   349   348   350     4 

; Include Position restraint file
#ifdef POSRES
#include "posre.itp"
#endif

; Include water topology
#include "amber99sb-ildn.ff/spce.itp"

#ifdef POSRES_WATER
; Position restraint for each water oxygen
[ position_restraints ]
;  i funct       fcx        fcy        fcz
   1    1       1000       1000       1000
#endif

; Include topology for ions
#include "amber99sb-ildn.ff/ions.itp"

[ system ]
; Name
Protein in water

[ molecules ]
; Compound        #mols
Protein_chain_A     1
SOL               6912
CL                2
