;
;	File 'topol.top' was generated
;	By user: root (501)
;	On host: Amoghs-MacBook-Air.local
;	At date: Wed Jul 15 09:16:01 2026
;
;	This is a standalone topology file
;
;	Created by:
;	                :-) GROMACS - gmx pdb2gmx, 2026.3-Homebrew (-:
;	
;	Executable:   /opt/homebrew/bin/../Cellar/gromacs/2026.3/bin/gmx
;	Data prefix:  /opt/homebrew/bin/../Cellar/gromacs/2026.3
;	Working dir:  /Users/centurion616/Desktop/Silicon-Virovore
;	Command line:
;	  gmx pdb2gmx -f validated_helix.pdb -o peptide_processed.gro -water spce
;	Force field was read from the standard GROMACS share directory.
;

; Include forcefield parameters
#include "amber99sb-ildn.ff/forcefield.itp"

[ moleculetype ]
; Name            nrexcl
Protein_chain_A     3

[ atoms ]
;   nr       type  resnr residue  atom   cgnr     charge       mass  typeB    chargeB      massB
; residue   1 LEU rtp NLEU q +1.0
     1         N3      1    LEU      N      1      0.101      14.01
     2          H      1    LEU     H1      2     0.2148      1.008
     3          H      1    LEU     H2      3     0.2148      1.008
     4          H      1    LEU     H3      4     0.2148      1.008
     5         CT      1    LEU     CA      5     0.0104      12.01
     6         HP      1    LEU     HA      6     0.1053      1.008
     7         CT      1    LEU     CB      7    -0.0244      12.01
     8         HC      1    LEU    HB1      8     0.0256      1.008
     9         HC      1    LEU    HB2      9     0.0256      1.008
    10         CT      1    LEU     CG     10     0.3421      12.01
    11         HC      1    LEU     HG     11     -0.038      1.008
    12         CT      1    LEU    CD1     12    -0.4106      12.01
    13         HC      1    LEU   HD11     13      0.098      1.008
    14         HC      1    LEU   HD12     14      0.098      1.008
    15         HC      1    LEU   HD13     15      0.098      1.008
    16         CT      1    LEU    CD2     16    -0.4104      12.01
    17         HC      1    LEU   HD21     17      0.098      1.008
    18         HC      1    LEU   HD22     18      0.098      1.008
    19         HC      1    LEU   HD23     19      0.098      1.008
    20          C      1    LEU      C     20     0.6123      12.01
    21          O      1    LEU      O     21    -0.5713         16   ; qtot 1
; residue   2 ILE rtp ILE  q  0.0
    22          N      2    ILE      N     22    -0.4157      14.01
    23          H      2    ILE      H     23     0.2719      1.008
    24         CT      2    ILE     CA     24    -0.0597      12.01
    25         H1      2    ILE     HA     25     0.0869      1.008
    26         CT      2    ILE     CB     26     0.1303      12.01
    27         HC      2    ILE     HB     27     0.0187      1.008
    28         CT      2    ILE    CG2     28    -0.3204      12.01
    29         HC      2    ILE   HG21     29     0.0882      1.008
    30         HC      2    ILE   HG22     30     0.0882      1.008
    31         HC      2    ILE   HG23     31     0.0882      1.008
    32         CT      2    ILE    CG1     32     -0.043      12.01
    33         HC      2    ILE   HG11     33     0.0236      1.008
    34         HC      2    ILE   HG12     34     0.0236      1.008
    35         CT      2    ILE     CD     35     -0.066      12.01
    36         HC      2    ILE    HD1     36     0.0186      1.008
    37         HC      2    ILE    HD2     37     0.0186      1.008
    38         HC      2    ILE    HD3     38     0.0186      1.008
    39          C      2    ILE      C     39     0.5973      12.01
    40          O      2    ILE      O     40    -0.5679         16   ; qtot 1
; residue   3 LEU rtp LEU  q  0.0
    41          N      3    LEU      N     41    -0.4157      14.01
    42          H      3    LEU      H     42     0.2719      1.008
    43         CT      3    LEU     CA     43    -0.0518      12.01
    44         H1      3    LEU     HA     44     0.0922      1.008
    45         CT      3    LEU     CB     45    -0.1102      12.01
    46         HC      3    LEU    HB1     46     0.0457      1.008
    47         HC      3    LEU    HB2     47     0.0457      1.008
    48         CT      3    LEU     CG     48     0.3531      12.01
    49         HC      3    LEU     HG     49    -0.0361      1.008
    50         CT      3    LEU    CD1     50    -0.4121      12.01
    51         HC      3    LEU   HD11     51        0.1      1.008
    52         HC      3    LEU   HD12     52        0.1      1.008
    53         HC      3    LEU   HD13     53        0.1      1.008
    54         CT      3    LEU    CD2     54    -0.4121      12.01
    55         HC      3    LEU   HD21     55        0.1      1.008
    56         HC      3    LEU   HD22     56        0.1      1.008
    57         HC      3    LEU   HD23     57        0.1      1.008
    58          C      3    LEU      C     58     0.5973      12.01
    59          O      3    LEU      O     59    -0.5679         16   ; qtot 1
; residue   4 LEU rtp LEU  q  0.0
    60          N      4    LEU      N     60    -0.4157      14.01
    61          H      4    LEU      H     61     0.2719      1.008
    62         CT      4    LEU     CA     62    -0.0518      12.01
    63         H1      4    LEU     HA     63     0.0922      1.008
    64         CT      4    LEU     CB     64    -0.1102      12.01
    65         HC      4    LEU    HB1     65     0.0457      1.008
    66         HC      4    LEU    HB2     66     0.0457      1.008
    67         CT      4    LEU     CG     67     0.3531      12.01
    68         HC      4    LEU     HG     68    -0.0361      1.008
    69         CT      4    LEU    CD1     69    -0.4121      12.01
    70         HC      4    LEU   HD11     70        0.1      1.008
    71         HC      4    LEU   HD12     71        0.1      1.008
    72         HC      4    LEU   HD13     72        0.1      1.008
    73         CT      4    LEU    CD2     73    -0.4121      12.01
    74         HC      4    LEU   HD21     74        0.1      1.008
    75         HC      4    LEU   HD22     75        0.1      1.008
    76         HC      4    LEU   HD23     76        0.1      1.008
    77          C      4    LEU      C     77     0.5973      12.01
    78          O      4    LEU      O     78    -0.5679         16   ; qtot 1
; residue   5 VAL rtp VAL  q  0.0
    79          N      5    VAL      N     79    -0.4157      14.01
    80          H      5    VAL      H     80     0.2719      1.008
    81         CT      5    VAL     CA     81    -0.0875      12.01
    82         H1      5    VAL     HA     82     0.0969      1.008
    83         CT      5    VAL     CB     83     0.2985      12.01
    84         HC      5    VAL     HB     84    -0.0297      1.008
    85         CT      5    VAL    CG1     85    -0.3192      12.01
    86         HC      5    VAL   HG11     86     0.0791      1.008
    87         HC      5    VAL   HG12     87     0.0791      1.008
    88         HC      5    VAL   HG13     88     0.0791      1.008
    89         CT      5    VAL    CG2     89    -0.3192      12.01
    90         HC      5    VAL   HG21     90     0.0791      1.008
    91         HC      5    VAL   HG22     91     0.0791      1.008
    92         HC      5    VAL   HG23     92     0.0791      1.008
    93          C      5    VAL      C     93     0.5973      12.01
    94          O      5    VAL      O     94    -0.5679         16   ; qtot 1
; residue   6 LEU rtp LEU  q  0.0
    95          N      6    LEU      N     95    -0.4157      14.01
    96          H      6    LEU      H     96     0.2719      1.008
    97         CT      6    LEU     CA     97    -0.0518      12.01
    98         H1      6    LEU     HA     98     0.0922      1.008
    99         CT      6    LEU     CB     99    -0.1102      12.01
   100         HC      6    LEU    HB1    100     0.0457      1.008
   101         HC      6    LEU    HB2    101     0.0457      1.008
   102         CT      6    LEU     CG    102     0.3531      12.01
   103         HC      6    LEU     HG    103    -0.0361      1.008
   104         CT      6    LEU    CD1    104    -0.4121      12.01
   105         HC      6    LEU   HD11    105        0.1      1.008
   106         HC      6    LEU   HD12    106        0.1      1.008
   107         HC      6    LEU   HD13    107        0.1      1.008
   108         CT      6    LEU    CD2    108    -0.4121      12.01
   109         HC      6    LEU   HD21    109        0.1      1.008
   110         HC      6    LEU   HD22    110        0.1      1.008
   111         HC      6    LEU   HD23    111        0.1      1.008
   112          C      6    LEU      C    112     0.5973      12.01
   113          O      6    LEU      O    113    -0.5679         16   ; qtot 1
; residue   7 VAL rtp VAL  q  0.0
   114          N      7    VAL      N    114    -0.4157      14.01
   115          H      7    VAL      H    115     0.2719      1.008
   116         CT      7    VAL     CA    116    -0.0875      12.01
   117         H1      7    VAL     HA    117     0.0969      1.008
   118         CT      7    VAL     CB    118     0.2985      12.01
   119         HC      7    VAL     HB    119    -0.0297      1.008
   120         CT      7    VAL    CG1    120    -0.3192      12.01
   121         HC      7    VAL   HG11    121     0.0791      1.008
   122         HC      7    VAL   HG12    122     0.0791      1.008
   123         HC      7    VAL   HG13    123     0.0791      1.008
   124         CT      7    VAL    CG2    124    -0.3192      12.01
   125         HC      7    VAL   HG21    125     0.0791      1.008
   126         HC      7    VAL   HG22    126     0.0791      1.008
   127         HC      7    VAL   HG23    127     0.0791      1.008
   128          C      7    VAL      C    128     0.5973      12.01
   129          O      7    VAL      O    129    -0.5679         16   ; qtot 1
; residue   8 LEU rtp LEU  q  0.0
   130          N      8    LEU      N    130    -0.4157      14.01
   131          H      8    LEU      H    131     0.2719      1.008
   132         CT      8    LEU     CA    132    -0.0518      12.01
   133         H1      8    LEU     HA    133     0.0922      1.008
   134         CT      8    LEU     CB    134    -0.1102      12.01
   135         HC      8    LEU    HB1    135     0.0457      1.008
   136         HC      8    LEU    HB2    136     0.0457      1.008
   137         CT      8    LEU     CG    137     0.3531      12.01
   138         HC      8    LEU     HG    138    -0.0361      1.008
   139         CT      8    LEU    CD1    139    -0.4121      12.01
   140         HC      8    LEU   HD11    140        0.1      1.008
   141         HC      8    LEU   HD12    141        0.1      1.008
   142         HC      8    LEU   HD13    142        0.1      1.008
   143         CT      8    LEU    CD2    143    -0.4121      12.01
   144         HC      8    LEU   HD21    144        0.1      1.008
   145         HC      8    LEU   HD22    145        0.1      1.008
   146         HC      8    LEU   HD23    146        0.1      1.008
   147          C      8    LEU      C    147     0.5973      12.01
   148          O      8    LEU      O    148    -0.5679         16   ; qtot 1
; residue   9 ILE rtp ILE  q  0.0
   149          N      9    ILE      N    149    -0.4157      14.01
   150          H      9    ILE      H    150     0.2719      1.008
   151         CT      9    ILE     CA    151    -0.0597      12.01
   152         H1      9    ILE     HA    152     0.0869      1.008
   153         CT      9    ILE     CB    153     0.1303      12.01
   154         HC      9    ILE     HB    154     0.0187      1.008
   155         CT      9    ILE    CG2    155    -0.3204      12.01
   156         HC      9    ILE   HG21    156     0.0882      1.008
   157         HC      9    ILE   HG22    157     0.0882      1.008
   158         HC      9    ILE   HG23    158     0.0882      1.008
   159         CT      9    ILE    CG1    159     -0.043      12.01
   160         HC      9    ILE   HG11    160     0.0236      1.008
   161         HC      9    ILE   HG12    161     0.0236      1.008
   162         CT      9    ILE     CD    162     -0.066      12.01
   163         HC      9    ILE    HD1    163     0.0186      1.008
   164         HC      9    ILE    HD2    164     0.0186      1.008
   165         HC      9    ILE    HD3    165     0.0186      1.008
   166          C      9    ILE      C    166     0.5973      12.01
   167          O      9    ILE      O    167    -0.5679         16   ; qtot 1
; residue  10 VAL rtp VAL  q  0.0
   168          N     10    VAL      N    168    -0.4157      14.01
   169          H     10    VAL      H    169     0.2719      1.008
   170         CT     10    VAL     CA    170    -0.0875      12.01
   171         H1     10    VAL     HA    171     0.0969      1.008
   172         CT     10    VAL     CB    172     0.2985      12.01
   173         HC     10    VAL     HB    173    -0.0297      1.008
   174         CT     10    VAL    CG1    174    -0.3192      12.01
   175         HC     10    VAL   HG11    175     0.0791      1.008
   176         HC     10    VAL   HG12    176     0.0791      1.008
   177         HC     10    VAL   HG13    177     0.0791      1.008
   178         CT     10    VAL    CG2    178    -0.3192      12.01
   179         HC     10    VAL   HG21    179     0.0791      1.008
   180         HC     10    VAL   HG22    180     0.0791      1.008
   181         HC     10    VAL   HG23    181     0.0791      1.008
   182          C     10    VAL      C    182     0.5973      12.01
   183          O     10    VAL      O    183    -0.5679         16   ; qtot 1
; residue  11 VAL rtp VAL  q  0.0
   184          N     11    VAL      N    184    -0.4157      14.01
   185          H     11    VAL      H    185     0.2719      1.008
   186         CT     11    VAL     CA    186    -0.0875      12.01
   187         H1     11    VAL     HA    187     0.0969      1.008
   188         CT     11    VAL     CB    188     0.2985      12.01
   189         HC     11    VAL     HB    189    -0.0297      1.008
   190         CT     11    VAL    CG1    190    -0.3192      12.01
   191         HC     11    VAL   HG11    191     0.0791      1.008
   192         HC     11    VAL   HG12    192     0.0791      1.008
   193         HC     11    VAL   HG13    193     0.0791      1.008
   194         CT     11    VAL    CG2    194    -0.3192      12.01
   195         HC     11    VAL   HG21    195     0.0791      1.008
   196         HC     11    VAL   HG22    196     0.0791      1.008
   197         HC     11    VAL   HG23    197     0.0791      1.008
   198          C     11    VAL      C    198     0.5973      12.01
   199          O     11    VAL      O    199    -0.5679         16   ; qtot 1
; residue  12 VAL rtp VAL  q  0.0
   200          N     12    VAL      N    200    -0.4157      14.01
   201          H     12    VAL      H    201     0.2719      1.008
   202         CT     12    VAL     CA    202    -0.0875      12.01
   203         H1     12    VAL     HA    203     0.0969      1.008
   204         CT     12    VAL     CB    204     0.2985      12.01
   205         HC     12    VAL     HB    205    -0.0297      1.008
   206         CT     12    VAL    CG1    206    -0.3192      12.01
   207         HC     12    VAL   HG11    207     0.0791      1.008
   208         HC     12    VAL   HG12    208     0.0791      1.008
   209         HC     12    VAL   HG13    209     0.0791      1.008
   210         CT     12    VAL    CG2    210    -0.3192      12.01
   211         HC     12    VAL   HG21    211     0.0791      1.008
   212         HC     12    VAL   HG22    212     0.0791      1.008
   213         HC     12    VAL   HG23    213     0.0791      1.008
   214          C     12    VAL      C    214     0.5973      12.01
   215          O     12    VAL      O    215    -0.5679         16   ; qtot 1
; residue  13 LEU rtp LEU  q  0.0
   216          N     13    LEU      N    216    -0.4157      14.01
   217          H     13    LEU      H    217     0.2719      1.008
   218         CT     13    LEU     CA    218    -0.0518      12.01
   219         H1     13    LEU     HA    219     0.0922      1.008
   220         CT     13    LEU     CB    220    -0.1102      12.01
   221         HC     13    LEU    HB1    221     0.0457      1.008
   222         HC     13    LEU    HB2    222     0.0457      1.008
   223         CT     13    LEU     CG    223     0.3531      12.01
   224         HC     13    LEU     HG    224    -0.0361      1.008
   225         CT     13    LEU    CD1    225    -0.4121      12.01
   226         HC     13    LEU   HD11    226        0.1      1.008
   227         HC     13    LEU   HD12    227        0.1      1.008
   228         HC     13    LEU   HD13    228        0.1      1.008
   229         CT     13    LEU    CD2    229    -0.4121      12.01
   230         HC     13    LEU   HD21    230        0.1      1.008
   231         HC     13    LEU   HD22    231        0.1      1.008
   232         HC     13    LEU   HD23    232        0.1      1.008
   233          C     13    LEU      C    233     0.5973      12.01
   234          O     13    LEU      O    234    -0.5679         16   ; qtot 1
; residue  14 VAL rtp VAL  q  0.0
   235          N     14    VAL      N    235    -0.4157      14.01
   236          H     14    VAL      H    236     0.2719      1.008
   237         CT     14    VAL     CA    237    -0.0875      12.01
   238         H1     14    VAL     HA    238     0.0969      1.008
   239         CT     14    VAL     CB    239     0.2985      12.01
   240         HC     14    VAL     HB    240    -0.0297      1.008
   241         CT     14    VAL    CG1    241    -0.3192      12.01
   242         HC     14    VAL   HG11    242     0.0791      1.008
   243         HC     14    VAL   HG12    243     0.0791      1.008
   244         HC     14    VAL   HG13    244     0.0791      1.008
   245         CT     14    VAL    CG2    245    -0.3192      12.01
   246         HC     14    VAL   HG21    246     0.0791      1.008
   247         HC     14    VAL   HG22    247     0.0791      1.008
   248         HC     14    VAL   HG23    248     0.0791      1.008
   249          C     14    VAL      C    249     0.5973      12.01
   250          O     14    VAL      O    250    -0.5679         16   ; qtot 1
; residue  15 LEU rtp LEU  q  0.0
   251          N     15    LEU      N    251    -0.4157      14.01
   252          H     15    LEU      H    252     0.2719      1.008
   253         CT     15    LEU     CA    253    -0.0518      12.01
   254         H1     15    LEU     HA    254     0.0922      1.008
   255         CT     15    LEU     CB    255    -0.1102      12.01
   256         HC     15    LEU    HB1    256     0.0457      1.008
   257         HC     15    LEU    HB2    257     0.0457      1.008
   258         CT     15    LEU     CG    258     0.3531      12.01
   259         HC     15    LEU     HG    259    -0.0361      1.008
   260         CT     15    LEU    CD1    260    -0.4121      12.01
   261         HC     15    LEU   HD11    261        0.1      1.008
   262         HC     15    LEU   HD12    262        0.1      1.008
   263         HC     15    LEU   HD13    263        0.1      1.008
   264         CT     15    LEU    CD2    264    -0.4121      12.01
   265         HC     15    LEU   HD21    265        0.1      1.008
   266         HC     15    LEU   HD22    266        0.1      1.008
   267         HC     15    LEU   HD23    267        0.1      1.008
   268          C     15    LEU      C    268     0.5973      12.01
   269          O     15    LEU      O    269    -0.5679         16   ; qtot 1
; residue  16 LEU rtp LEU  q  0.0
   270          N     16    LEU      N    270    -0.4157      14.01
   271          H     16    LEU      H    271     0.2719      1.008
   272         CT     16    LEU     CA    272    -0.0518      12.01
   273         H1     16    LEU     HA    273     0.0922      1.008
   274         CT     16    LEU     CB    274    -0.1102      12.01
   275         HC     16    LEU    HB1    275     0.0457      1.008
   276         HC     16    LEU    HB2    276     0.0457      1.008
   277         CT     16    LEU     CG    277     0.3531      12.01
   278         HC     16    LEU     HG    278    -0.0361      1.008
   279         CT     16    LEU    CD1    279    -0.4121      12.01
   280         HC     16    LEU   HD11    280        0.1      1.008
   281         HC     16    LEU   HD12    281        0.1      1.008
   282         HC     16    LEU   HD13    282        0.1      1.008
   283         CT     16    LEU    CD2    283    -0.4121      12.01
   284         HC     16    LEU   HD21    284        0.1      1.008
   285         HC     16    LEU   HD22    285        0.1      1.008
   286         HC     16    LEU   HD23    286        0.1      1.008
   287          C     16    LEU      C    287     0.5973      12.01
   288          O     16    LEU      O    288    -0.5679         16   ; qtot 1
; residue  17 LEU rtp LEU  q  0.0
   289          N     17    LEU      N    289    -0.4157      14.01
   290          H     17    LEU      H    290     0.2719      1.008
   291         CT     17    LEU     CA    291    -0.0518      12.01
   292         H1     17    LEU     HA    292     0.0922      1.008
   293         CT     17    LEU     CB    293    -0.1102      12.01
   294         HC     17    LEU    HB1    294     0.0457      1.008
   295         HC     17    LEU    HB2    295     0.0457      1.008
   296         CT     17    LEU     CG    296     0.3531      12.01
   297         HC     17    LEU     HG    297    -0.0361      1.008
   298         CT     17    LEU    CD1    298    -0.4121      12.01
   299         HC     17    LEU   HD11    299        0.1      1.008
   300         HC     17    LEU   HD12    300        0.1      1.008
   301         HC     17    LEU   HD13    301        0.1      1.008
   302         CT     17    LEU    CD2    302    -0.4121      12.01
   303         HC     17    LEU   HD21    303        0.1      1.008
   304         HC     17    LEU   HD22    304        0.1      1.008
   305         HC     17    LEU   HD23    305        0.1      1.008
   306          C     17    LEU      C    306     0.5973      12.01
   307          O     17    LEU      O    307    -0.5679         16   ; qtot 1
; residue  18 LEU rtp LEU  q  0.0
   308          N     18    LEU      N    308    -0.4157      14.01
   309          H     18    LEU      H    309     0.2719      1.008
   310         CT     18    LEU     CA    310    -0.0518      12.01
   311         H1     18    LEU     HA    311     0.0922      1.008
   312         CT     18    LEU     CB    312    -0.1102      12.01
   313         HC     18    LEU    HB1    313     0.0457      1.008
   314         HC     18    LEU    HB2    314     0.0457      1.008
   315         CT     18    LEU     CG    315     0.3531      12.01
   316         HC     18    LEU     HG    316    -0.0361      1.008
   317         CT     18    LEU    CD1    317    -0.4121      12.01
   318         HC     18    LEU   HD11    318        0.1      1.008
   319         HC     18    LEU   HD12    319        0.1      1.008
   320         HC     18    LEU   HD13    320        0.1      1.008
   321         CT     18    LEU    CD2    321    -0.4121      12.01
   322         HC     18    LEU   HD21    322        0.1      1.008
   323         HC     18    LEU   HD22    323        0.1      1.008
   324         HC     18    LEU   HD23    324        0.1      1.008
   325          C     18    LEU      C    325     0.5973      12.01
   326          O     18    LEU      O    326    -0.5679         16   ; qtot 1
; residue  19 LEU rtp LEU  q  0.0
   327          N     19    LEU      N    327    -0.4157      14.01
   328          H     19    LEU      H    328     0.2719      1.008
   329         CT     19    LEU     CA    329    -0.0518      12.01
   330         H1     19    LEU     HA    330     0.0922      1.008
   331         CT     19    LEU     CB    331    -0.1102      12.01
   332         HC     19    LEU    HB1    332     0.0457      1.008
   333         HC     19    LEU    HB2    333     0.0457      1.008
   334         CT     19    LEU     CG    334     0.3531      12.01
   335         HC     19    LEU     HG    335    -0.0361      1.008
   336         CT     19    LEU    CD1    336    -0.4121      12.01
   337         HC     19    LEU   HD11    337        0.1      1.008
   338         HC     19    LEU   HD12    338        0.1      1.008
   339         HC     19    LEU   HD13    339        0.1      1.008
   340         CT     19    LEU    CD2    340    -0.4121      12.01
   341         HC     19    LEU   HD21    341        0.1      1.008
   342         HC     19    LEU   HD22    342        0.1      1.008
   343         HC     19    LEU   HD23    343        0.1      1.008
   344          C     19    LEU      C    344     0.5973      12.01
   345          O     19    LEU      O    345    -0.5679         16   ; qtot 1
; residue  20 ILE rtp ILE  q  0.0
   346          N     20    ILE      N    346    -0.4157      14.01
   347          H     20    ILE      H    347     0.2719      1.008
   348         CT     20    ILE     CA    348    -0.0597      12.01
   349         H1     20    ILE     HA    349     0.0869      1.008
   350         CT     20    ILE     CB    350     0.1303      12.01
   351         HC     20    ILE     HB    351     0.0187      1.008
   352         CT     20    ILE    CG2    352    -0.3204      12.01
   353         HC     20    ILE   HG21    353     0.0882      1.008
   354         HC     20    ILE   HG22    354     0.0882      1.008
   355         HC     20    ILE   HG23    355     0.0882      1.008
   356         CT     20    ILE    CG1    356     -0.043      12.01
   357         HC     20    ILE   HG11    357     0.0236      1.008
   358         HC     20    ILE   HG12    358     0.0236      1.008
   359         CT     20    ILE     CD    359     -0.066      12.01
   360         HC     20    ILE    HD1    360     0.0186      1.008
   361         HC     20    ILE    HD2    361     0.0186      1.008
   362         HC     20    ILE    HD3    362     0.0186      1.008
   363          C     20    ILE      C    363     0.5973      12.01
   364          O     20    ILE      O    364    -0.5679         16   ; qtot 1
; residue  21 LEU rtp CLEU q -1.0
   365          N     21    LEU      N    365    -0.3821      14.01
   366          H     21    LEU      H    366     0.2681      1.008
   367         CT     21    LEU     CA    367    -0.2847      12.01
   368         H1     21    LEU     HA    368     0.1346      1.008
   369         CT     21    LEU     CB    369    -0.2469      12.01
   370         HC     21    LEU    HB1    370     0.0974      1.008
   371         HC     21    LEU    HB2    371     0.0974      1.008
   372         CT     21    LEU     CG    372     0.3706      12.01
   373         HC     21    LEU     HG    373    -0.0374      1.008
   374         CT     21    LEU    CD1    374    -0.4163      12.01
   375         HC     21    LEU   HD11    375     0.1038      1.008
   376         HC     21    LEU   HD12    376     0.1038      1.008
   377         HC     21    LEU   HD13    377     0.1038      1.008
   378         CT     21    LEU    CD2    378    -0.4163      12.01
   379         HC     21    LEU   HD21    379     0.1038      1.008
   380         HC     21    LEU   HD22    380     0.1038      1.008
   381         HC     21    LEU   HD23    381     0.1038      1.008
   382          C     21    LEU      C    382     0.8326      12.01
   383         O2     21    LEU    OC1    383    -0.8199         16
   384         O2     21    LEU    OC2    384    -0.8199         16   ; qtot 0

[ bonds ]
;  ai    aj funct            c0            c1            c2            c3
    1     2     1 
    1     3     1 
    1     4     1 
    1     5     1 
    5     6     1 
    5     7     1 
    5    20     1 
    7     8     1 
    7     9     1 
    7    10     1 
   10    11     1 
   10    12     1 
   10    16     1 
   12    13     1 
   12    14     1 
   12    15     1 
   16    17     1 
   16    18     1 
   16    19     1 
   20    21     1 
   20    22     1 
   22    23     1 
   22    24     1 
   24    25     1 
   24    26     1 
   24    39     1 
   26    27     1 
   26    28     1 
   26    32     1 
   28    29     1 
   28    30     1 
   28    31     1 
   32    33     1 
   32    34     1 
   32    35     1 
   35    36     1 
   35    37     1 
   35    38     1 
   39    40     1 
   39    41     1 
   41    42     1 
   41    43     1 
   43    44     1 
   43    45     1 
   43    58     1 
   45    46     1 
   45    47     1 
   45    48     1 
   48    49     1 
   48    50     1 
   48    54     1 
   50    51     1 
   50    52     1 
   50    53     1 
   54    55     1 
   54    56     1 
   54    57     1 
   58    59     1 
   58    60     1 
   60    61     1 
   60    62     1 
   62    63     1 
   62    64     1 
   62    77     1 
   64    65     1 
   64    66     1 
   64    67     1 
   67    68     1 
   67    69     1 
   67    73     1 
   69    70     1 
   69    71     1 
   69    72     1 
   73    74     1 
   73    75     1 
   73    76     1 
   77    78     1 
   77    79     1 
   79    80     1 
   79    81     1 
   81    82     1 
   81    83     1 
   81    93     1 
   83    84     1 
   83    85     1 
   83    89     1 
   85    86     1 
   85    87     1 
   85    88     1 
   89    90     1 
   89    91     1 
   89    92     1 
   93    94     1 
   93    95     1 
   95    96     1 
   95    97     1 
   97    98     1 
   97    99     1 
   97   112     1 
   99   100     1 
   99   101     1 
   99   102     1 
  102   103     1 
  102   104     1 
  102   108     1 
  104   105     1 
  104   106     1 
  104   107     1 
  108   109     1 
  108   110     1 
  108   111     1 
  112   113     1 
  112   114     1 
  114   115     1 
  114   116     1 
  116   117     1 
  116   118     1 
  116   128     1 
  118   119     1 
  118   120     1 
  118   124     1 
  120   121     1 
  120   122     1 
  120   123     1 
  124   125     1 
  124   126     1 
  124   127     1 
  128   129     1 
  128   130     1 
  130   131     1 
  130   132     1 
  132   133     1 
  132   134     1 
  132   147     1 
  134   135     1 
  134   136     1 
  134   137     1 
  137   138     1 
  137   139     1 
  137   143     1 
  139   140     1 
  139   141     1 
  139   142     1 
  143   144     1 
  143   145     1 
  143   146     1 
  147   148     1 
  147   149     1 
  149   150     1 
  149   151     1 
  151   152     1 
  151   153     1 
  151   166     1 
  153   154     1 
  153   155     1 
  153   159     1 
  155   156     1 
  155   157     1 
  155   158     1 
  159   160     1 
  159   161     1 
  159   162     1 
  162   163     1 
  162   164     1 
  162   165     1 
  166   167     1 
  166   168     1 
  168   169     1 
  168   170     1 
  170   171     1 
  170   172     1 
  170   182     1 
  172   173     1 
  172   174     1 
  172   178     1 
  174   175     1 
  174   176     1 
  174   177     1 
  178   179     1 
  178   180     1 
  178   181     1 
  182   183     1 
  182   184     1 
  184   185     1 
  184   186     1 
  186   187     1 
  186   188     1 
  186   198     1 
  188   189     1 
  188   190     1 
  188   194     1 
  190   191     1 
  190   192     1 
  190   193     1 
  194   195     1 
  194   196     1 
  194   197     1 
  198   199     1 
  198   200     1 
  200   201     1 
  200   202     1 
  202   203     1 
  202   204     1 
  202   214     1 
  204   205     1 
  204   206     1 
  204   210     1 
  206   207     1 
  206   208     1 
  206   209     1 
  210   211     1 
  210   212     1 
  210   213     1 
  214   215     1 
  214   216     1 
  216   217     1 
  216   218     1 
  218   219     1 
  218   220     1 
  218   233     1 
  220   221     1 
  220   222     1 
  220   223     1 
  223   224     1 
  223   225     1 
  223   229     1 
  225   226     1 
  225   227     1 
  225   228     1 
  229   230     1 
  229   231     1 
  229   232     1 
  233   234     1 
  233   235     1 
  235   236     1 
  235   237     1 
  237   238     1 
  237   239     1 
  237   249     1 
  239   240     1 
  239   241     1 
  239   245     1 
  241   242     1 
  241   243     1 
  241   244     1 
  245   246     1 
  245   247     1 
  245   248     1 
  249   250     1 
  249   251     1 
  251   252     1 
  251   253     1 
  253   254     1 
  253   255     1 
  253   268     1 
  255   256     1 
  255   257     1 
  255   258     1 
  258   259     1 
  258   260     1 
  258   264     1 
  260   261     1 
  260   262     1 
  260   263     1 
  264   265     1 
  264   266     1 
  264   267     1 
  268   269     1 
  268   270     1 
  270   271     1 
  270   272     1 
  272   273     1 
  272   274     1 
  272   287     1 
  274   275     1 
  274   276     1 
  274   277     1 
  277   278     1 
  277   279     1 
  277   283     1 
  279   280     1 
  279   281     1 
  279   282     1 
  283   284     1 
  283   285     1 
  283   286     1 
  287   288     1 
  287   289     1 
  289   290     1 
  289   291     1 
  291   292     1 
  291   293     1 
  291   306     1 
  293   294     1 
  293   295     1 
  293   296     1 
  296   297     1 
  296   298     1 
  296   302     1 
  298   299     1 
  298   300     1 
  298   301     1 
  302   303     1 
  302   304     1 
  302   305     1 
  306   307     1 
  306   308     1 
  308   309     1 
  308   310     1 
  310   311     1 
  310   312     1 
  310   325     1 
  312   313     1 
  312   314     1 
  312   315     1 
  315   316     1 
  315   317     1 
  315   321     1 
  317   318     1 
  317   319     1 
  317   320     1 
  321   322     1 
  321   323     1 
  321   324     1 
  325   326     1 
  325   327     1 
  327   328     1 
  327   329     1 
  329   330     1 
  329   331     1 
  329   344     1 
  331   332     1 
  331   333     1 
  331   334     1 
  334   335     1 
  334   336     1 
  334   340     1 
  336   337     1 
  336   338     1 
  336   339     1 
  340   341     1 
  340   342     1 
  340   343     1 
  344   345     1 
  344   346     1 
  346   347     1 
  346   348     1 
  348   349     1 
  348   350     1 
  348   363     1 
  350   351     1 
  350   352     1 
  350   356     1 
  352   353     1 
  352   354     1 
  352   355     1 
  356   357     1 
  356   358     1 
  356   359     1 
  359   360     1 
  359   361     1 
  359   362     1 
  363   364     1 
  363   365     1 
  365   366     1 
  365   367     1 
  367   368     1 
  367   369     1 
  367   382     1 
  369   370     1 
  369   371     1 
  369   372     1 
  372   373     1 
  372   374     1 
  372   378     1 
  374   375     1 
  374   376     1 
  374   377     1 
  378   379     1 
  378   380     1 
  378   381     1 
  382   383     1 
  382   384     1 

[ pairs ]
;  ai    aj funct            c0            c1            c2            c3
    1     8     1 
    1     9     1 
    1    10     1 
    1    21     1 
    1    22     1 
    2     6     1 
    2     7     1 
    2    20     1 
    3     6     1 
    3     7     1 
    3    20     1 
    4     6     1 
    4     7     1 
    4    20     1 
    5    11     1 
    5    12     1 
    5    16     1 
    5    23     1 
    5    24     1 
    6     8     1 
    6     9     1 
    6    10     1 
    6    21     1 
    6    22     1 
    7    13     1 
    7    14     1 
    7    15     1 
    7    17     1 
    7    18     1 
    7    19     1 
    7    21     1 
    7    22     1 
    8    11     1 
    8    12     1 
    8    16     1 
    8    20     1 
    9    11     1 
    9    12     1 
    9    16     1 
    9    20     1 
   10    20     1 
   11    13     1 
   11    14     1 
   11    15     1 
   11    17     1 
   11    18     1 
   11    19     1 
   12    17     1 
   12    18     1 
   12    19     1 
   13    16     1 
   14    16     1 
   15    16     1 
   20    25     1 
   20    26     1 
   20    39     1 
   21    23     1 
   21    24     1 
   22    27     1 
   22    28     1 
   22    32     1 
   22    40     1 
   22    41     1 
   23    25     1 
   23    26     1 
   23    39     1 
   24    29     1 
   24    30     1 
   24    31     1 
   24    33     1 
   24    34     1 
   24    35     1 
   24    42     1 
   24    43     1 
   25    27     1 
   25    28     1 
   25    32     1 
   25    40     1 
   25    41     1 
   26    36     1 
   26    37     1 
   26    38     1 
   26    40     1 
   26    41     1 
   27    29     1 
   27    30     1 
   27    31     1 
   27    33     1 
   27    34     1 
   27    35     1 
   27    39     1 
   28    33     1 
   28    34     1 
   28    35     1 
   28    39     1 
   29    32     1 
   30    32     1 
   31    32     1 
   32    39     1 
   33    36     1 
   33    37     1 
   33    38     1 
   34    36     1 
   34    37     1 
   34    38     1 
   39    44     1 
   39    45     1 
   39    58     1 
   40    42     1 
   40    43     1 
   41    46     1 
   41    47     1 
   41    48     1 
   41    59     1 
   41    60     1 
   42    44     1 
   42    45     1 
   42    58     1 
   43    49     1 
   43    50     1 
   43    54     1 
   43    61     1 
   43    62     1 
   44    46     1 
   44    47     1 
   44    48     1 
   44    59     1 
   44    60     1 
   45    51     1 
   45    52     1 
   45    53     1 
   45    55     1 
   45    56     1 
   45    57     1 
   45    59     1 
   45    60     1 
   46    49     1 
   46    50     1 
   46    54     1 
   46    58     1 
   47    49     1 
   47    50     1 
   47    54     1 
   47    58     1 
   48    58     1 
   49    51     1 
   49    52     1 
   49    53     1 
   49    55     1 
   49    56     1 
   49    57     1 
   50    55     1 
   50    56     1 
   50    57     1 
   51    54     1 
   52    54     1 
   53    54     1 
   58    63     1 
   58    64     1 
   58    77     1 
   59    61     1 
   59    62     1 
   60    65     1 
   60    66     1 
   60    67     1 
   60    78     1 
   60    79     1 
   61    63     1 
   61    64     1 
   61    77     1 
   62    68     1 
   62    69     1 
   62    73     1 
   62    80     1 
   62    81     1 
   63    65     1 
   63    66     1 
   63    67     1 
   63    78     1 
   63    79     1 
   64    70     1 
   64    71     1 
   64    72     1 
   64    74     1 
   64    75     1 
   64    76     1 
   64    78     1 
   64    79     1 
   65    68     1 
   65    69     1 
   65    73     1 
   65    77     1 
   66    68     1 
   66    69     1 
   66    73     1 
   66    77     1 
   67    77     1 
   68    70     1 
   68    71     1 
   68    72     1 
   68    74     1 
   68    75     1 
   68    76     1 
   69    74     1 
   69    75     1 
   69    76     1 
   70    73     1 
   71    73     1 
   72    73     1 
   77    82     1 
   77    83     1 
   77    93     1 
   78    80     1 
   78    81     1 
   79    84     1 
   79    85     1 
   79    89     1 
   79    94     1 
   79    95     1 
   80    82     1 
   80    83     1 
   80    93     1 
   81    86     1 
   81    87     1 
   81    88     1 
   81    90     1 
   81    91     1 
   81    92     1 
   81    96     1 
   81    97     1 
   82    84     1 
   82    85     1 
   82    89     1 
   82    94     1 
   82    95     1 
   83    94     1 
   83    95     1 
   84    86     1 
   84    87     1 
   84    88     1 
   84    90     1 
   84    91     1 
   84    92     1 
   84    93     1 
   85    90     1 
   85    91     1 
   85    92     1 
   85    93     1 
   86    89     1 
   87    89     1 
   88    89     1 
   89    93     1 
   93    98     1 
   93    99     1 
   93   112     1 
   94    96     1 
   94    97     1 
   95   100     1 
   95   101     1 
   95   102     1 
   95   113     1 
   95   114     1 
   96    98     1 
   96    99     1 
   96   112     1 
   97   103     1 
   97   104     1 
   97   108     1 
   97   115     1 
   97   116     1 
   98   100     1 
   98   101     1 
   98   102     1 
   98   113     1 
   98   114     1 
   99   105     1 
   99   106     1 
   99   107     1 
   99   109     1 
   99   110     1 
   99   111     1 
   99   113     1 
   99   114     1 
  100   103     1 
  100   104     1 
  100   108     1 
  100   112     1 
  101   103     1 
  101   104     1 
  101   108     1 
  101   112     1 
  102   112     1 
  103   105     1 
  103   106     1 
  103   107     1 
  103   109     1 
  103   110     1 
  103   111     1 
  104   109     1 
  104   110     1 
  104   111     1 
  105   108     1 
  106   108     1 
  107   108     1 
  112   117     1 
  112   118     1 
  112   128     1 
  113   115     1 
  113   116     1 
  114   119     1 
  114   120     1 
  114   124     1 
  114   129     1 
  114   130     1 
  115   117     1 
  115   118     1 
  115   128     1 
  116   121     1 
  116   122     1 
  116   123     1 
  116   125     1 
  116   126     1 
  116   127     1 
  116   131     1 
  116   132     1 
  117   119     1 
  117   120     1 
  117   124     1 
  117   129     1 
  117   130     1 
  118   129     1 
  118   130     1 
  119   121     1 
  119   122     1 
  119   123     1 
  119   125     1 
  119   126     1 
  119   127     1 
  119   128     1 
  120   125     1 
  120   126     1 
  120   127     1 
  120   128     1 
  121   124     1 
  122   124     1 
  123   124     1 
  124   128     1 
  128   133     1 
  128   134     1 
  128   147     1 
  129   131     1 
  129   132     1 
  130   135     1 
  130   136     1 
  130   137     1 
  130   148     1 
  130   149     1 
  131   133     1 
  131   134     1 
  131   147     1 
  132   138     1 
  132   139     1 
  132   143     1 
  132   150     1 
  132   151     1 
  133   135     1 
  133   136     1 
  133   137     1 
  133   148     1 
  133   149     1 
  134   140     1 
  134   141     1 
  134   142     1 
  134   144     1 
  134   145     1 
  134   146     1 
  134   148     1 
  134   149     1 
  135   138     1 
  135   139     1 
  135   143     1 
  135   147     1 
  136   138     1 
  136   139     1 
  136   143     1 
  136   147     1 
  137   147     1 
  138   140     1 
  138   141     1 
  138   142     1 
  138   144     1 
  138   145     1 
  138   146     1 
  139   144     1 
  139   145     1 
  139   146     1 
  140   143     1 
  141   143     1 
  142   143     1 
  147   152     1 
  147   153     1 
  147   166     1 
  148   150     1 
  148   151     1 
  149   154     1 
  149   155     1 
  149   159     1 
  149   167     1 
  149   168     1 
  150   152     1 
  150   153     1 
  150   166     1 
  151   156     1 
  151   157     1 
  151   158     1 
  151   160     1 
  151   161     1 
  151   162     1 
  151   169     1 
  151   170     1 
  152   154     1 
  152   155     1 
  152   159     1 
  152   167     1 
  152   168     1 
  153   163     1 
  153   164     1 
  153   165     1 
  153   167     1 
  153   168     1 
  154   156     1 
  154   157     1 
  154   158     1 
  154   160     1 
  154   161     1 
  154   162     1 
  154   166     1 
  155   160     1 
  155   161     1 
  155   162     1 
  155   166     1 
  156   159     1 
  157   159     1 
  158   159     1 
  159   166     1 
  160   163     1 
  160   164     1 
  160   165     1 
  161   163     1 
  161   164     1 
  161   165     1 
  166   171     1 
  166   172     1 
  166   182     1 
  167   169     1 
  167   170     1 
  168   173     1 
  168   174     1 
  168   178     1 
  168   183     1 
  168   184     1 
  169   171     1 
  169   172     1 
  169   182     1 
  170   175     1 
  170   176     1 
  170   177     1 
  170   179     1 
  170   180     1 
  170   181     1 
  170   185     1 
  170   186     1 
  171   173     1 
  171   174     1 
  171   178     1 
  171   183     1 
  171   184     1 
  172   183     1 
  172   184     1 
  173   175     1 
  173   176     1 
  173   177     1 
  173   179     1 
  173   180     1 
  173   181     1 
  173   182     1 
  174   179     1 
  174   180     1 
  174   181     1 
  174   182     1 
  175   178     1 
  176   178     1 
  177   178     1 
  178   182     1 
  182   187     1 
  182   188     1 
  182   198     1 
  183   185     1 
  183   186     1 
  184   189     1 
  184   190     1 
  184   194     1 
  184   199     1 
  184   200     1 
  185   187     1 
  185   188     1 
  185   198     1 
  186   191     1 
  186   192     1 
  186   193     1 
  186   195     1 
  186   196     1 
  186   197     1 
  186   201     1 
  186   202     1 
  187   189     1 
  187   190     1 
  187   194     1 
  187   199     1 
  187   200     1 
  188   199     1 
  188   200     1 
  189   191     1 
  189   192     1 
  189   193     1 
  189   195     1 
  189   196     1 
  189   197     1 
  189   198     1 
  190   195     1 
  190   196     1 
  190   197     1 
  190   198     1 
  191   194     1 
  192   194     1 
  193   194     1 
  194   198     1 
  198   203     1 
  198   204     1 
  198   214     1 
  199   201     1 
  199   202     1 
  200   205     1 
  200   206     1 
  200   210     1 
  200   215     1 
  200   216     1 
  201   203     1 
  201   204     1 
  201   214     1 
  202   207     1 
  202   208     1 
  202   209     1 
  202   211     1 
  202   212     1 
  202   213     1 
  202   217     1 
  202   218     1 
  203   205     1 
  203   206     1 
  203   210     1 
  203   215     1 
  203   216     1 
  204   215     1 
  204   216     1 
  205   207     1 
  205   208     1 
  205   209     1 
  205   211     1 
  205   212     1 
  205   213     1 
  205   214     1 
  206   211     1 
  206   212     1 
  206   213     1 
  206   214     1 
  207   210     1 
  208   210     1 
  209   210     1 
  210   214     1 
  214   219     1 
  214   220     1 
  214   233     1 
  215   217     1 
  215   218     1 
  216   221     1 
  216   222     1 
  216   223     1 
  216   234     1 
  216   235     1 
  217   219     1 
  217   220     1 
  217   233     1 
  218   224     1 
  218   225     1 
  218   229     1 
  218   236     1 
  218   237     1 
  219   221     1 
  219   222     1 
  219   223     1 
  219   234     1 
  219   235     1 
  220   226     1 
  220   227     1 
  220   228     1 
  220   230     1 
  220   231     1 
  220   232     1 
  220   234     1 
  220   235     1 
  221   224     1 
  221   225     1 
  221   229     1 
  221   233     1 
  222   224     1 
  222   225     1 
  222   229     1 
  222   233     1 
  223   233     1 
  224   226     1 
  224   227     1 
  224   228     1 
  224   230     1 
  224   231     1 
  224   232     1 
  225   230     1 
  225   231     1 
  225   232     1 
  226   229     1 
  227   229     1 
  228   229     1 
  233   238     1 
  233   239     1 
  233   249     1 
  234   236     1 
  234   237     1 
  235   240     1 
  235   241     1 
  235   245     1 
  235   250     1 
  235   251     1 
  236   238     1 
  236   239     1 
  236   249     1 
  237   242     1 
  237   243     1 
  237   244     1 
  237   246     1 
  237   247     1 
  237   248     1 
  237   252     1 
  237   253     1 
  238   240     1 
  238   241     1 
  238   245     1 
  238   250     1 
  238   251     1 
  239   250     1 
  239   251     1 
  240   242     1 
  240   243     1 
  240   244     1 
  240   246     1 
  240   247     1 
  240   248     1 
  240   249     1 
  241   246     1 
  241   247     1 
  241   248     1 
  241   249     1 
  242   245     1 
  243   245     1 
  244   245     1 
  245   249     1 
  249   254     1 
  249   255     1 
  249   268     1 
  250   252     1 
  250   253     1 
  251   256     1 
  251   257     1 
  251   258     1 
  251   269     1 
  251   270     1 
  252   254     1 
  252   255     1 
  252   268     1 
  253   259     1 
  253   260     1 
  253   264     1 
  253   271     1 
  253   272     1 
  254   256     1 
  254   257     1 
  254   258     1 
  254   269     1 
  254   270     1 
  255   261     1 
  255   262     1 
  255   263     1 
  255   265     1 
  255   266     1 
  255   267     1 
  255   269     1 
  255   270     1 
  256   259     1 
  256   260     1 
  256   264     1 
  256   268     1 
  257   259     1 
  257   260     1 
  257   264     1 
  257   268     1 
  258   268     1 
  259   261     1 
  259   262     1 
  259   263     1 
  259   265     1 
  259   266     1 
  259   267     1 
  260   265     1 
  260   266     1 
  260   267     1 
  261   264     1 
  262   264     1 
  263   264     1 
  268   273     1 
  268   274     1 
  268   287     1 
  269   271     1 
  269   272     1 
  270   275     1 
  270   276     1 
  270   277     1 
  270   288     1 
  270   289     1 
  271   273     1 
  271   274     1 
  271   287     1 
  272   278     1 
  272   279     1 
  272   283     1 
  272   290     1 
  272   291     1 
  273   275     1 
  273   276     1 
  273   277     1 
  273   288     1 
  273   289     1 
  274   280     1 
  274   281     1 
  274   282     1 
  274   284     1 
  274   285     1 
  274   286     1 
  274   288     1 
  274   289     1 
  275   278     1 
  275   279     1 
  275   283     1 
  275   287     1 
  276   278     1 
  276   279     1 
  276   283     1 
  276   287     1 
  277   287     1 
  278   280     1 
  278   281     1 
  278   282     1 
  278   284     1 
  278   285     1 
  278   286     1 
  279   284     1 
  279   285     1 
  279   286     1 
  280   283     1 
  281   283     1 
  282   283     1 
  287   292     1 
  287   293     1 
  287   306     1 
  288   290     1 
  288   291     1 
  289   294     1 
  289   295     1 
  289   296     1 
  289   307     1 
  289   308     1 
  290   292     1 
  290   293     1 
  290   306     1 
  291   297     1 
  291   298     1 
  291   302     1 
  291   309     1 
  291   310     1 
  292   294     1 
  292   295     1 
  292   296     1 
  292   307     1 
  292   308     1 
  293   299     1 
  293   300     1 
  293   301     1 
  293   303     1 
  293   304     1 
  293   305     1 
  293   307     1 
  293   308     1 
  294   297     1 
  294   298     1 
  294   302     1 
  294   306     1 
  295   297     1 
  295   298     1 
  295   302     1 
  295   306     1 
  296   306     1 
  297   299     1 
  297   300     1 
  297   301     1 
  297   303     1 
  297   304     1 
  297   305     1 
  298   303     1 
  298   304     1 
  298   305     1 
  299   302     1 
  300   302     1 
  301   302     1 
  306   311     1 
  306   312     1 
  306   325     1 
  307   309     1 
  307   310     1 
  308   313     1 
  308   314     1 
  308   315     1 
  308   326     1 
  308   327     1 
  309   311     1 
  309   312     1 
  309   325     1 
  310   316     1 
  310   317     1 
  310   321     1 
  310   328     1 
  310   329     1 
  311   313     1 
  311   314     1 
  311   315     1 
  311   326     1 
  311   327     1 
  312   318     1 
  312   319     1 
  312   320     1 
  312   322     1 
  312   323     1 
  312   324     1 
  312   326     1 
  312   327     1 
  313   316     1 
  313   317     1 
  313   321     1 
  313   325     1 
  314   316     1 
  314   317     1 
  314   321     1 
  314   325     1 
  315   325     1 
  316   318     1 
  316   319     1 
  316   320     1 
  316   322     1 
  316   323     1 
  316   324     1 
  317   322     1 
  317   323     1 
  317   324     1 
  318   321     1 
  319   321     1 
  320   321     1 
  325   330     1 
  325   331     1 
  325   344     1 
  326   328     1 
  326   329     1 
  327   332     1 
  327   333     1 
  327   334     1 
  327   345     1 
  327   346     1 
  328   330     1 
  328   331     1 
  328   344     1 
  329   335     1 
  329   336     1 
  329   340     1 
  329   347     1 
  329   348     1 
  330   332     1 
  330   333     1 
  330   334     1 
  330   345     1 
  330   346     1 
  331   337     1 
  331   338     1 
  331   339     1 
  331   341     1 
  331   342     1 
  331   343     1 
  331   345     1 
  331   346     1 
  332   335     1 
  332   336     1 
  332   340     1 
  332   344     1 
  333   335     1 
  333   336     1 
  333   340     1 
  333   344     1 
  334   344     1 
  335   337     1 
  335   338     1 
  335   339     1 
  335   341     1 
  335   342     1 
  335   343     1 
  336   341     1 
  336   342     1 
  336   343     1 
  337   340     1 
  338   340     1 
  339   340     1 
  344   349     1 
  344   350     1 
  344   363     1 
  345   347     1 
  345   348     1 
  346   351     1 
  346   352     1 
  346   356     1 
  346   364     1 
  346   365     1 
  347   349     1 
  347   350     1 
  347   363     1 
  348   353     1 
  348   354     1 
  348   355     1 
  348   357     1 
  348   358     1 
  348   359     1 
  348   366     1 
  348   367     1 
  349   351     1 
  349   352     1 
  349   356     1 
  349   364     1 
  349   365     1 
  350   360     1 
  350   361     1 
  350   362     1 
  350   364     1 
  350   365     1 
  351   353     1 
  351   354     1 
  351   355     1 
  351   357     1 
  351   358     1 
  351   359     1 
  351   363     1 
  352   357     1 
  352   358     1 
  352   359     1 
  352   363     1 
  353   356     1 
  354   356     1 
  355   356     1 
  356   363     1 
  357   360     1 
  357   361     1 
  357   362     1 
  358   360     1 
  358   361     1 
  358   362     1 
  363   368     1 
  363   369     1 
  363   382     1 
  364   366     1 
  364   367     1 
  365   370     1 
  365   371     1 
  365   372     1 
  365   383     1 
  365   384     1 
  366   368     1 
  366   369     1 
  366   382     1 
  367   373     1 
  367   374     1 
  367   378     1 
  368   370     1 
  368   371     1 
  368   372     1 
  368   383     1 
  368   384     1 
  369   375     1 
  369   376     1 
  369   377     1 
  369   379     1 
  369   380     1 
  369   381     1 
  369   383     1 
  369   384     1 
  370   373     1 
  370   374     1 
  370   378     1 
  370   382     1 
  371   373     1 
  371   374     1 
  371   378     1 
  371   382     1 
  372   382     1 
  373   375     1 
  373   376     1 
  373   377     1 
  373   379     1 
  373   380     1 
  373   381     1 
  374   379     1 
  374   380     1 
  374   381     1 
  375   378     1 
  376   378     1 
  377   378     1 

[ angles ]
;  ai    aj    ak funct            c0            c1            c2            c3
    2     1     3     1 
    2     1     4     1 
    2     1     5     1 
    3     1     4     1 
    3     1     5     1 
    4     1     5     1 
    1     5     6     1 
    1     5     7     1 
    1     5    20     1 
    6     5     7     1 
    6     5    20     1 
    7     5    20     1 
    5     7     8     1 
    5     7     9     1 
    5     7    10     1 
    8     7     9     1 
    8     7    10     1 
    9     7    10     1 
    7    10    11     1 
    7    10    12     1 
    7    10    16     1 
   11    10    12     1 
   11    10    16     1 
   12    10    16     1 
   10    12    13     1 
   10    12    14     1 
   10    12    15     1 
   13    12    14     1 
   13    12    15     1 
   14    12    15     1 
   10    16    17     1 
   10    16    18     1 
   10    16    19     1 
   17    16    18     1 
   17    16    19     1 
   18    16    19     1 
    5    20    21     1 
    5    20    22     1 
   21    20    22     1 
   20    22    23     1 
   20    22    24     1 
   23    22    24     1 
   22    24    25     1 
   22    24    26     1 
   22    24    39     1 
   25    24    26     1 
   25    24    39     1 
   26    24    39     1 
   24    26    27     1 
   24    26    28     1 
   24    26    32     1 
   27    26    28     1 
   27    26    32     1 
   28    26    32     1 
   26    28    29     1 
   26    28    30     1 
   26    28    31     1 
   29    28    30     1 
   29    28    31     1 
   30    28    31     1 
   26    32    33     1 
   26    32    34     1 
   26    32    35     1 
   33    32    34     1 
   33    32    35     1 
   34    32    35     1 
   32    35    36     1 
   32    35    37     1 
   32    35    38     1 
   36    35    37     1 
   36    35    38     1 
   37    35    38     1 
   24    39    40     1 
   24    39    41     1 
   40    39    41     1 
   39    41    42     1 
   39    41    43     1 
   42    41    43     1 
   41    43    44     1 
   41    43    45     1 
   41    43    58     1 
   44    43    45     1 
   44    43    58     1 
   45    43    58     1 
   43    45    46     1 
   43    45    47     1 
   43    45    48     1 
   46    45    47     1 
   46    45    48     1 
   47    45    48     1 
   45    48    49     1 
   45    48    50     1 
   45    48    54     1 
   49    48    50     1 
   49    48    54     1 
   50    48    54     1 
   48    50    51     1 
   48    50    52     1 
   48    50    53     1 
   51    50    52     1 
   51    50    53     1 
   52    50    53     1 
   48    54    55     1 
   48    54    56     1 
   48    54    57     1 
   55    54    56     1 
   55    54    57     1 
   56    54    57     1 
   43    58    59     1 
   43    58    60     1 
   59    58    60     1 
   58    60    61     1 
   58    60    62     1 
   61    60    62     1 
   60    62    63     1 
   60    62    64     1 
   60    62    77     1 
   63    62    64     1 
   63    62    77     1 
   64    62    77     1 
   62    64    65     1 
   62    64    66     1 
   62    64    67     1 
   65    64    66     1 
   65    64    67     1 
   66    64    67     1 
   64    67    68     1 
   64    67    69     1 
   64    67    73     1 
   68    67    69     1 
   68    67    73     1 
   69    67    73     1 
   67    69    70     1 
   67    69    71     1 
   67    69    72     1 
   70    69    71     1 
   70    69    72     1 
   71    69    72     1 
   67    73    74     1 
   67    73    75     1 
   67    73    76     1 
   74    73    75     1 
   74    73    76     1 
   75    73    76     1 
   62    77    78     1 
   62    77    79     1 
   78    77    79     1 
   77    79    80     1 
   77    79    81     1 
   80    79    81     1 
   79    81    82     1 
   79    81    83     1 
   79    81    93     1 
   82    81    83     1 
   82    81    93     1 
   83    81    93     1 
   81    83    84     1 
   81    83    85     1 
   81    83    89     1 
   84    83    85     1 
   84    83    89     1 
   85    83    89     1 
   83    85    86     1 
   83    85    87     1 
   83    85    88     1 
   86    85    87     1 
   86    85    88     1 
   87    85    88     1 
   83    89    90     1 
   83    89    91     1 
   83    89    92     1 
   90    89    91     1 
   90    89    92     1 
   91    89    92     1 
   81    93    94     1 
   81    93    95     1 
   94    93    95     1 
   93    95    96     1 
   93    95    97     1 
   96    95    97     1 
   95    97    98     1 
   95    97    99     1 
   95    97   112     1 
   98    97    99     1 
   98    97   112     1 
   99    97   112     1 
   97    99   100     1 
   97    99   101     1 
   97    99   102     1 
  100    99   101     1 
  100    99   102     1 
  101    99   102     1 
   99   102   103     1 
   99   102   104     1 
   99   102   108     1 
  103   102   104     1 
  103   102   108     1 
  104   102   108     1 
  102   104   105     1 
  102   104   106     1 
  102   104   107     1 
  105   104   106     1 
  105   104   107     1 
  106   104   107     1 
  102   108   109     1 
  102   108   110     1 
  102   108   111     1 
  109   108   110     1 
  109   108   111     1 
  110   108   111     1 
   97   112   113     1 
   97   112   114     1 
  113   112   114     1 
  112   114   115     1 
  112   114   116     1 
  115   114   116     1 
  114   116   117     1 
  114   116   118     1 
  114   116   128     1 
  117   116   118     1 
  117   116   128     1 
  118   116   128     1 
  116   118   119     1 
  116   118   120     1 
  116   118   124     1 
  119   118   120     1 
  119   118   124     1 
  120   118   124     1 
  118   120   121     1 
  118   120   122     1 
  118   120   123     1 
  121   120   122     1 
  121   120   123     1 
  122   120   123     1 
  118   124   125     1 
  118   124   126     1 
  118   124   127     1 
  125   124   126     1 
  125   124   127     1 
  126   124   127     1 
  116   128   129     1 
  116   128   130     1 
  129   128   130     1 
  128   130   131     1 
  128   130   132     1 
  131   130   132     1 
  130   132   133     1 
  130   132   134     1 
  130   132   147     1 
  133   132   134     1 
  133   132   147     1 
  134   132   147     1 
  132   134   135     1 
  132   134   136     1 
  132   134   137     1 
  135   134   136     1 
  135   134   137     1 
  136   134   137     1 
  134   137   138     1 
  134   137   139     1 
  134   137   143     1 
  138   137   139     1 
  138   137   143     1 
  139   137   143     1 
  137   139   140     1 
  137   139   141     1 
  137   139   142     1 
  140   139   141     1 
  140   139   142     1 
  141   139   142     1 
  137   143   144     1 
  137   143   145     1 
  137   143   146     1 
  144   143   145     1 
  144   143   146     1 
  145   143   146     1 
  132   147   148     1 
  132   147   149     1 
  148   147   149     1 
  147   149   150     1 
  147   149   151     1 
  150   149   151     1 
  149   151   152     1 
  149   151   153     1 
  149   151   166     1 
  152   151   153     1 
  152   151   166     1 
  153   151   166     1 
  151   153   154     1 
  151   153   155     1 
  151   153   159     1 
  154   153   155     1 
  154   153   159     1 
  155   153   159     1 
  153   155   156     1 
  153   155   157     1 
  153   155   158     1 
  156   155   157     1 
  156   155   158     1 
  157   155   158     1 
  153   159   160     1 
  153   159   161     1 
  153   159   162     1 
  160   159   161     1 
  160   159   162     1 
  161   159   162     1 
  159   162   163     1 
  159   162   164     1 
  159   162   165     1 
  163   162   164     1 
  163   162   165     1 
  164   162   165     1 
  151   166   167     1 
  151   166   168     1 
  167   166   168     1 
  166   168   169     1 
  166   168   170     1 
  169   168   170     1 
  168   170   171     1 
  168   170   172     1 
  168   170   182     1 
  171   170   172     1 
  171   170   182     1 
  172   170   182     1 
  170   172   173     1 
  170   172   174     1 
  170   172   178     1 
  173   172   174     1 
  173   172   178     1 
  174   172   178     1 
  172   174   175     1 
  172   174   176     1 
  172   174   177     1 
  175   174   176     1 
  175   174   177     1 
  176   174   177     1 
  172   178   179     1 
  172   178   180     1 
  172   178   181     1 
  179   178   180     1 
  179   178   181     1 
  180   178   181     1 
  170   182   183     1 
  170   182   184     1 
  183   182   184     1 
  182   184   185     1 
  182   184   186     1 
  185   184   186     1 
  184   186   187     1 
  184   186   188     1 
  184   186   198     1 
  187   186   188     1 
  187   186   198     1 
  188   186   198     1 
  186   188   189     1 
  186   188   190     1 
  186   188   194     1 
  189   188   190     1 
  189   188   194     1 
  190   188   194     1 
  188   190   191     1 
  188   190   192     1 
  188   190   193     1 
  191   190   192     1 
  191   190   193     1 
  192   190   193     1 
  188   194   195     1 
  188   194   196     1 
  188   194   197     1 
  195   194   196     1 
  195   194   197     1 
  196   194   197     1 
  186   198   199     1 
  186   198   200     1 
  199   198   200     1 
  198   200   201     1 
  198   200   202     1 
  201   200   202     1 
  200   202   203     1 
  200   202   204     1 
  200   202   214     1 
  203   202   204     1 
  203   202   214     1 
  204   202   214     1 
  202   204   205     1 
  202   204   206     1 
  202   204   210     1 
  205   204   206     1 
  205   204   210     1 
  206   204   210     1 
  204   206   207     1 
  204   206   208     1 
  204   206   209     1 
  207   206   208     1 
  207   206   209     1 
  208   206   209     1 
  204   210   211     1 
  204   210   212     1 
  204   210   213     1 
  211   210   212     1 
  211   210   213     1 
  212   210   213     1 
  202   214   215     1 
  202   214   216     1 
  215   214   216     1 
  214   216   217     1 
  214   216   218     1 
  217   216   218     1 
  216   218   219     1 
  216   218   220     1 
  216   218   233     1 
  219   218   220     1 
  219   218   233     1 
  220   218   233     1 
  218   220   221     1 
  218   220   222     1 
  218   220   223     1 
  221   220   222     1 
  221   220   223     1 
  222   220   223     1 
  220   223   224     1 
  220   223   225     1 
  220   223   229     1 
  224   223   225     1 
  224   223   229     1 
  225   223   229     1 
  223   225   226     1 
  223   225   227     1 
  223   225   228     1 
  226   225   227     1 
  226   225   228     1 
  227   225   228     1 
  223   229   230     1 
  223   229   231     1 
  223   229   232     1 
  230   229   231     1 
  230   229   232     1 
  231   229   232     1 
  218   233   234     1 
  218   233   235     1 
  234   233   235     1 
  233   235   236     1 
  233   235   237     1 
  236   235   237     1 
  235   237   238     1 
  235   237   239     1 
  235   237   249     1 
  238   237   239     1 
  238   237   249     1 
  239   237   249     1 
  237   239   240     1 
  237   239   241     1 
  237   239   245     1 
  240   239   241     1 
  240   239   245     1 
  241   239   245     1 
  239   241   242     1 
  239   241   243     1 
  239   241   244     1 
  242   241   243     1 
  242   241   244     1 
  243   241   244     1 
  239   245   246     1 
  239   245   247     1 
  239   245   248     1 
  246   245   247     1 
  246   245   248     1 
  247   245   248     1 
  237   249   250     1 
  237   249   251     1 
  250   249   251     1 
  249   251   252     1 
  249   251   253     1 
  252   251   253     1 
  251   253   254     1 
  251   253   255     1 
  251   253   268     1 
  254   253   255     1 
  254   253   268     1 
  255   253   268     1 
  253   255   256     1 
  253   255   257     1 
  253   255   258     1 
  256   255   257     1 
  256   255   258     1 
  257   255   258     1 
  255   258   259     1 
  255   258   260     1 
  255   258   264     1 
  259   258   260     1 
  259   258   264     1 
  260   258   264     1 
  258   260   261     1 
  258   260   262     1 
  258   260   263     1 
  261   260   262     1 
  261   260   263     1 
  262   260   263     1 
  258   264   265     1 
  258   264   266     1 
  258   264   267     1 
  265   264   266     1 
  265   264   267     1 
  266   264   267     1 
  253   268   269     1 
  253   268   270     1 
  269   268   270     1 
  268   270   271     1 
  268   270   272     1 
  271   270   272     1 
  270   272   273     1 
  270   272   274     1 
  270   272   287     1 
  273   272   274     1 
  273   272   287     1 
  274   272   287     1 
  272   274   275     1 
  272   274   276     1 
  272   274   277     1 
  275   274   276     1 
  275   274   277     1 
  276   274   277     1 
  274   277   278     1 
  274   277   279     1 
  274   277   283     1 
  278   277   279     1 
  278   277   283     1 
  279   277   283     1 
  277   279   280     1 
  277   279   281     1 
  277   279   282     1 
  280   279   281     1 
  280   279   282     1 
  281   279   282     1 
  277   283   284     1 
  277   283   285     1 
  277   283   286     1 
  284   283   285     1 
  284   283   286     1 
  285   283   286     1 
  272   287   288     1 
  272   287   289     1 
  288   287   289     1 
  287   289   290     1 
  287   289   291     1 
  290   289   291     1 
  289   291   292     1 
  289   291   293     1 
  289   291   306     1 
  292   291   293     1 
  292   291   306     1 
  293   291   306     1 
  291   293   294     1 
  291   293   295     1 
  291   293   296     1 
  294   293   295     1 
  294   293   296     1 
  295   293   296     1 
  293   296   297     1 
  293   296   298     1 
  293   296   302     1 
  297   296   298     1 
  297   296   302     1 
  298   296   302     1 
  296   298   299     1 
  296   298   300     1 
  296   298   301     1 
  299   298   300     1 
  299   298   301     1 
  300   298   301     1 
  296   302   303     1 
  296   302   304     1 
  296   302   305     1 
  303   302   304     1 
  303   302   305     1 
  304   302   305     1 
  291   306   307     1 
  291   306   308     1 
  307   306   308     1 
  306   308   309     1 
  306   308   310     1 
  309   308   310     1 
  308   310   311     1 
  308   310   312     1 
  308   310   325     1 
  311   310   312     1 
  311   310   325     1 
  312   310   325     1 
  310   312   313     1 
  310   312   314     1 
  310   312   315     1 
  313   312   314     1 
  313   312   315     1 
  314   312   315     1 
  312   315   316     1 
  312   315   317     1 
  312   315   321     1 
  316   315   317     1 
  316   315   321     1 
  317   315   321     1 
  315   317   318     1 
  315   317   319     1 
  315   317   320     1 
  318   317   319     1 
  318   317   320     1 
  319   317   320     1 
  315   321   322     1 
  315   321   323     1 
  315   321   324     1 
  322   321   323     1 
  322   321   324     1 
  323   321   324     1 
  310   325   326     1 
  310   325   327     1 
  326   325   327     1 
  325   327   328     1 
  325   327   329     1 
  328   327   329     1 
  327   329   330     1 
  327   329   331     1 
  327   329   344     1 
  330   329   331     1 
  330   329   344     1 
  331   329   344     1 
  329   331   332     1 
  329   331   333     1 
  329   331   334     1 
  332   331   333     1 
  332   331   334     1 
  333   331   334     1 
  331   334   335     1 
  331   334   336     1 
  331   334   340     1 
  335   334   336     1 
  335   334   340     1 
  336   334   340     1 
  334   336   337     1 
  334   336   338     1 
  334   336   339     1 
  337   336   338     1 
  337   336   339     1 
  338   336   339     1 
  334   340   341     1 
  334   340   342     1 
  334   340   343     1 
  341   340   342     1 
  341   340   343     1 
  342   340   343     1 
  329   344   345     1 
  329   344   346     1 
  345   344   346     1 
  344   346   347     1 
  344   346   348     1 
  347   346   348     1 
  346   348   349     1 
  346   348   350     1 
  346   348   363     1 
  349   348   350     1 
  349   348   363     1 
  350   348   363     1 
  348   350   351     1 
  348   350   352     1 
  348   350   356     1 
  351   350   352     1 
  351   350   356     1 
  352   350   356     1 
  350   352   353     1 
  350   352   354     1 
  350   352   355     1 
  353   352   354     1 
  353   352   355     1 
  354   352   355     1 
  350   356   357     1 
  350   356   358     1 
  350   356   359     1 
  357   356   358     1 
  357   356   359     1 
  358   356   359     1 
  356   359   360     1 
  356   359   361     1 
  356   359   362     1 
  360   359   361     1 
  360   359   362     1 
  361   359   362     1 
  348   363   364     1 
  348   363   365     1 
  364   363   365     1 
  363   365   366     1 
  363   365   367     1 
  366   365   367     1 
  365   367   368     1 
  365   367   369     1 
  365   367   382     1 
  368   367   369     1 
  368   367   382     1 
  369   367   382     1 
  367   369   370     1 
  367   369   371     1 
  367   369   372     1 
  370   369   371     1 
  370   369   372     1 
  371   369   372     1 
  369   372   373     1 
  369   372   374     1 
  369   372   378     1 
  373   372   374     1 
  373   372   378     1 
  374   372   378     1 
  372   374   375     1 
  372   374   376     1 
  372   374   377     1 
  375   374   376     1 
  375   374   377     1 
  376   374   377     1 
  372   378   379     1 
  372   378   380     1 
  372   378   381     1 
  379   378   380     1 
  379   378   381     1 
  380   378   381     1 
  367   382   383     1 
  367   382   384     1 
  383   382   384     1 

[ dihedrals ]
;  ai    aj    ak    al funct            c0            c1            c2            c3            c4            c5
    2     1     5     6     9 
    2     1     5     7     9 
    2     1     5    20     9 
    3     1     5     6     9 
    3     1     5     7     9 
    3     1     5    20     9 
    4     1     5     6     9 
    4     1     5     7     9 
    4     1     5    20     9 
   20     5     7    10     9    torsion_LEU_C_CA_CB_CG_mult1
   20     5     7    10     9    torsion_LEU_C_CA_CB_CG_mult2
   20     5     7    10     9    torsion_LEU_C_CA_CB_CG_mult3
    1     5     7     8     9 
    1     5     7     9     9 
    1     5     7    10     9 
    6     5     7     8     9 
    6     5     7     9     9 
    6     5     7    10     9 
   20     5     7     8     9 
   20     5     7     9     9 
    1     5    20    21     9 
    1     5    20    22     9 
    6     5    20    21     9 
    6     5    20    22     9 
    7     5    20    21     9 
    7     5    20    22     9 
    5     7    10    11     9 
    5     7    10    12     9 
    5     7    10    16     9 
    8     7    10    11     9 
    8     7    10    12     9 
    8     7    10    16     9 
    9     7    10    11     9 
    9     7    10    12     9 
    9     7    10    16     9 
    7    10    12    13     9 
    7    10    12    14     9 
    7    10    12    15     9 
   11    10    12    13     9 
   11    10    12    14     9 
   11    10    12    15     9 
   16    10    12    13     9 
   16    10    12    14     9 
   16    10    12    15     9 
    7    10    16    17     9 
    7    10    16    18     9 
    7    10    16    19     9 
   11    10    16    17     9 
   11    10    16    18     9 
   11    10    16    19     9 
   12    10    16    17     9 
   12    10    16    18     9 
   12    10    16    19     9 
    5    20    22    23     9 
    5    20    22    24     9 
   21    20    22    23     9 
   21    20    22    24     9 
   20    22    24    25     9 
   20    22    24    26     9 
   20    22    24    39     9 
   23    22    24    25     9 
   23    22    24    26     9 
   23    22    24    39     9 
   22    24    26    28     9    torsion_ILE_N_CA_CB_CG2_mult1
   22    24    26    28     9    torsion_ILE_N_CA_CB_CG2_mult2
   22    24    26    27     9 
   22    24    26    32     9 
   25    24    26    27     9 
   25    24    26    28     9 
   25    24    26    32     9 
   39    24    26    27     9 
   39    24    26    28     9 
   39    24    26    32     9 
   22    24    39    40     9 
   22    24    39    41     9 
   25    24    39    40     9 
   25    24    39    41     9 
   26    24    39    40     9 
   26    24    39    41     9 
   24    26    28    29     9 
   24    26    28    30     9 
   24    26    28    31     9 
   27    26    28    29     9 
   27    26    28    30     9 
   27    26    28    31     9 
   32    26    28    29     9 
   32    26    28    30     9 
   32    26    28    31     9 
   24    26    32    33     9 
   24    26    32    34     9 
   24    26    32    35     9 
   27    26    32    33     9 
   27    26    32    34     9 
   27    26    32    35     9 
   28    26    32    33     9 
   28    26    32    34     9 
   28    26    32    35     9 
   26    32    35    36     9 
   26    32    35    37     9 
   26    32    35    38     9 
   33    32    35    36     9 
   33    32    35    37     9 
   33    32    35    38     9 
   34    32    35    36     9 
   34    32    35    37     9 
   34    32    35    38     9 
   24    39    41    42     9 
   24    39    41    43     9 
   40    39    41    42     9 
   40    39    41    43     9 
   39    41    43    44     9 
   39    41    43    45     9 
   39    41    43    58     9 
   42    41    43    44     9 
   42    41    43    45     9 
   42    41    43    58     9 
   58    43    45    48     9    torsion_LEU_C_CA_CB_CG_mult1
   58    43    45    48     9    torsion_LEU_C_CA_CB_CG_mult2
   58    43    45    48     9    torsion_LEU_C_CA_CB_CG_mult3
   41    43    45    46     9 
   41    43    45    47     9 
   41    43    45    48     9 
   44    43    45    46     9 
   44    43    45    47     9 
   44    43    45    48     9 
   58    43    45    46     9 
   58    43    45    47     9 
   41    43    58    59     9 
   41    43    58    60     9 
   44    43    58    59     9 
   44    43    58    60     9 
   45    43    58    59     9 
   45    43    58    60     9 
   43    45    48    49     9 
   43    45    48    50     9 
   43    45    48    54     9 
   46    45    48    49     9 
   46    45    48    50     9 
   46    45    48    54     9 
   47    45    48    49     9 
   47    45    48    50     9 
   47    45    48    54     9 
   45    48    50    51     9 
   45    48    50    52     9 
   45    48    50    53     9 
   49    48    50    51     9 
   49    48    50    52     9 
   49    48    50    53     9 
   54    48    50    51     9 
   54    48    50    52     9 
   54    48    50    53     9 
   45    48    54    55     9 
   45    48    54    56     9 
   45    48    54    57     9 
   49    48    54    55     9 
   49    48    54    56     9 
   49    48    54    57     9 
   50    48    54    55     9 
   50    48    54    56     9 
   50    48    54    57     9 
   43    58    60    61     9 
   43    58    60    62     9 
   59    58    60    61     9 
   59    58    60    62     9 
   58    60    62    63     9 
   58    60    62    64     9 
   58    60    62    77     9 
   61    60    62    63     9 
   61    60    62    64     9 
   61    60    62    77     9 
   77    62    64    67     9    torsion_LEU_C_CA_CB_CG_mult1
   77    62    64    67     9    torsion_LEU_C_CA_CB_CG_mult2
   77    62    64    67     9    torsion_LEU_C_CA_CB_CG_mult3
   60    62    64    65     9 
   60    62    64    66     9 
   60    62    64    67     9 
   63    62    64    65     9 
   63    62    64    66     9 
   63    62    64    67     9 
   77    62    64    65     9 
   77    62    64    66     9 
   60    62    77    78     9 
   60    62    77    79     9 
   63    62    77    78     9 
   63    62    77    79     9 
   64    62    77    78     9 
   64    62    77    79     9 
   62    64    67    68     9 
   62    64    67    69     9 
   62    64    67    73     9 
   65    64    67    68     9 
   65    64    67    69     9 
   65    64    67    73     9 
   66    64    67    68     9 
   66    64    67    69     9 
   66    64    67    73     9 
   64    67    69    70     9 
   64    67    69    71     9 
   64    67    69    72     9 
   68    67    69    70     9 
   68    67    69    71     9 
   68    67    69    72     9 
   73    67    69    70     9 
   73    67    69    71     9 
   73    67    69    72     9 
   64    67    73    74     9 
   64    67    73    75     9 
   64    67    73    76     9 
   68    67    73    74     9 
   68    67    73    75     9 
   68    67    73    76     9 
   69    67    73    74     9 
   69    67    73    75     9 
   69    67    73    76     9 
   62    77    79    80     9 
   62    77    79    81     9 
   78    77    79    80     9 
   78    77    79    81     9 
   77    79    81    82     9 
   77    79    81    83     9 
   77    79    81    93     9 
   80    79    81    82     9 
   80    79    81    83     9 
   80    79    81    93     9 
   79    81    83    84     9 
   79    81    83    85     9 
   79    81    83    89     9 
   82    81    83    84     9 
   82    81    83    85     9 
   82    81    83    89     9 
   93    81    83    84     9 
   93    81    83    85     9 
   93    81    83    89     9 
   79    81    93    94     9 
   79    81    93    95     9 
   82    81    93    94     9 
   82    81    93    95     9 
   83    81    93    94     9 
   83    81    93    95     9 
   81    83    85    86     9 
   81    83    85    87     9 
   81    83    85    88     9 
   84    83    85    86     9 
   84    83    85    87     9 
   84    83    85    88     9 
   89    83    85    86     9 
   89    83    85    87     9 
   89    83    85    88     9 
   81    83    89    90     9 
   81    83    89    91     9 
   81    83    89    92     9 
   84    83    89    90     9 
   84    83    89    91     9 
   84    83    89    92     9 
   85    83    89    90     9 
   85    83    89    91     9 
   85    83    89    92     9 
   81    93    95    96     9 
   81    93    95    97     9 
   94    93    95    96     9 
   94    93    95    97     9 
   93    95    97    98     9 
   93    95    97    99     9 
   93    95    97   112     9 
   96    95    97    98     9 
   96    95    97    99     9 
   96    95    97   112     9 
  112    97    99   102     9    torsion_LEU_C_CA_CB_CG_mult1
  112    97    99   102     9    torsion_LEU_C_CA_CB_CG_mult2
  112    97    99   102     9    torsion_LEU_C_CA_CB_CG_mult3
   95    97    99   100     9 
   95    97    99   101     9 
   95    97    99   102     9 
   98    97    99   100     9 
   98    97    99   101     9 
   98    97    99   102     9 
  112    97    99   100     9 
  112    97    99   101     9 
   95    97   112   113     9 
   95    97   112   114     9 
   98    97   112   113     9 
   98    97   112   114     9 
   99    97   112   113     9 
   99    97   112   114     9 
   97    99   102   103     9 
   97    99   102   104     9 
   97    99   102   108     9 
  100    99   102   103     9 
  100    99   102   104     9 
  100    99   102   108     9 
  101    99   102   103     9 
  101    99   102   104     9 
  101    99   102   108     9 
   99   102   104   105     9 
   99   102   104   106     9 
   99   102   104   107     9 
  103   102   104   105     9 
  103   102   104   106     9 
  103   102   104   107     9 
  108   102   104   105     9 
  108   102   104   106     9 
  108   102   104   107     9 
   99   102   108   109     9 
   99   102   108   110     9 
   99   102   108   111     9 
  103   102   108   109     9 
  103   102   108   110     9 
  103   102   108   111     9 
  104   102   108   109     9 
  104   102   108   110     9 
  104   102   108   111     9 
   97   112   114   115     9 
   97   112   114   116     9 
  113   112   114   115     9 
  113   112   114   116     9 
  112   114   116   117     9 
  112   114   116   118     9 
  112   114   116   128     9 
  115   114   116   117     9 
  115   114   116   118     9 
  115   114   116   128     9 
  114   116   118   119     9 
  114   116   118   120     9 
  114   116   118   124     9 
  117   116   118   119     9 
  117   116   118   120     9 
  117   116   118   124     9 
  128   116   118   119     9 
  128   116   118   120     9 
  128   116   118   124     9 
  114   116   128   129     9 
  114   116   128   130     9 
  117   116   128   129     9 
  117   116   128   130     9 
  118   116   128   129     9 
  118   116   128   130     9 
  116   118   120   121     9 
  116   118   120   122     9 
  116   118   120   123     9 
  119   118   120   121     9 
  119   118   120   122     9 
  119   118   120   123     9 
  124   118   120   121     9 
  124   118   120   122     9 
  124   118   120   123     9 
  116   118   124   125     9 
  116   118   124   126     9 
  116   118   124   127     9 
  119   118   124   125     9 
  119   118   124   126     9 
  119   118   124   127     9 
  120   118   124   125     9 
  120   118   124   126     9 
  120   118   124   127     9 
  116   128   130   131     9 
  116   128   130   132     9 
  129   128   130   131     9 
  129   128   130   132     9 
  128   130   132   133     9 
  128   130   132   134     9 
  128   130   132   147     9 
  131   130   132   133     9 
  131   130   132   134     9 
  131   130   132   147     9 
  147   132   134   137     9    torsion_LEU_C_CA_CB_CG_mult1
  147   132   134   137     9    torsion_LEU_C_CA_CB_CG_mult2
  147   132   134   137     9    torsion_LEU_C_CA_CB_CG_mult3
  130   132   134   135     9 
  130   132   134   136     9 
  130   132   134   137     9 
  133   132   134   135     9 
  133   132   134   136     9 
  133   132   134   137     9 
  147   132   134   135     9 
  147   132   134   136     9 
  130   132   147   148     9 
  130   132   147   149     9 
  133   132   147   148     9 
  133   132   147   149     9 
  134   132   147   148     9 
  134   132   147   149     9 
  132   134   137   138     9 
  132   134   137   139     9 
  132   134   137   143     9 
  135   134   137   138     9 
  135   134   137   139     9 
  135   134   137   143     9 
  136   134   137   138     9 
  136   134   137   139     9 
  136   134   137   143     9 
  134   137   139   140     9 
  134   137   139   141     9 
  134   137   139   142     9 
  138   137   139   140     9 
  138   137   139   141     9 
  138   137   139   142     9 
  143   137   139   140     9 
  143   137   139   141     9 
  143   137   139   142     9 
  134   137   143   144     9 
  134   137   143   145     9 
  134   137   143   146     9 
  138   137   143   144     9 
  138   137   143   145     9 
  138   137   143   146     9 
  139   137   143   144     9 
  139   137   143   145     9 
  139   137   143   146     9 
  132   147   149   150     9 
  132   147   149   151     9 
  148   147   149   150     9 
  148   147   149   151     9 
  147   149   151   152     9 
  147   149   151   153     9 
  147   149   151   166     9 
  150   149   151   152     9 
  150   149   151   153     9 
  150   149   151   166     9 
  149   151   153   155     9    torsion_ILE_N_CA_CB_CG2_mult1
  149   151   153   155     9    torsion_ILE_N_CA_CB_CG2_mult2
  149   151   153   154     9 
  149   151   153   159     9 
  152   151   153   154     9 
  152   151   153   155     9 
  152   151   153   159     9 
  166   151   153   154     9 
  166   151   153   155     9 
  166   151   153   159     9 
  149   151   166   167     9 
  149   151   166   168     9 
  152   151   166   167     9 
  152   151   166   168     9 
  153   151   166   167     9 
  153   151   166   168     9 
  151   153   155   156     9 
  151   153   155   157     9 
  151   153   155   158     9 
  154   153   155   156     9 
  154   153   155   157     9 
  154   153   155   158     9 
  159   153   155   156     9 
  159   153   155   157     9 
  159   153   155   158     9 
  151   153   159   160     9 
  151   153   159   161     9 
  151   153   159   162     9 
  154   153   159   160     9 
  154   153   159   161     9 
  154   153   159   162     9 
  155   153   159   160     9 
  155   153   159   161     9 
  155   153   159   162     9 
  153   159   162   163     9 
  153   159   162   164     9 
  153   159   162   165     9 
  160   159   162   163     9 
  160   159   162   164     9 
  160   159   162   165     9 
  161   159   162   163     9 
  161   159   162   164     9 
  161   159   162   165     9 
  151   166   168   169     9 
  151   166   168   170     9 
  167   166   168   169     9 
  167   166   168   170     9 
  166   168   170   171     9 
  166   168   170   172     9 
  166   168   170   182     9 
  169   168   170   171     9 
  169   168   170   172     9 
  169   168   170   182     9 
  168   170   172   173     9 
  168   170   172   174     9 
  168   170   172   178     9 
  171   170   172   173     9 
  171   170   172   174     9 
  171   170   172   178     9 
  182   170   172   173     9 
  182   170   172   174     9 
  182   170   172   178     9 
  168   170   182   183     9 
  168   170   182   184     9 
  171   170   182   183     9 
  171   170   182   184     9 
  172   170   182   183     9 
  172   170   182   184     9 
  170   172   174   175     9 
  170   172   174   176     9 
  170   172   174   177     9 
  173   172   174   175     9 
  173   172   174   176     9 
  173   172   174   177     9 
  178   172   174   175     9 
  178   172   174   176     9 
  178   172   174   177     9 
  170   172   178   179     9 
  170   172   178   180     9 
  170   172   178   181     9 
  173   172   178   179     9 
  173   172   178   180     9 
  173   172   178   181     9 
  174   172   178   179     9 
  174   172   178   180     9 
  174   172   178   181     9 
  170   182   184   185     9 
  170   182   184   186     9 
  183   182   184   185     9 
  183   182   184   186     9 
  182   184   186   187     9 
  182   184   186   188     9 
  182   184   186   198     9 
  185   184   186   187     9 
  185   184   186   188     9 
  185   184   186   198     9 
  184   186   188   189     9 
  184   186   188   190     9 
  184   186   188   194     9 
  187   186   188   189     9 
  187   186   188   190     9 
  187   186   188   194     9 
  198   186   188   189     9 
  198   186   188   190     9 
  198   186   188   194     9 
  184   186   198   199     9 
  184   186   198   200     9 
  187   186   198   199     9 
  187   186   198   200     9 
  188   186   198   199     9 
  188   186   198   200     9 
  186   188   190   191     9 
  186   188   190   192     9 
  186   188   190   193     9 
  189   188   190   191     9 
  189   188   190   192     9 
  189   188   190   193     9 
  194   188   190   191     9 
  194   188   190   192     9 
  194   188   190   193     9 
  186   188   194   195     9 
  186   188   194   196     9 
  186   188   194   197     9 
  189   188   194   195     9 
  189   188   194   196     9 
  189   188   194   197     9 
  190   188   194   195     9 
  190   188   194   196     9 
  190   188   194   197     9 
  186   198   200   201     9 
  186   198   200   202     9 
  199   198   200   201     9 
  199   198   200   202     9 
  198   200   202   203     9 
  198   200   202   204     9 
  198   200   202   214     9 
  201   200   202   203     9 
  201   200   202   204     9 
  201   200   202   214     9 
  200   202   204   205     9 
  200   202   204   206     9 
  200   202   204   210     9 
  203   202   204   205     9 
  203   202   204   206     9 
  203   202   204   210     9 
  214   202   204   205     9 
  214   202   204   206     9 
  214   202   204   210     9 
  200   202   214   215     9 
  200   202   214   216     9 
  203   202   214   215     9 
  203   202   214   216     9 
  204   202   214   215     9 
  204   202   214   216     9 
  202   204   206   207     9 
  202   204   206   208     9 
  202   204   206   209     9 
  205   204   206   207     9 
  205   204   206   208     9 
  205   204   206   209     9 
  210   204   206   207     9 
  210   204   206   208     9 
  210   204   206   209     9 
  202   204   210   211     9 
  202   204   210   212     9 
  202   204   210   213     9 
  205   204   210   211     9 
  205   204   210   212     9 
  205   204   210   213     9 
  206   204   210   211     9 
  206   204   210   212     9 
  206   204   210   213     9 
  202   214   216   217     9 
  202   214   216   218     9 
  215   214   216   217     9 
  215   214   216   218     9 
  214   216   218   219     9 
  214   216   218   220     9 
  214   216   218   233     9 
  217   216   218   219     9 
  217   216   218   220     9 
  217   216   218   233     9 
  233   218   220   223     9    torsion_LEU_C_CA_CB_CG_mult1
  233   218   220   223     9    torsion_LEU_C_CA_CB_CG_mult2
  233   218   220   223     9    torsion_LEU_C_CA_CB_CG_mult3
  216   218   220   221     9 
  216   218   220   222     9 
  216   218   220   223     9 
  219   218   220   221     9 
  219   218   220   222     9 
  219   218   220   223     9 
  233   218   220   221     9 
  233   218   220   222     9 
  216   218   233   234     9 
  216   218   233   235     9 
  219   218   233   234     9 
  219   218   233   235     9 
  220   218   233   234     9 
  220   218   233   235     9 
  218   220   223   224     9 
  218   220   223   225     9 
  218   220   223   229     9 
  221   220   223   224     9 
  221   220   223   225     9 
  221   220   223   229     9 
  222   220   223   224     9 
  222   220   223   225     9 
  222   220   223   229     9 
  220   223   225   226     9 
  220   223   225   227     9 
  220   223   225   228     9 
  224   223   225   226     9 
  224   223   225   227     9 
  224   223   225   228     9 
  229   223   225   226     9 
  229   223   225   227     9 
  229   223   225   228     9 
  220   223   229   230     9 
  220   223   229   231     9 
  220   223   229   232     9 
  224   223   229   230     9 
  224   223   229   231     9 
  224   223   229   232     9 
  225   223   229   230     9 
  225   223   229   231     9 
  225   223   229   232     9 
  218   233   235   236     9 
  218   233   235   237     9 
  234   233   235   236     9 
  234   233   235   237     9 
  233   235   237   238     9 
  233   235   237   239     9 
  233   235   237   249     9 
  236   235   237   238     9 
  236   235   237   239     9 
  236   235   237   249     9 
  235   237   239   240     9 
  235   237   239   241     9 
  235   237   239   245     9 
  238   237   239   240     9 
  238   237   239   241     9 
  238   237   239   245     9 
  249   237   239   240     9 
  249   237   239   241     9 
  249   237   239   245     9 
  235   237   249   250     9 
  235   237   249   251     9 
  238   237   249   250     9 
  238   237   249   251     9 
  239   237   249   250     9 
  239   237   249   251     9 
  237   239   241   242     9 
  237   239   241   243     9 
  237   239   241   244     9 
  240   239   241   242     9 
  240   239   241   243     9 
  240   239   241   244     9 
  245   239   241   242     9 
  245   239   241   243     9 
  245   239   241   244     9 
  237   239   245   246     9 
  237   239   245   247     9 
  237   239   245   248     9 
  240   239   245   246     9 
  240   239   245   247     9 
  240   239   245   248     9 
  241   239   245   246     9 
  241   239   245   247     9 
  241   239   245   248     9 
  237   249   251   252     9 
  237   249   251   253     9 
  250   249   251   252     9 
  250   249   251   253     9 
  249   251   253   254     9 
  249   251   253   255     9 
  249   251   253   268     9 
  252   251   253   254     9 
  252   251   253   255     9 
  252   251   253   268     9 
  268   253   255   258     9    torsion_LEU_C_CA_CB_CG_mult1
  268   253   255   258     9    torsion_LEU_C_CA_CB_CG_mult2
  268   253   255   258     9    torsion_LEU_C_CA_CB_CG_mult3
  251   253   255   256     9 
  251   253   255   257     9 
  251   253   255   258     9 
  254   253   255   256     9 
  254   253   255   257     9 
  254   253   255   258     9 
  268   253   255   256     9 
  268   253   255   257     9 
  251   253   268   269     9 
  251   253   268   270     9 
  254   253   268   269     9 
  254   253   268   270     9 
  255   253   268   269     9 
  255   253   268   270     9 
  253   255   258   259     9 
  253   255   258   260     9 
  253   255   258   264     9 
  256   255   258   259     9 
  256   255   258   260     9 
  256   255   258   264     9 
  257   255   258   259     9 
  257   255   258   260     9 
  257   255   258   264     9 
  255   258   260   261     9 
  255   258   260   262     9 
  255   258   260   263     9 
  259   258   260   261     9 
  259   258   260   262     9 
  259   258   260   263     9 
  264   258   260   261     9 
  264   258   260   262     9 
  264   258   260   263     9 
  255   258   264   265     9 
  255   258   264   266     9 
  255   258   264   267     9 
  259   258   264   265     9 
  259   258   264   266     9 
  259   258   264   267     9 
  260   258   264   265     9 
  260   258   264   266     9 
  260   258   264   267     9 
  253   268   270   271     9 
  253   268   270   272     9 
  269   268   270   271     9 
  269   268   270   272     9 
  268   270   272   273     9 
  268   270   272   274     9 
  268   270   272   287     9 
  271   270   272   273     9 
  271   270   272   274     9 
  271   270   272   287     9 
  287   272   274   277     9    torsion_LEU_C_CA_CB_CG_mult1
  287   272   274   277     9    torsion_LEU_C_CA_CB_CG_mult2
  287   272   274   277     9    torsion_LEU_C_CA_CB_CG_mult3
  270   272   274   275     9 
  270   272   274   276     9 
  270   272   274   277     9 
  273   272   274   275     9 
  273   272   274   276     9 
  273   272   274   277     9 
  287   272   274   275     9 
  287   272   274   276     9 
  270   272   287   288     9 
  270   272   287   289     9 
  273   272   287   288     9 
  273   272   287   289     9 
  274   272   287   288     9 
  274   272   287   289     9 
  272   274   277   278     9 
  272   274   277   279     9 
  272   274   277   283     9 
  275   274   277   278     9 
  275   274   277   279     9 
  275   274   277   283     9 
  276   274   277   278     9 
  276   274   277   279     9 
  276   274   277   283     9 
  274   277   279   280     9 
  274   277   279   281     9 
  274   277   279   282     9 
  278   277   279   280     9 
  278   277   279   281     9 
  278   277   279   282     9 
  283   277   279   280     9 
  283   277   279   281     9 
  283   277   279   282     9 
  274   277   283   284     9 
  274   277   283   285     9 
  274   277   283   286     9 
  278   277   283   284     9 
  278   277   283   285     9 
  278   277   283   286     9 
  279   277   283   284     9 
  279   277   283   285     9 
  279   277   283   286     9 
  272   287   289   290     9 
  272   287   289   291     9 
  288   287   289   290     9 
  288   287   289   291     9 
  287   289   291   292     9 
  287   289   291   293     9 
  287   289   291   306     9 
  290   289   291   292     9 
  290   289   291   293     9 
  290   289   291   306     9 
  306   291   293   296     9    torsion_LEU_C_CA_CB_CG_mult1
  306   291   293   296     9    torsion_LEU_C_CA_CB_CG_mult2
  306   291   293   296     9    torsion_LEU_C_CA_CB_CG_mult3
  289   291   293   294     9 
  289   291   293   295     9 
  289   291   293   296     9 
  292   291   293   294     9 
  292   291   293   295     9 
  292   291   293   296     9 
  306   291   293   294     9 
  306   291   293   295     9 
  289   291   306   307     9 
  289   291   306   308     9 
  292   291   306   307     9 
  292   291   306   308     9 
  293   291   306   307     9 
  293   291   306   308     9 
  291   293   296   297     9 
  291   293   296   298     9 
  291   293   296   302     9 
  294   293   296   297     9 
  294   293   296   298     9 
  294   293   296   302     9 
  295   293   296   297     9 
  295   293   296   298     9 
  295   293   296   302     9 
  293   296   298   299     9 
  293   296   298   300     9 
  293   296   298   301     9 
  297   296   298   299     9 
  297   296   298   300     9 
  297   296   298   301     9 
  302   296   298   299     9 
  302   296   298   300     9 
  302   296   298   301     9 
  293   296   302   303     9 
  293   296   302   304     9 
  293   296   302   305     9 
  297   296   302   303     9 
  297   296   302   304     9 
  297   296   302   305     9 
  298   296   302   303     9 
  298   296   302   304     9 
  298   296   302   305     9 
  291   306   308   309     9 
  291   306   308   310     9 
  307   306   308   309     9 
  307   306   308   310     9 
  306   308   310   311     9 
  306   308   310   312     9 
  306   308   310   325     9 
  309   308   310   311     9 
  309   308   310   312     9 
  309   308   310   325     9 
  325   310   312   315     9    torsion_LEU_C_CA_CB_CG_mult1
  325   310   312   315     9    torsion_LEU_C_CA_CB_CG_mult2
  325   310   312   315     9    torsion_LEU_C_CA_CB_CG_mult3
  308   310   312   313     9 
  308   310   312   314     9 
  308   310   312   315     9 
  311   310   312   313     9 
  311   310   312   314     9 
  311   310   312   315     9 
  325   310   312   313     9 
  325   310   312   314     9 
  308   310   325   326     9 
  308   310   325   327     9 
  311   310   325   326     9 
  311   310   325   327     9 
  312   310   325   326     9 
  312   310   325   327     9 
  310   312   315   316     9 
  310   312   315   317     9 
  310   312   315   321     9 
  313   312   315   316     9 
  313   312   315   317     9 
  313   312   315   321     9 
  314   312   315   316     9 
  314   312   315   317     9 
  314   312   315   321     9 
  312   315   317   318     9 
  312   315   317   319     9 
  312   315   317   320     9 
  316   315   317   318     9 
  316   315   317   319     9 
  316   315   317   320     9 
  321   315   317   318     9 
  321   315   317   319     9 
  321   315   317   320     9 
  312   315   321   322     9 
  312   315   321   323     9 
  312   315   321   324     9 
  316   315   321   322     9 
  316   315   321   323     9 
  316   315   321   324     9 
  317   315   321   322     9 
  317   315   321   323     9 
  317   315   321   324     9 
  310   325   327   328     9 
  310   325   327   329     9 
  326   325   327   328     9 
  326   325   327   329     9 
  325   327   329   330     9 
  325   327   329   331     9 
  325   327   329   344     9 
  328   327   329   330     9 
  328   327   329   331     9 
  328   327   329   344     9 
  344   329   331   334     9    torsion_LEU_C_CA_CB_CG_mult1
  344   329   331   334     9    torsion_LEU_C_CA_CB_CG_mult2
  344   329   331   334     9    torsion_LEU_C_CA_CB_CG_mult3
  327   329   331   332     9 
  327   329   331   333     9 
  327   329   331   334     9 
  330   329   331   332     9 
  330   329   331   333     9 
  330   329   331   334     9 
  344   329   331   332     9 
  344   329   331   333     9 
  327   329   344   345     9 
  327   329   344   346     9 
  330   329   344   345     9 
  330   329   344   346     9 
  331   329   344   345     9 
  331   329   344   346     9 
  329   331   334   335     9 
  329   331   334   336     9 
  329   331   334   340     9 
  332   331   334   335     9 
  332   331   334   336     9 
  332   331   334   340     9 
  333   331   334   335     9 
  333   331   334   336     9 
  333   331   334   340     9 
  331   334   336   337     9 
  331   334   336   338     9 
  331   334   336   339     9 
  335   334   336   337     9 
  335   334   336   338     9 
  335   334   336   339     9 
  340   334   336   337     9 
  340   334   336   338     9 
  340   334   336   339     9 
  331   334   340   341     9 
  331   334   340   342     9 
  331   334   340   343     9 
  335   334   340   341     9 
  335   334   340   342     9 
  335   334   340   343     9 
  336   334   340   341     9 
  336   334   340   342     9 
  336   334   340   343     9 
  329   344   346   347     9 
  329   344   346   348     9 
  345   344   346   347     9 
  345   344   346   348     9 
  344   346   348   349     9 
  344   346   348   350     9 
  344   346   348   363     9 
  347   346   348   349     9 
  347   346   348   350     9 
  347   346   348   363     9 
  346   348   350   352     9    torsion_ILE_N_CA_CB_CG2_mult1
  346   348   350   352     9    torsion_ILE_N_CA_CB_CG2_mult2
  346   348   350   351     9 
  346   348   350   356     9 
  349   348   350   351     9 
  349   348   350   352     9 
  349   348   350   356     9 
  363   348   350   351     9 
  363   348   350   352     9 
  363   348   350   356     9 
  346   348   363   364     9 
  346   348   363   365     9 
  349   348   363   364     9 
  349   348   363   365     9 
  350   348   363   364     9 
  350   348   363   365     9 
  348   350   352   353     9 
  348   350   352   354     9 
  348   350   352   355     9 
  351   350   352   353     9 
  351   350   352   354     9 
  351   350   352   355     9 
  356   350   352   353     9 
  356   350   352   354     9 
  356   350   352   355     9 
  348   350   356   357     9 
  348   350   356   358     9 
  348   350   356   359     9 
  351   350   356   357     9 
  351   350   356   358     9 
  351   350   356   359     9 
  352   350   356   357     9 
  352   350   356   358     9 
  352   350   356   359     9 
  350   356   359   360     9 
  350   356   359   361     9 
  350   356   359   362     9 
  357   356   359   360     9 
  357   356   359   361     9 
  357   356   359   362     9 
  358   356   359   360     9 
  358   356   359   361     9 
  358   356   359   362     9 
  348   363   365   366     9 
  348   363   365   367     9 
  364   363   365   366     9 
  364   363   365   367     9 
  363   365   367   368     9 
  363   365   367   369     9 
  363   365   367   382     9 
  366   365   367   368     9 
  366   365   367   369     9 
  366   365   367   382     9 
  382   367   369   372     9    torsion_LEU_C_CA_CB_CG_mult1
  382   367   369   372     9    torsion_LEU_C_CA_CB_CG_mult2
  382   367   369   372     9    torsion_LEU_C_CA_CB_CG_mult3
  365   367   369   370     9 
  365   367   369   371     9 
  365   367   369   372     9 
  368   367   369   370     9 
  368   367   369   371     9 
  368   367   369   372     9 
  382   367   369   370     9 
  382   367   369   371     9 
  365   367   382   383     9 
  365   367   382   384     9 
  368   367   382   383     9 
  368   367   382   384     9 
  369   367   382   383     9 
  369   367   382   384     9 
  367   369   372   373     9 
  367   369   372   374     9 
  367   369   372   378     9 
  370   369   372   373     9 
  370   369   372   374     9 
  370   369   372   378     9 
  371   369   372   373     9 
  371   369   372   374     9 
  371   369   372   378     9 
  369   372   374   375     9 
  369   372   374   376     9 
  369   372   374   377     9 
  373   372   374   375     9 
  373   372   374   376     9 
  373   372   374   377     9 
  378   372   374   375     9 
  378   372   374   376     9 
  378   372   374   377     9 
  369   372   378   379     9 
  369   372   378   380     9 
  369   372   378   381     9 
  373   372   378   379     9 
  373   372   378   380     9 
  373   372   378   381     9 
  374   372   378   379     9 
  374   372   378   380     9 
  374   372   378   381     9 

[ dihedrals ]
;  ai    aj    ak    al funct            c0            c1            c2            c3
    5    22    20    21     4 
   20    24    22    23     4 
   24    41    39    40     4 
   39    43    41    42     4 
   43    60    58    59     4 
   58    62    60    61     4 
   62    79    77    78     4 
   77    81    79    80     4 
   81    95    93    94     4 
   93    97    95    96     4 
   97   114   112   113     4 
  112   116   114   115     4 
  116   130   128   129     4 
  128   132   130   131     4 
  132   149   147   148     4 
  147   151   149   150     4 
  151   168   166   167     4 
  166   170   168   169     4 
  170   184   182   183     4 
  182   186   184   185     4 
  186   200   198   199     4 
  198   202   200   201     4 
  202   216   214   215     4 
  214   218   216   217     4 
  218   235   233   234     4 
  233   237   235   236     4 
  237   251   249   250     4 
  249   253   251   252     4 
  253   270   268   269     4 
  268   272   270   271     4 
  272   289   287   288     4 
  287   291   289   290     4 
  291   308   306   307     4 
  306   310   308   309     4 
  310   327   325   326     4 
  325   329   327   328     4 
  329   346   344   345     4 
  344   348   346   347     4 
  348   365   363   364     4 
  363   367   365   366     4 
  367   383   382   384     4 

; Include Position restraint file
#ifdef POSRES
#include "posre.itp"
#endif

; Include water topology
#include "amber99sb-ildn.ff/spce.itp"

#ifdef POSRES_WATER
; Position restraint for each water oxygen
[ position_restraints ]
;  i funct       fcx        fcy        fcz
   1    1       1000       1000       1000
#endif

; Include topology for ions
#include "amber99sb-ildn.ff/ions.itp"

[ system ]
; Name
Protein in water

[ molecules ]
; Compound        #mols
Protein_chain_A     1
SOL         5578
NA               16
CL               16
