GROup of MAchos and Cynical Suckers
  348
    1MET      N    1   0.172  -0.053  -0.070
    1MET     H1    2   0.212  -0.144  -0.084
    1MET     H2    3   0.079  -0.062  -0.036
    1MET     H3    4   0.171  -0.004  -0.157
    1MET     CA    5   0.230   0.000   0.000
    1MET     HA    6   0.286   0.054  -0.063
    1MET     CB    7   0.180  -0.104   0.100
    1MET    HB1    8   0.082  -0.093   0.117
    1MET    HB2    9   0.230  -0.098   0.186
    1MET     CG   10   0.210  -0.234   0.025
    1MET    HG1   11   0.309  -0.226   0.008
    1MET    HG2   12   0.161  -0.220  -0.061
    1MET     SD   13   0.171  -0.397   0.096
    1MET     CE   14  -0.010  -0.403   0.110
    1MET    HE1   15  -0.037  -0.491   0.149
    1MET    HE2   16  -0.041  -0.329   0.170
    1MET    HE3   17  -0.051  -0.393   0.020
    1MET      C   18   0.258   0.080   0.060
    1MET      O   19   0.328   0.118   0.100
    2LYS      N   20   0.023   0.179   0.080
    2LYS     HN   21  -0.026   0.168  -0.007
    2LYS     CA   22  -0.040   0.227   0.150
    2LYS     HA   23  -0.037   0.132   0.184
    2LYS     CB   24  -0.022   0.377   0.119
    2LYS    HB1   25  -0.033   0.425   0.205
    2LYS    HB2   26  -0.097   0.401   0.057
    2LYS     CG   27   0.106   0.433   0.055
    2LYS    HG1   28   0.124   0.387  -0.032
    2LYS    HG2   29   0.184   0.419   0.116
    2LYS     CD   30   0.082   0.583   0.032
    2LYS    HD1   31   0.000   0.593  -0.025
    2LYS    HD2   32   0.066   0.626   0.121
    2LYS     CE   33   0.198   0.655  -0.036
    2LYS    HE1   34   0.173   0.751  -0.050
    2LYS    HE2   35   0.215   0.613  -0.125
    2LYS     NZ   36   0.324   0.652   0.041
    2LYS    HZ1   37   0.395   0.701  -0.010
    2LYS    HZ2   38   0.310   0.695   0.130
    2LYS    HZ3   39   0.352   0.557   0.054
    2LYS      C   40  -0.123   0.240   0.210
    2LYS      O   41  -0.173   0.303   0.250
    3LEU      N   42  -0.180  -0.009   0.230
    3LEU     HN   43  -0.161  -0.055   0.143
    3LEU     CA   44  -0.216  -0.079   0.300
    3LEU     HA   45  -0.120  -0.066   0.323
    3LEU     CB   46  -0.370  -0.079   0.283
    3LEU    HB1   47  -0.409  -0.093   0.374
    3LEU    HB2   48  -0.392  -0.158   0.225
    3LEU     CG   49  -0.441   0.043   0.221
    3LEU     HG   50  -0.399   0.030   0.131
    3LEU    CD1   51  -0.402   0.186   0.259
    3LEU   HD11   52  -0.459   0.251   0.208
    3LEU   HD12   53  -0.415   0.199   0.357
    3LEU   HD13   54  -0.306   0.201   0.235
    3LEU    CD2   55  -0.595   0.037   0.212
    3LEU   HD21   56  -0.629   0.122   0.170
    3LEU   HD22   57  -0.622  -0.041   0.156
    3LEU   HD23   58  -0.633   0.027   0.304
    3LEU      C   59  -0.215  -0.163   0.360
    3LEU      O   60  -0.268  -0.223   0.400
    4ALA      N   61   0.040  -0.176   0.380
    4ALA     HN   62   0.082  -0.149   0.293
    4ALA     CA   63   0.115  -0.199   0.450
    4ALA     HA   64   0.093  -0.108   0.484
    4ALA     CB   65   0.134  -0.348   0.419
    4ALA    HB1   66   0.059  -0.380   0.360
    4ALA    HB2   67   0.221  -0.362   0.373
    4ALA    HB3   68   0.133  -0.400   0.505
    4ALA      C   69   0.198  -0.184   0.510
    4ALA      O   70   0.266  -0.225   0.550
    5VAL      N   71   0.166   0.070   0.530
    5VAL     HN   72   0.133   0.107   0.443
    5VAL     CA   73   0.176   0.148   0.600
    5VAL     HA   74   0.271   0.166   0.576
    5VAL     CB   75   0.041   0.112   0.654
    5VAL     HB   76  -0.035   0.150   0.602
    5VAL    CG1   77   0.047   0.166   0.798
    5VAL   HG11   78  -0.040   0.147   0.844
    5VAL   HG12   79   0.122   0.121   0.847
    5VAL   HG13   80   0.063   0.265   0.796
    5VAL    CG2   81   0.024  -0.039   0.651
    5VAL   HG21   82  -0.066  -0.063   0.687
    5VAL   HG22   83   0.032  -0.071   0.557
    5VAL   HG23   84   0.095  -0.082   0.707
    5VAL      C   85   0.146   0.227   0.660
    5VAL      O   86   0.175   0.301   0.700
    6PHE      N   87  -0.097   0.151   0.680
    6PHE     HN   88  -0.128   0.112   0.593
    6PHE     CA   89  -0.176   0.148   0.750
    6PHE     HA   90  -0.132   0.067   0.789
    6PHE     CB   91  -0.237   0.285   0.712
    6PHE    HB1   92  -0.326   0.270   0.668
    6PHE    HB2   93  -0.175   0.331   0.647
    6PHE     CG   94  -0.257   0.380   0.831
    6PHE    CD1   95  -0.378   0.386   0.905
    6PHE    HD1   96  -0.455   0.328   0.881
    6PHE    CE1   97  -0.387   0.475   1.015
    6PHE    HE1   98  -0.472   0.481   1.068
    6PHE     CZ   99  -0.276   0.555   1.048
    6PHE     HZ  100  -0.283   0.618   1.125
    6PHE    CD2  101  -0.147   0.461   0.866
    6PHE    HD2  102  -0.063   0.456   0.813
    6PHE    CE2  103  -0.157   0.549   0.974
    6PHE    HE2  104  -0.079   0.608   0.999
    6PHE      C  105  -0.249   0.105   0.810
    6PHE      O  106  -0.327   0.120   0.850
    7ALA      N  107  -0.132  -0.122   0.830
    7ALA     HN  108  -0.088  -0.145   0.743
    7ALA     CA  109  -0.115  -0.199   0.900
    7ALA     HA  110  -0.047  -0.134   0.935
    7ALA     CB  111  -0.235  -0.290   0.867
    7ALA    HB1  112  -0.299  -0.241   0.808
    7ALA    HB2  113  -0.202  -0.372   0.820
    7ALA    HB3  114  -0.281  -0.316   0.952
    7ALA      C  115  -0.060  -0.263   0.960
    7ALA      O  116  -0.062  -0.343   1.000
    8LEU      N  117   0.143  -0.109   0.980
    8LEU     HN  118   0.159  -0.062   0.893
    8LEU     CA  119   0.216  -0.079   1.050
    8LEU     HA  120   0.133  -0.027   1.070
    8LEU     CB  121   0.335  -0.177   1.036
    8LEU    HB1  122   0.374  -0.189   1.127
    8LEU    HB2  123   0.402  -0.132   0.977
    8LEU     CG  124   0.312  -0.319   0.978
    8LEU     HG  125   0.289  -0.284   0.887
    8LEU    CD1  126   0.190  -0.402   1.017
    8LEU   HD11  127   0.193  -0.490   0.969
    8LEU   HD12  128   0.191  -0.417   1.115
    8LEU   HD13  129   0.107  -0.353   0.991
    8LEU    CD2  130   0.434  -0.412   0.972
    8LEU   HD21  131   0.407  -0.500   0.933
    8LEU   HD22  132   0.505  -0.371   0.915
    8LEU   HD23  133   0.470  -0.426   1.064
    8LEU      C  134   0.270  -0.013   1.110
    8LEU      O  135   0.349  -0.001   1.150
    9LEU      N  136   0.082   0.160   1.130
    9LEU     HN  137   0.033   0.167   1.043
    9LEU     CA  138   0.040   0.227   1.200
    9LEU     HA  139   0.003   0.136   1.219
    9LEU     CB  140   0.116   0.361   1.187
    9LEU    HB1  141   0.121   0.401   1.279
    9LEU    HB2  142   0.061   0.420   1.128
    9LEU     CG  143   0.260   0.361   1.130
    9LEU     HG  144   0.231   0.332   1.039
    9LEU    CD1  145   0.361   0.254   1.171
    9LEU   HD11  146   0.448   0.271   1.124
    9LEU   HD12  147   0.376   0.258   1.270
    9LEU   HD13  148   0.327   0.164   1.146
    9LEU    CD2  149   0.333   0.496   1.127
    9LEU   HD21  150   0.424   0.484   1.088
    9LEU   HD22  151   0.281   0.560   1.070
    9LEU   HD23  152   0.340   0.532   1.219
    9LEU      C  153  -0.034   0.268   1.260
    9LEU      O  154  -0.059   0.344   1.300
   10VAL      N  155  -0.172   0.053   1.280
   10VAL     HN  156  -0.170   0.004   1.193
   10VAL     CA  157  -0.230   0.000   1.350
   10VAL     HA  158  -0.314   0.047   1.322
   10VAL     CB  159  -0.106  -0.059   1.411
   10VAL     HB  160  -0.070  -0.137   1.361
   10VAL    CG1  161  -0.152  -0.093   1.553
   10VAL   HG11  162  -0.076  -0.133   1.603
   10VAL   HG12  163  -0.182  -0.009   1.599
   10VAL   HG13  164  -0.228  -0.158   1.549
   10VAL    CG2  165   0.002   0.048   1.412
   10VAL   HG21  166   0.085   0.011   1.452
   10VAL   HG22  167   0.020   0.078   1.318
   10VAL   HG23  168  -0.029   0.126   1.466
   10VAL      C  169  -0.258  -0.080   1.410
   10VAL      O  170  -0.328  -0.118   1.450
   11PHE      N  171  -0.023  -0.179   1.430
   11PHE     HN  172   0.026  -0.168   1.343
   11PHE     CA  173   0.040  -0.227   1.500
   11PHE     HA  174   0.057  -0.136   1.539
   11PHE     CB  175  -0.002  -0.370   1.463
   11PHE    HB1  176   0.077  -0.418   1.424
   11PHE    HB2  177  -0.075  -0.366   1.395
   11PHE     CG  178  -0.053  -0.451   1.583
   11PHE    CD1  179   0.029  -0.539   1.657
   11PHE    HD1  180   0.125  -0.552   1.632
   11PHE    CE1  181  -0.026  -0.607   1.767
   11PHE    HE1  182   0.031  -0.670   1.820
   11PHE     CZ  183  -0.161  -0.587   1.801
   11PHE     HZ  184  -0.199  -0.636   1.879
   11PHE    CD2  185  -0.189  -0.431   1.618
   11PHE    HD2  186  -0.246  -0.369   1.565
   11PHE    CE2  187  -0.243  -0.500   1.727
   11PHE    HE2  188  -0.338  -0.487   1.753
   11PHE      C  189   0.123  -0.240   1.560
   11PHE      O  190   0.173  -0.303   1.600
   12PHE      N  191   0.180   0.009   1.580
   12PHE     HN  192   0.161   0.055   1.493
   12PHE     CA  193   0.216   0.079   1.650
   12PHE     HA  194   0.124   0.081   1.689
   12PHE     CB  195   0.365   0.061   1.612
   12PHE    HB1  196   0.398   0.147   1.572
   12PHE    HB2  197   0.373  -0.012   1.545
   12PHE     CG  198   0.452   0.027   1.733
   12PHE    CD1  199   0.524   0.124   1.807
   12PHE    HD1  200   0.520   0.220   1.781
   12PHE    CE1  201   0.601   0.083   1.916
   12PHE    HE1  202   0.653   0.150   1.970
   12PHE     CZ  203   0.606  -0.054   1.951
   12PHE     HZ  204   0.660  -0.083   2.030
   12PHE    CD2  205   0.457  -0.109   1.768
   12PHE    HD2  206   0.406  -0.177   1.715
   12PHE    CE2  207   0.535  -0.150   1.877
   12PHE    HE2  208   0.539  -0.246   1.903
   12PHE      C  209   0.215   0.163   1.710
   12PHE      O  210   0.268   0.223   1.750
   13ALA      N  211  -0.040   0.176   1.730
   13ALA     HN  212  -0.082   0.149   1.643
   13ALA     CA  213  -0.115   0.199   1.800
   13ALA     HA  214  -0.093   0.108   1.835
   13ALA     CB  215  -0.133   0.348   1.768
   13ALA    HB1  216  -0.059   0.379   1.709
   13ALA    HB2  217  -0.221   0.361   1.720
   13ALA    HB3  218  -0.133   0.401   1.852
   13ALA      C  219  -0.198   0.184   1.860
   13ALA      O  220  -0.266   0.225   1.900
   14GLY      N  221  -0.166  -0.070   1.880
   14GLY     HN  222  -0.133  -0.107   1.793
   14GLY     CA  223  -0.176  -0.148   1.950
   14GLY    HA1  224  -0.216  -0.094   2.025
   14GLY    HA2  225  -0.249  -0.198   1.903
   14GLY      C  226  -0.146  -0.227   2.010
   14GLY      O  227  -0.175  -0.301   2.050
   15SER      N  228   0.097  -0.151   2.030
   15SER     HN  229   0.128  -0.112   1.943
   15SER     CA  230   0.176  -0.148   2.100
   15SER     HA  231   0.217  -0.238   2.088
   15SER     CB  232   0.106  -0.018   2.133
   15SER    HB1  233   0.113   0.048   2.058
   15SER    HB2  234   0.143   0.024   2.216
   15SER     OG  235  -0.030  -0.052   2.154
   15SER    HG1  236  -0.082   0.031   2.176
   15SER      C  237   0.249  -0.105   2.160
   15SER      O  238   0.327  -0.120   2.200
   16SER      N  239   0.132   0.122   2.180
   16SER     HN  240   0.088   0.145   2.093
   16SER     CA  241   0.115   0.199   2.250
   16SER     HA  242   0.196   0.253   2.227
   16SER     CB  243   0.003   0.112   2.303
   16SER    HB1  244   0.026   0.015   2.296
   16SER    HB2  245  -0.083   0.130   2.256
   16SER     OG  246  -0.012   0.145   2.441
   16SER    HG1  247  -0.085   0.090   2.481
   16SER      C  248   0.060   0.263   2.310
   16SER      O  249   0.062   0.343   2.350
   17ASP      N  250  -0.143   0.109   2.330
   17ASP     HN  251  -0.159   0.062   2.243
   17ASP     CA  252  -0.216   0.079   2.400
   17ASP     HA  253  -0.134   0.028   2.425
   17ASP     CB  254  -0.335   0.176   2.379
   17ASP    HB1  255  -0.354   0.210   2.471
   17ASP    HB2  256  -0.410   0.117   2.350
   17ASP     CG  257  -0.350   0.301   2.289
   17ASP    OD1  258  -0.257   0.339   2.216
   17ASP    OD2  259  -0.459   0.362   2.294
   17ASP      C  260  -0.270   0.013   2.460
   17ASP      O  261  -0.349   0.001   2.500
   18LEU      N  262  -0.082  -0.160   2.480
   18LEU     HN  263  -0.033  -0.167   2.393
   18LEU     CA  264  -0.040  -0.227   2.550
   18LEU     HA  265  -0.004  -0.135   2.570
   18LEU     CB  266  -0.115  -0.361   2.536
   18LEU    HB1  267  -0.120  -0.401   2.628
   18LEU    HB2  268  -0.059  -0.419   2.478
   18LEU     CG  269  -0.259  -0.365   2.479
   18LEU     HG  270  -0.229  -0.337   2.388
   18LEU    CD1  271  -0.363  -0.260   2.519
   18LEU   HD11  272  -0.449  -0.279   2.472
   18LEU   HD12  273  -0.377  -0.263   2.617
   18LEU   HD13  274  -0.330  -0.169   2.493
   18LEU    CD2  275  -0.329  -0.502   2.474
   18LEU   HD21  276  -0.420  -0.491   2.435
   18LEU   HD22  277  -0.276  -0.564   2.417
   18LEU   HD23  278  -0.336  -0.539   2.566
   18LEU      C  279   0.034  -0.268   2.610
   18LEU      O  280   0.059  -0.344   2.650
   19ILE      N  281   0.172  -0.053   2.630
   19ILE     HN  282   0.170  -0.004   2.543
   19ILE     CA  283   0.230  -0.000   2.700
   19ILE     HA  284   0.307  -0.042   2.653
   19ILE     CB  285   0.122   0.049   2.794
   19ILE     HB  286   0.055   0.114   2.760
   19ILE    CG2  287   0.210   0.102   2.909
   19ILE   HG21  288   0.151   0.139   2.981
   19ILE   HG22  289   0.266   0.027   2.945
   19ILE   HG23  290   0.269   0.174   2.874
   19ILE    CG1  291   0.055  -0.082   2.842
   19ILE   HG11  292   0.013  -0.127   2.763
   19ILE   HG12  293  -0.016  -0.060   2.909
   19ILE     CD  294   0.154  -0.179   2.906
   19ILE    HD1  295   0.106  -0.262   2.935
   19ILE    HD2  296   0.226  -0.203   2.840
   19ILE    HD3  297   0.196  -0.136   2.986
   19ILE      C  298   0.258   0.080   2.760
   19ILE      O  299   0.328   0.118   2.800
   20ARG      N  300   0.023   0.179   2.780
   20ARG     HN  301  -0.026   0.168   2.693
   20ARG     CA  302  -0.040   0.227   2.850
   20ARG     HA  303  -0.007   0.306   2.799
   20ARG     CB  304  -0.078   0.120   2.951
   20ARG    HB1  305  -0.008   0.048   2.957
   20ARG    HB2  306  -0.166   0.078   2.929
   20ARG     CG  307  -0.084   0.208   3.079
   20ARG    HG1  308  -0.072   0.151   3.160
   20ARG    HG2  309  -0.173   0.254   3.084
   20ARG     CD  310   0.027   0.315   3.076
   20ARG    HD1  311   0.026   0.357   2.985
   20ARG    HD2  312   0.114   0.268   3.090
   20ARG     NE  313   0.025   0.427   3.172
   20ARG     HE  314  -0.063   0.472   3.186
   20ARG     CZ  315   0.128   0.475   3.243
   20ARG    NH1  316   0.250   0.418   3.230
   20ARG   HH11  317   0.263   0.341   3.168
   20ARG   HH12  318   0.327   0.453   3.283
   20ARG    NH2  319   0.111   0.578   3.326
   20ARG   HH21  320   0.021   0.620   3.335
   20ARG   HH22  321   0.188   0.613   3.379
   20ARG      C  322  -0.123   0.240   2.910
   20ARG      O  323  -0.173   0.303   2.950
   21ARG      N  324  -0.180  -0.009   2.930
   21ARG     HN  325  -0.161  -0.055   2.843
   21ARG     CA  326  -0.216  -0.079   3.000
   21ARG     HA  327  -0.309  -0.056   2.971
   21ARG     CB  328  -0.080  -0.106   3.064
   21ARG    HB1  329  -0.017  -0.030   3.050
   21ARG    HB2  330  -0.039  -0.190   3.029
   21ARG     CG  331  -0.123  -0.119   3.214
   21ARG    HG1  332  -0.044  -0.101   3.272
   21ARG    HG2  333  -0.157  -0.212   3.230
   21ARG     CD  334  -0.235  -0.018   3.248
   21ARG    HD1  335  -0.272   0.018   3.162
   21ARG    HD2  336  -0.194   0.057   3.301
   21ARG     NE  337  -0.354  -0.060   3.326
   21ARG     HE  338  -0.369  -0.157   3.340
   21ARG     CZ  339  -0.442   0.026   3.379
   21ARG    NH1  340  -0.421   0.158   3.362
   21ARG   HH11  341  -0.341   0.190   3.311
   21ARG   HH12  342  -0.485   0.224   3.401
   21ARG    NH2  343  -0.549  -0.018   3.448
   21ARG   HH21  344  -0.563  -0.116   3.460
   21ARG   HH22  345  -0.613   0.047   3.487
   21ARG      C  346  -0.215  -0.163   3.060
   21ARG    OT1  347  -0.104  -0.241   3.055
   21ARG    OT2  348  -0.325  -0.186   3.137
   1.29352   1.42142   3.64404
