GROup of MAchos and Cynical Suckers
17379
    1MET      N    1   3.053   2.798   1.246
    1MET     H1    2   3.093   2.707   1.232
    1MET     H2    3   2.960   2.789   1.280
    1MET     H3    4   3.052   2.847   1.159
    1MET     CA    5   3.111   2.851   1.316
    1MET     HA    6   3.167   2.905   1.253
    1MET     CB    7   3.061   2.747   1.416
    1MET    HB1    8   2.963   2.758   1.433
    1MET    HB2    9   3.111   2.753   1.502
    1MET     CG   10   3.091   2.617   1.341
    1MET    HG1   11   3.190   2.625   1.324
    1MET    HG2   12   3.042   2.631   1.255
    1MET     SD   13   3.052   2.454   1.412
    1MET     CE   14   2.871   2.448   1.426
    1MET    HE1   15   2.844   2.360   1.465
    1MET    HE2   16   2.840   2.522   1.486
    1MET    HE3   17   2.830   2.458   1.336
    1MET      C   18   3.139   2.931   1.376
    1MET      O   19   3.209   2.969   1.416
    2LYS      N   20   2.904   3.030   1.396
    2LYS     HN   21   2.855   3.019   1.309
    2LYS     CA   22   2.841   3.078   1.466
    2LYS     HA   23   2.844   2.983   1.500
    2LYS     CB   24   2.859   3.228   1.435
    2LYS    HB1   25   2.848   3.276   1.521
    2LYS    HB2   26   2.784   3.252   1.373
    2LYS     CG   27   2.987   3.284   1.371
    2LYS    HG1   28   3.005   3.238   1.284
    2LYS    HG2   29   3.065   3.270   1.432
    2LYS     CD   30   2.963   3.434   1.348
    2LYS    HD1   31   2.881   3.444   1.291
    2LYS    HD2   32   2.947   3.477   1.437
    2LYS     CE   33   3.079   3.506   1.280
    2LYS    HE1   34   3.054   3.602   1.266
    2LYS    HE2   35   3.096   3.464   1.191
    2LYS     NZ   36   3.205   3.503   1.357
    2LYS    HZ1   37   3.276   3.552   1.306
    2LYS    HZ2   38   3.191   3.546   1.446
    2LYS    HZ3   39   3.233   3.408   1.370
    2LYS      C   40   2.758   3.091   1.526
    2LYS      O   41   2.708   3.154   1.566
    3LEU      N   42   2.701   2.842   1.546
    3LEU     HN   43   2.720   2.796   1.459
    3LEU     CA   44   2.665   2.772   1.616
    3LEU     HA   45   2.761   2.785   1.639
    3LEU     CB   46   2.511   2.772   1.599
    3LEU    HB1   47   2.472   2.758   1.690
    3LEU    HB2   48   2.489   2.693   1.541
    3LEU     CG   49   2.440   2.894   1.537
    3LEU     HG   50   2.482   2.881   1.447
    3LEU    CD1   51   2.479   3.037   1.575
    3LEU   HD11   52   2.422   3.102   1.524
    3LEU   HD12   53   2.466   3.050   1.673
    3LEU   HD13   54   2.575   3.052   1.551
    3LEU    CD2   55   2.286   2.888   1.528
    3LEU   HD21   56   2.252   2.973   1.486
    3LEU   HD22   57   2.259   2.810   1.472
    3LEU   HD23   58   2.248   2.878   1.620
    3LEU      C   59   2.666   2.688   1.676
    3LEU      O   60   2.613   2.628   1.716
    4ALA      N   61   2.921   2.675   1.696
    4ALA     HN   62   2.963   2.702   1.609
    4ALA     CA   63   2.996   2.652   1.766
    4ALA     HA   64   2.974   2.743   1.800
    4ALA     CB   65   3.015   2.503   1.735
    4ALA    HB1   66   2.940   2.471   1.676
    4ALA    HB2   67   3.102   2.489   1.689
    4ALA    HB3   68   3.014   2.451   1.821
    4ALA      C   69   3.079   2.667   1.826
    4ALA      O   70   3.147   2.626   1.866
    5VAL      N   71   3.047   2.921   1.846
    5VAL     HN   72   3.014   2.958   1.759
    5VAL     CA   73   3.057   2.999   1.916
    5VAL     HA   74   3.152   3.017   1.892
    5VAL     CB   75   2.922   2.963   1.970
    5VAL     HB   76   2.846   3.001   1.918
    5VAL    CG1   77   2.928   3.017   2.114
    5VAL   HG11   78   2.841   2.998   2.160
    5VAL   HG12   79   3.003   2.972   2.163
    5VAL   HG13   80   2.944   3.116   2.112
    5VAL    CG2   81   2.905   2.812   1.967
    5VAL   HG21   82   2.815   2.788   2.003
    5VAL   HG22   83   2.913   2.780   1.873
    5VAL   HG23   84   2.976   2.769   2.023
    5VAL      C   85   3.027   3.078   1.976
    5VAL      O   86   3.056   3.152   2.016
    6PHE      N   87   2.784   3.002   1.996
    6PHE     HN   88   2.753   2.963   1.909
    6PHE     CA   89   2.705   2.999   2.066
    6PHE     HA   90   2.749   2.918   2.105
    6PHE     CB   91   2.644   3.136   2.028
    6PHE    HB1   92   2.555   3.121   1.984
    6PHE    HB2   93   2.706   3.182   1.963
    6PHE     CG   94   2.624   3.231   2.147
    6PHE    CD1   95   2.503   3.237   2.221
    6PHE    HD1   96   2.426   3.179   2.197
    6PHE    CE1   97   2.494   3.326   2.331
    6PHE    HE1   98   2.409   3.332   2.384
    6PHE     CZ   99   2.605   3.406   2.364
    6PHE     HZ  100   2.598   3.469   2.441
    6PHE    CD2  101   2.734   3.312   2.182
    6PHE    HD2  102   2.818   3.307   2.129
    6PHE    CE2  103   2.724   3.400   2.290
    6PHE    HE2  104   2.802   3.459   2.315
    6PHE      C  105   2.632   2.956   2.126
    6PHE      O  106   2.554   2.971   2.166
    7ALA      N  107   2.749   2.729   2.146
    7ALA     HN  108   2.793   2.706   2.059
    7ALA     CA  109   2.766   2.652   2.216
    7ALA     HA  110   2.834   2.717   2.251
    7ALA     CB  111   2.646   2.561   2.183
    7ALA    HB1  112   2.582   2.610   2.124
    7ALA    HB2  113   2.679   2.479   2.136
    7ALA    HB3  114   2.600   2.535   2.268
    7ALA      C  115   2.821   2.588   2.276
    7ALA      O  116   2.819   2.508   2.316
    8LEU      N  117   3.024   2.742   2.296
    8LEU     HN  118   3.040   2.789   2.209
    8LEU     CA  119   3.097   2.772   2.366
    8LEU     HA  120   3.014   2.824   2.386
    8LEU     CB  121   3.216   2.674   2.352
    8LEU    HB1  122   3.255   2.662   2.443
    8LEU    HB2  123   3.283   2.719   2.293
    8LEU     CG  124   3.193   2.532   2.294
    8LEU     HG  125   3.170   2.567   2.203
    8LEU    CD1  126   3.071   2.449   2.333
    8LEU   HD11  127   3.074   2.361   2.285
    8LEU   HD12  128   3.072   2.434   2.431
    8LEU   HD13  129   2.988   2.498   2.307
    8LEU    CD2  130   3.315   2.439   2.288
    8LEU   HD21  131   3.288   2.351   2.249
    8LEU   HD22  132   3.386   2.480   2.231
    8LEU   HD23  133   3.351   2.425   2.380
    8LEU      C  134   3.151   2.838   2.426
    8LEU      O  135   3.230   2.850   2.466
    9LEU      N  136   2.963   3.011   2.446
    9LEU     HN  137   2.914   3.018   2.359
    9LEU     CA  138   2.921   3.078   2.516
    9LEU     HA  139   2.884   2.987   2.535
    9LEU     CB  140   2.997   3.212   2.503
    9LEU    HB1  141   3.002   3.252   2.595
    9LEU    HB2  142   2.942   3.271   2.444
    9LEU     CG  143   3.141   3.212   2.446
    9LEU     HG  144   3.112   3.183   2.355
    9LEU    CD1  145   3.242   3.105   2.487
    9LEU   HD11  146   3.329   3.122   2.440
    9LEU   HD12  147   3.257   3.109   2.586
    9LEU   HD13  148   3.208   3.015   2.462
    9LEU    CD2  149   3.214   3.347   2.443
    9LEU   HD21  150   3.305   3.335   2.404
    9LEU   HD22  151   3.162   3.411   2.386
    9LEU   HD23  152   3.221   3.383   2.535
    9LEU      C  153   2.847   3.119   2.576
    9LEU      O  154   2.822   3.195   2.616
   10VAL      N  155   2.709   2.904   2.596
   10VAL     HN  156   2.711   2.855   2.509
   10VAL     CA  157   2.651   2.851   2.666
   10VAL     HA  158   2.567   2.898   2.638
   10VAL     CB  159   2.775   2.792   2.727
   10VAL     HB  160   2.811   2.714   2.677
   10VAL    CG1  161   2.729   2.758   2.869
   10VAL   HG11  162   2.805   2.718   2.919
   10VAL   HG12  163   2.699   2.842   2.915
   10VAL   HG13  164   2.653   2.693   2.865
   10VAL    CG2  165   2.883   2.899   2.728
   10VAL   HG21  166   2.966   2.862   2.768
   10VAL   HG22  167   2.901   2.929   2.634
   10VAL   HG23  168   2.852   2.977   2.782
   10VAL      C  169   2.623   2.771   2.726
   10VAL      O  170   2.553   2.733   2.766
   11PHE      N  171   2.858   2.672   2.746
   11PHE     HN  172   2.907   2.683   2.659
   11PHE     CA  173   2.921   2.624   2.816
   11PHE     HA  174   2.938   2.715   2.855
   11PHE     CB  175   2.879   2.481   2.779
   11PHE    HB1  176   2.958   2.433   2.740
   11PHE    HB2  177   2.806   2.485   2.711
   11PHE     CG  178   2.828   2.400   2.899
   11PHE    CD1  179   2.910   2.312   2.973
   11PHE    HD1  180   3.006   2.299   2.948
   11PHE    CE1  181   2.855   2.244   3.083
   11PHE    HE1  182   2.912   2.181   3.136
   11PHE     CZ  183   2.720   2.264   3.117
   11PHE     HZ  184   2.682   2.215   3.195
   11PHE    CD2  185   2.692   2.420   2.934
   11PHE    HD2  186   2.635   2.482   2.881
   11PHE    CE2  187   2.638   2.351   3.043
   11PHE    HE2  188   2.543   2.364   3.069
   11PHE      C  189   3.004   2.611   2.876
   11PHE      O  190   3.054   2.548   2.916
   12PHE      N  191   3.061   2.860   2.896
   12PHE     HN  192   3.042   2.906   2.809
   12PHE     CA  193   3.097   2.930   2.966
   12PHE     HA  194   3.005   2.932   3.005
   12PHE     CB  195   3.246   2.912   2.928
   12PHE    HB1  196   3.279   2.998   2.888
   12PHE    HB2  197   3.254   2.839   2.861
   12PHE     CG  198   3.333   2.878   3.049
   12PHE    CD1  199   3.405   2.975   3.123
   12PHE    HD1  200   3.401   3.071   3.097
   12PHE    CE1  201   3.482   2.934   3.232
   12PHE    HE1  202   3.534   3.001   3.286
   12PHE     CZ  203   3.487   2.797   3.267
   12PHE     HZ  204   3.541   2.768   3.346
   12PHE    CD2  205   3.338   2.742   3.084
   12PHE    HD2  206   3.287   2.674   3.031
   12PHE    CE2  207   3.416   2.701   3.193
   12PHE    HE2  208   3.420   2.605   3.219
   12PHE      C  209   3.096   3.014   3.026
   12PHE      O  210   3.149   3.074   3.066
   13ALA      N  211   2.841   3.027   3.046
   13ALA     HN  212   2.799   3.000   2.959
   13ALA     CA  213   2.766   3.050   3.116
   13ALA     HA  214   2.788   2.959   3.151
   13ALA     CB  215   2.748   3.199   3.084
   13ALA    HB1  216   2.822   3.230   3.025
   13ALA    HB2  217   2.660   3.212   3.036
   13ALA    HB3  218   2.748   3.252   3.168
   13ALA      C  219   2.683   3.035   3.176
   13ALA      O  220   2.615   3.076   3.216
   14GLY      N  221   2.715   2.781   3.196
   14GLY     HN  222   2.748   2.744   3.109
   14GLY     CA  223   2.705   2.703   3.266
   14GLY    HA1  224   2.665   2.757   3.341
   14GLY    HA2  225   2.632   2.653   3.219
   14GLY      C  226   2.735   2.624   3.326
   14GLY      O  227   2.706   2.550   3.366
   15SER      N  228   2.978   2.700   3.346
   15SER     HN  229   3.009   2.739   3.259
   15SER     CA  230   3.057   2.703   3.416
   15SER     HA  231   3.098   2.613   3.404
   15SER     CB  232   2.987   2.833   3.449
   15SER    HB1  233   2.994   2.899   3.374
   15SER    HB2  234   3.024   2.875   3.532
   15SER     OG  235   2.851   2.799   3.470
   15SER    HG1  236   2.799   2.882   3.492
   15SER      C  237   3.130   2.746   3.476
   15SER      O  238   3.208   2.731   3.516
   16SER      N  239   3.013   2.973   3.496
   16SER     HN  240   2.969   2.996   3.409
   16SER     CA  241   2.996   3.050   3.566
   16SER     HA  242   3.077   3.104   3.543
   16SER     CB  243   2.884   2.963   3.619
   16SER    HB1  244   2.907   2.866   3.612
   16SER    HB2  245   2.798   2.981   3.572
   16SER     OG  246   2.869   2.996   3.757
   16SER    HG1  247   2.796   2.941   3.797
   16SER      C  248   2.941   3.114   3.626
   16SER      O  249   2.943   3.194   3.666
   17ASP      N  250   2.738   2.960   3.646
   17ASP     HN  251   2.722   2.913   3.559
   17ASP     CA  252   2.665   2.930   3.716
   17ASP     HA  253   2.747   2.879   3.741
   17ASP     CB  254   2.546   3.027   3.695
   17ASP    HB1  255   2.527   3.061   3.787
   17ASP    HB2  256   2.471   2.968   3.666
   17ASP     CG  257   2.531   3.152   3.605
   17ASP    OD1  258   2.624   3.190   3.532
   17ASP    OD2  259   2.422   3.213   3.610
   17ASP      C  260   2.611   2.864   3.776
   17ASP      O  261   2.532   2.852   3.816
   18LEU      N  262   2.799   2.691   3.796
   18LEU     HN  263   2.848   2.684   3.709
   18LEU     CA  264   2.841   2.624   3.866
   18LEU     HA  265   2.877   2.716   3.886
   18LEU     CB  266   2.766   2.490   3.852
   18LEU    HB1  267   2.761   2.450   3.944
   18LEU    HB2  268   2.822   2.432   3.794
   18LEU     CG  269   2.622   2.486   3.795
   18LEU     HG  270   2.652   2.514   3.704
   18LEU    CD1  271   2.518   2.591   3.835
   18LEU   HD11  272   2.432   2.572   3.788
   18LEU   HD12  273   2.504   2.588   3.933
   18LEU   HD13  274   2.551   2.682   3.809
   18LEU    CD2  275   2.552   2.349   3.790
   18LEU   HD21  276   2.461   2.360   3.751
   18LEU   HD22  277   2.605   2.287   3.733
   18LEU   HD23  278   2.545   2.312   3.882
   18LEU      C  279   2.915   2.583   3.926
   18LEU      O  280   2.940   2.507   3.966
   19ILE      N  281   3.053   2.798   3.946
   19ILE     HN  282   3.051   2.847   3.859
   19ILE     CA  283   3.111   2.851   4.016
   19ILE     HA  284   3.188   2.809   3.969
   19ILE     CB  285   3.003   2.900   4.110
   19ILE     HB  286   2.936   2.965   4.076
   19ILE    CG2  287   3.091   2.953   4.225
   19ILE   HG21  288   3.032   2.990   4.297
   19ILE   HG22  289   3.147   2.878   4.261
   19ILE   HG23  290   3.150   3.025   4.190
   19ILE    CG1  291   2.936   2.769   4.158
   19ILE   HG11  292   2.894   2.724   4.079
   19ILE   HG12  293   2.865   2.791   4.225
   19ILE     CD  294   3.035   2.672   4.222
   19ILE    HD1  295   2.987   2.589   4.251
   19ILE    HD2  296   3.107   2.648   4.156
   19ILE    HD3  297   3.077   2.715   4.302
   19ILE      C  298   3.139   2.931   4.076
   19ILE      O  299   3.209   2.969   4.116
   20ARG      N  300   2.904   3.030   4.096
   20ARG     HN  301   2.855   3.019   4.009
   20ARG     CA  302   2.841   3.078   4.166
   20ARG     HA  303   2.874   3.157   4.115
   20ARG     CB  304   2.803   2.971   4.267
   20ARG    HB1  305   2.873   2.899   4.273
   20ARG    HB2  306   2.715   2.929   4.245
   20ARG     CG  307   2.797   3.059   4.395
   20ARG    HG1  308   2.809   3.002   4.476
   20ARG    HG2  309   2.708   3.105   4.400
   20ARG     CD  310   2.908   3.166   4.392
   20ARG    HD1  311   2.907   3.208   4.301
   20ARG    HD2  312   2.995   3.119   4.406
   20ARG     NE  313   2.906   3.278   4.488
   20ARG     HE  314   2.818   3.323   4.502
   20ARG     CZ  315   3.009   3.326   4.559
   20ARG    NH1  316   3.131   3.269   4.546
   20ARG   HH11  317   3.144   3.192   4.484
   20ARG   HH12  318   3.208   3.304   4.599
   20ARG    NH2  319   2.992   3.429   4.642
   20ARG   HH21  320   2.902   3.471   4.651
   20ARG   HH22  321   3.069   3.464   4.695
   20ARG      C  322   2.758   3.091   4.226
   20ARG      O  323   2.708   3.154   4.266
   21ARG      N  324   2.701   2.842   4.246
   21ARG     HN  325   2.720   2.796   4.159
   21ARG     CA  326   2.665   2.772   4.316
   21ARG     HA  327   2.572   2.795   4.287
   21ARG     CB  328   2.801   2.745   4.380
   21ARG    HB1  329   2.864   2.821   4.366
   21ARG    HB2  330   2.842   2.661   4.345
   21ARG     CG  331   2.758   2.732   4.530
   21ARG    HG1  332   2.837   2.750   4.588
   21ARG    HG2  333   2.724   2.639   4.546
   21ARG     CD  334   2.646   2.833   4.564
   21ARG    HD1  335   2.609   2.869   4.478
   21ARG    HD2  336   2.687   2.908   4.617
   21ARG     NE  337   2.527   2.791   4.642
   21ARG     HE  338   2.512   2.694   4.656
   21ARG     CZ  339   2.439   2.877   4.695
   21ARG    NH1  340   2.460   3.009   4.678
   21ARG   HH11  341   2.540   3.041   4.627
   21ARG   HH12  342   2.396   3.075   4.717
   21ARG    NH2  343   2.332   2.833   4.764
   21ARG   HH21  344   2.318   2.735   4.776
   21ARG   HH22  345   2.268   2.898   4.803
   21ARG      C  346   2.666   2.688   4.376
   21ARG    OT1  347   2.777   2.610   4.371
   21ARG    OT2  348   2.556   2.665   4.453
   22SOL     OW  349   0.230   0.628   0.113
   22SOL    HW1  350   0.137   0.626   0.150
   22SOL    HW2  351   0.231   0.589   0.021
   23SOL     OW  352   0.225   0.275   0.996
   23SOL    HW1  353   0.260   0.258   1.088
   23SOL    HW2  354   0.137   0.230   0.984
   24SOL     OW  355   0.019   0.368   0.647
   24SOL    HW1  356  -0.063   0.411   0.686
   24SOL    HW2  357  -0.009   0.295   0.584
   25SOL     OW  358   0.569   1.275   1.165
   25SOL    HW1  359   0.476   1.268   1.128
   25SOL    HW2  360   0.580   1.364   1.209
   26SOL     OW  361   1.555   1.511   0.703
   26SOL    HW1  362   1.498   1.495   0.784
   26SOL    HW2  363   1.496   1.521   0.623
   27SOL     OW  364   1.135   0.703   0.717
   27SOL    HW1  365   1.192   0.781   0.692
   27SOL    HW2  366   1.075   0.729   0.793
   28SOL     OW  367   1.755   0.607   0.231
   28SOL    HW1  368   1.743   0.594   0.132
   28SOL    HW2  369   1.725   0.526   0.280
   29SOL     OW  370   0.768   1.144   1.023
   29SOL    HW1  371   0.690   1.161   1.083
   29SOL    HW2  372   0.802   1.231   0.987
   30SOL     OW  373   0.850   0.798   1.823
   30SOL    HW1  374   0.846   0.874   1.888
   30SOL    HW2  375   0.872   0.834   1.732
   31SOL     OW  376   0.685   1.012   0.665
   31SOL    HW1  377   0.754   0.996   0.735
   31SOL    HW2  378   0.612   1.069   0.703
   32SOL     OW  379   0.686   1.161   1.803
   32SOL    HW1  380   0.746   1.240   1.817
   32SOL    HW2  381   0.600   1.192   1.762
   33SOL     OW  382   0.335   1.435   1.061
   33SOL    HW1  383   0.257   1.404   1.008
   33SOL    HW2  384   0.393   1.493   1.004
   34SOL     OW  385   1.460   1.505   1.339
   34SOL    HW1  386   1.484   1.599   1.365
   34SOL    HW2  387   1.444   1.451   1.421
   35SOL     OW  388   0.438   0.392   1.499
   35SOL    HW1  389   0.520   0.336   1.508
   35SOL    HW2  390   0.357   0.334   1.503
   36SOL     OW  391   1.603   0.447   0.737
   36SOL    HW1  392   1.529   0.493   0.687
   36SOL    HW2  393   1.654   0.515   0.790
   37SOL     OW  394   0.231   1.713   0.483
   37SOL    HW1  395   0.265   1.790   0.537
   37SOL    HW2  396   0.275   1.713   0.393
   38SOL     OW  397   1.127   1.341   1.690
   38SOL    HW1  398   1.174   1.341   1.778
   38SOL    HW2  399   1.079   1.254   1.679
   39SOL     OW  400   0.230   1.434   0.538
   39SOL    HW1  401   0.204   1.530   0.538
   39SOL    HW2  402   0.159   1.380   0.583
   40SOL     OW  403   0.240   1.091   0.886
   40SOL    HW1  404   0.254   1.007   0.938
   40SOL    HW2  405   0.185   1.155   0.941
   41SOL     OW  406   0.620   1.786   1.439
   41SOL    HW1  407   0.528   1.769   1.474
   41SOL    HW2  408   0.648   1.878   1.465
   42SOL     OW  409   0.606   0.964   0.123
   42SOL    HW1  410   0.613   1.048   0.069
   42SOL    HW2  411   0.652   0.977   0.211
   43SOL     OW  412   1.594   0.114   1.480
   43SOL    HW1  413   1.576   0.181   1.408
   43SOL    HW2  414   1.591   0.160   1.569
   44SOL     OW  415   0.122   0.643   0.563
   44SOL    HW1  416   0.077   0.555   0.580
   44SOL    HW2  417   0.121   0.697   0.647
   45SOL     OW  418   1.842   1.767   0.359
   45SOL    HW1  419   1.896   1.738   0.439
   45SOL    HW2  420   1.872   1.857   0.330
   46SOL     OW  421   0.027   1.596   0.117
   46SOL    HW1  422   0.008   1.500   0.138
   46SOL    HW2  423  -0.006   1.654   0.192
   47SOL     OW  424   1.689   0.922   0.612
   47SOL    HW1  425   1.784   0.893   0.620
   47SOL    HW2  426   1.681   0.987   0.537
   48SOL     OW  427   1.641   1.108   0.432
   48SOL    HW1  428   1.727   1.110   0.380
   48SOL    HW2  429   1.655   1.155   0.520
   49SOL     OW  430   0.113   0.737   1.597
   49SOL    HW1  431   0.201   0.724   1.642
   49SOL    HW2  432   0.100   0.834   1.575
   50SOL     OW  433   0.613   1.365   0.726
   50SOL    HW1  434   0.564   1.278   0.735
   50SOL    HW2  435   0.590   1.408   0.639
   51SOL     OW  436   1.293   1.228   1.423
   51SOL    HW1  437   1.330   1.155   1.365
   51SOL    HW2  438   1.345   1.233   1.508
   52SOL     OW  439   0.809   0.004   0.502
   52SOL    HW1  440   0.849   0.095   0.493
   52SOL    HW2  441   0.709   0.012   0.508
   53SOL     OW  442   0.197   0.976   1.264
   53SOL    HW1  443   0.286   0.931   1.250
   53SOL    HW2  444   0.124   0.911   1.245
   54SOL     OW  445   1.525   0.999   0.190
   54SOL    HW1  446   1.462   0.923   0.203
   54SOL    HW2  447   1.573   1.017   0.276
   55SOL     OW  448   1.187   1.792   1.616
   55SOL    HW1  449   1.211   1.852   1.540
   55SOL    HW2  450   1.194   1.697   1.586
   56SOL     OW  451   0.317   0.251   1.801
   56SOL    HW1  452   0.388   0.322   1.807
   56SOL    HW2  453   0.229   0.290   1.829
   57SOL     OW  454   1.466   1.417   0.953
   57SOL    HW1  455   1.407   1.423   1.033
   57SOL    HW2  456   1.451   1.329   0.907
   58SOL     OW  457   1.667   1.714   0.572
   58SOL    HW1  458   1.626   1.691   0.484
   58SOL    HW2  459   1.649   1.640   0.637
   59SOL     OW  460   0.598   0.729   0.270
   59SOL    HW1  461   0.622   0.798   0.202
   59SOL    HW2  462   0.520   0.762   0.324
   60SOL     OW  463   1.281   0.345   0.944
   60SOL    HW1  464   1.195   0.295   0.931
   60SOL    HW2  465   1.343   0.291   1.000
   61SOL     OW  466   1.576   1.662   0.307
   61SOL    HW1  467   1.665   1.708   0.310
   61SOL    HW2  468   1.555   1.638   0.212
   62SOL     OW  469   0.807   0.605   1.465
   62SOL    HW1  470   0.760   0.602   1.554
   62SOL    HW2  471   0.756   0.550   1.399
   63SOL     OW  472   1.394   0.469   1.674
   63SOL    HW1  473   1.374   0.512   1.762
   63SOL    HW2  474   1.472   0.407   1.683
   64SOL     OW  475   0.973   0.890   1.572
   64SOL    HW1  476   1.019   0.806   1.543
   64SOL    HW2  477   0.917   0.924   1.497
   65SOL     OW  478   0.991   0.410   1.242
   65SOL    HW1  479   0.914   0.444   1.296
   65SOL    HW2  480   0.957   0.359   1.163
   66SOL     OW  481   1.041   0.701   0.429
   66SOL    HW1  482   1.067   0.697   0.525
   66SOL    HW2  483   0.956   0.650   0.415
   67SOL     OW  484   0.076   0.811   0.789
   67SOL    HW1  485   0.175   0.799   0.798
   67SOL    HW2  486   0.052   0.906   0.810
   68SOL     OW  487   0.130   1.821   1.571
   68SOL    HW1  488   0.120   1.806   1.670
   68SOL    HW2  489   0.044   1.857   1.535
   69SOL     OW  490   0.865   0.348   0.195
   69SOL    HW1  491   0.924   0.411   0.146
   69SOL    HW2  492   0.884   0.254   0.166
   70SOL     OW  493   1.719   0.585   1.831
   70SOL    HW1  494   1.693   0.674   1.795
   70SOL    HW2  495   1.717   0.517   1.758
   71SOL     OW  496   1.362   1.144   0.545
   71SOL    HW1  497   1.445   1.115   0.497
   71SOL    HW2  498   1.313   1.211   0.489
   72SOL     OW  499   0.550   0.196   0.885
   72SOL    HW1  500   0.545   0.191   0.985
   72SOL    HW2  501   0.552   0.292   0.856
   73SOL     OW  502   1.008   1.456   0.477
   73SOL    HW1  503   0.962   1.528   0.425
   73SOL    HW2  504   1.004   1.476   0.575
   74SOL     OW  505   0.351   1.801   0.853
   74SOL    HW1  506   0.401   1.715   0.859
   74SOL    HW2  507   0.416   1.878   0.850
   75SOL     OW  508   1.795   1.066   0.873
   75SOL    HW1  509   1.733   1.051   0.797
   75SOL    HW2  510   1.743   1.077   0.958
   76SOL     OW  511   1.227   1.550   1.506
   76SOL    HW1  512   1.233   1.473   1.570
   76SOL    HW2  513   1.175   1.524   1.426
   77SOL     OW  514   0.321   0.943   0.242
   77SOL    HW1  515   0.403   0.982   0.200
   77SOL    HW2  516   0.294   0.861   0.193
   78SOL     OW  517   1.458   0.735   0.728
   78SOL    HW1  518   1.453   0.670   0.803
   78SOL    HW2  519   1.538   0.794   0.741
   79SOL     OW  520   0.461   1.266   1.727
   79SOL    HW1  521   0.411   1.267   1.641
   79SOL    HW2  522   0.398   1.248   1.803
   80SOL     OW  523   1.111   1.776   0.237
   80SOL    HW1  524   1.051   1.714   0.287
   80SOL    HW2  525   1.142   1.732   0.152
   81SOL     OW  526   0.202   0.285   1.498
   81SOL    HW1  527   0.122   0.345   1.485
   81SOL    HW2  528   0.192   0.236   1.584
   82SOL     OW  529   1.632   1.377   0.081
   82SOL    HW1  530   1.600   1.471   0.071
   82SOL    HW2  531   1.556   1.314   0.069
   83SOL     OW  532   0.464   1.743   0.323
   83SOL    HW1  533   0.497   1.782   0.409
   83SOL    HW2  534   0.540   1.736   0.258
   84SOL     OW  535   1.400   0.107   0.426
   84SOL    HW1  536   1.376   0.070   0.336
   84SOL    HW2  537   1.499   0.123   0.430
   85SOL     OW  538   0.249   1.785   1.241
   85SOL    HW1  539   0.306   1.720   1.291
   85SOL    HW2  540   0.233   1.752   1.148
   86SOL     OW  541   0.940   1.698   0.904
   86SOL    HW1  542   1.020   1.641   0.925
   86SOL    HW2  543   0.891   1.658   0.827
   87SOL     OW  544   0.382   0.700   0.480
   87SOL    HW1  545   0.427   0.610   0.477
   87SOL    HW2  546   0.288   0.689   0.513
   88SOL     OW  547   1.547   0.222   1.729
   88SOL    HW1  548   1.542   0.259   1.821
   88SOL    HW2  549   1.475   0.153   1.717
   89SOL     OW  550   0.614   0.122   0.117
   89SOL    HW1  551   0.712   0.100   0.124
   89SOL    HW2  552   0.583   0.105   0.024
   90SOL     OW  553   0.781   0.264   1.749
   90SOL    HW1  554   0.848   0.203   1.792
   90SOL    HW2  555   0.708   0.283   1.814
   91SOL     OW  556   0.888   1.514   1.195
   91SOL    HW1  557   0.865   1.489   1.101
   91SOL    HW2  558   0.949   1.445   1.234
   92SOL     OW  559   1.351   0.590   1.433
   92SOL    HW1  560   1.379   0.547   1.518
   92SOL    HW2  561   1.376   0.686   1.434
   93SOL     OW  562   0.803   1.402   0.924
   93SOL    HW1  563   0.893   1.416   0.882
   93SOL    HW2  564   0.732   1.404   0.853
   94SOL     OW  565   0.922   0.503   0.899
   94SOL    HW1  566   0.897   0.494   0.803
   94SOL    HW2  567   0.970   0.421   0.930
   95SOL     OW  568   0.539   0.064   0.512
   95SOL    HW1  569   0.458   0.065   0.570
   95SOL    HW2  570   0.542   0.147   0.457
   96SOL     OW  571   1.434   1.188   0.041
   96SOL    HW1  572   1.466   1.112   0.098
   96SOL    HW2  573   1.342   1.215   0.071
   97SOL     OW  574   0.297   0.035   0.171
   97SOL    HW1  575   0.346   0.119   0.150
   97SOL    HW2  576   0.359  -0.030   0.216
   98SOL     OW  577   0.935   0.236   0.480
   98SOL    HW1  578   0.887   0.277   0.402
   98SOL    HW2  579   1.034   0.234   0.461
   99SOL     OW  580   1.076   0.683   1.464
   99SOL    HW1  581   0.996   0.622   1.467
   99SOL    HW2  582   1.157   0.630   1.440
  100SOL     OW  583   1.227   1.570   0.793
  100SOL    HW1  584   1.248   1.644   0.728
  100SOL    HW2  585   1.295   1.570   0.866
  101SOL     OW  586   0.459   1.152   0.741
  101SOL    HW1  587   0.388   1.125   0.806
  101SOL    HW2  588   0.433   1.124   0.648
  102SOL     OW  589   1.271   1.797   0.591
  102SOL    HW1  590   1.315   1.861   0.527
  102SOL    HW2  591   1.221   1.849   0.661
  103SOL     OW  592   1.032   0.549   0.016
  103SOL    HW1  593   0.991   0.631  -0.023
  103SOL    HW2  594   1.096   0.575   0.089
  104SOL     OW  595   0.078   0.556   1.386
  104SOL    HW1  596   0.170   0.555   1.345
  104SOL    HW2  597   0.072   0.630   1.453
  105SOL     OW  598   0.561   0.222   1.147
  105SOL    HW1  599   0.599   0.138   1.184
  105SOL    HW2  600   0.473   0.241   1.191
  106SOL     OW  601   0.866   0.454   0.642
  106SOL    HW1  602   0.834   0.526   0.580
  106SOL    HW2  603   0.890   0.373   0.589
  107SOL     OW  604   1.017   0.039   0.753
  107SOL    HW1  605   0.945   0.044   0.684
  107SOL    HW2  606   0.993  -0.030   0.822
  108SOL     OW  607   1.429   1.173   0.867
  108SOL    HW1  608   1.374   1.089   0.860
  108SOL    HW2  609   1.455   1.202   0.775
  109SOL     OW  610   1.466   0.590   0.992
  109SOL    HW1  611   1.436   0.495   0.999
  109SOL    HW2  612   1.539   0.606   1.058
  110SOL     OW  613   1.857   0.833   0.377
  110SOL    HW1  614   1.899   0.769   0.441
  110SOL    HW2  615   1.819   0.782   0.299
  111SOL     OW  616   0.488   1.385   0.174
  111SOL    HW1  617   0.401   1.370   0.221
  111SOL    HW2  618   0.471   1.411   0.079
  112SOL     OW  619   1.664   1.280   0.657
  112SOL    HW1  620   1.763   1.288   0.671
  112SOL    HW2  621   1.619   1.364   0.688
  113SOL     OW  622   1.390   0.575   0.078
  113SOL    HW1  623   1.336   0.554   0.159
  113SOL    HW2  624   1.481   0.534   0.087
  114SOL     OW  625   0.527   0.256   0.328
  114SOL    HW1  626   0.554   0.197   0.253
  114SOL    HW2  627   0.527   0.351   0.297
  115SOL     OW  628   1.754   1.223   1.588
  115SOL    HW1  629   1.845   1.184   1.575
  115SOL    HW2  630   1.762   1.319   1.612
  116SOL     OW  631   1.064   1.347   1.340
  116SOL    HW1  632   0.984   1.324   1.395
  116SOL    HW2  633   1.147   1.321   1.389
  117SOL     OW  634   1.592   1.629   1.625
  117SOL    HW1  635   1.619   1.663   1.535
  117SOL    HW2  636   1.671   1.591   1.671
  118SOL     OW  637   1.111   1.195   1.100
  118SOL    HW1  638   1.071   1.239   1.181
  118SOL    HW2  639   1.070   1.232   1.017
  119SOL     OW  640   1.638   1.099   1.079
  119SOL    HW1  641   1.643   1.180   1.138
  119SOL    HW2  642   1.552   1.101   1.028
  120SOL     OW  643   0.915   0.089   1.402
  120SOL    HW1  644   0.940   0.069   1.307
  120SOL    HW2  645   0.987   0.145   1.444
  121SOL     OW  646   0.980   1.116   1.719
  121SOL    HW1  647   0.881   1.122   1.729
  121SOL    HW2  648   1.003   1.036   1.663
  122SOL     OW  649   0.705   1.050   0.368
  122SOL    HW1  650   0.691   1.057   0.467
  122SOL    HW2  651   0.789   0.999   0.350
  123SOL     OW  652   0.410   0.813   1.251
  123SOL    HW1  653   0.496   0.825   1.301
  123SOL    HW2  654   0.368   0.726   1.278
  124SOL     OW  655   1.274   0.386   1.262
  124SOL    HW1  656   1.295   0.460   1.326
  124SOL    HW2  657   1.185   0.403   1.219
  125SOL     OW  658   0.064   1.564   1.331
  125SOL    HW1  659   0.018   1.646   1.297
  125SOL    HW2  660   0.162   1.583   1.340
  126SOL     OW  661   0.367   1.100   0.501
  126SOL    HW1  662   0.360   1.183   0.445
  126SOL    HW2  663   0.371   1.020   0.441
  127SOL     OW  664   0.566   0.537   0.865
  127SOL    HW1  665   0.578   0.603   0.791
  127SOL    HW2  666   0.612   0.571   0.948
  128SOL     OW  667   1.252   1.348   0.388
  128SOL    HW1  668   1.302   1.425   0.428
  128SOL    HW2  669   1.157   1.350   0.420
  129SOL     OW  670   1.272   1.445   1.142
  129SOL    HW1  671   1.319   1.458   1.229
  129SOL    HW2  672   1.206   1.371   1.151
  130SOL     OW  673   1.582   0.639   0.472
  130SOL    HW1  674   1.551   0.700   0.545
  130SOL    HW2  675   1.632   0.691   0.403
  131SOL     OW  676   0.354   1.510   1.329
  131SOL    HW1  677   0.333   1.466   1.242
  131SOL    HW2  678   0.451   1.536   1.332
  132SOL     OW  679   0.402   0.751   1.598
  132SOL    HW1  680   0.470   0.806   1.551
  132SOL    HW2  681   0.442   0.663   1.625
  133SOL     OW  682   1.587   0.779   1.670
  133SOL    HW1  683   1.495   0.817   1.665
  133SOL    HW2  684   1.647   0.826   1.605
  134SOL     OW  685   1.013   0.105   1.770
  134SOL    HW1  686   1.019   0.190   1.718
  134SOL    HW2  687   1.045   0.029   1.713
  135SOL     OW  688   0.504   0.050   1.740
  135SOL    HW1  689   0.462  -0.007   1.670
  135SOL    HW2  690   0.438   0.119   1.772
  136SOL     OW  691   0.573   0.870   1.029
  136SOL    HW1  692   0.617   0.959   1.020
  136SOL    HW2  693   0.510   0.870   1.106
  137SOL     OW  694   1.360   0.862   1.045
  137SOL    HW1  695   1.285   0.862   0.979
  137SOL    HW2  696   1.397   0.770   1.054
  138SOL     OW  697   1.209   0.525   0.275
  138SOL    HW1  698   1.222   0.441   0.329
  138SOL    HW2  699   1.180   0.599   0.335
  139SOL     OW  700   0.307   0.213   1.231
  139SOL    HW1  701   0.284   0.250   1.321
  139SOL    HW2  702   0.277   0.118   1.225
  140SOL     OW  703   0.037   1.310   1.282
  140SOL    HW1  704   0.090   1.261   1.350
  140SOL    HW2  705   0.059   1.408   1.287
  141SOL     OW  706   0.732   0.634   1.064
  141SOL    HW1  707   0.791   0.608   0.988
  141SOL    HW2  708   0.704   0.730   1.053
  142SOL     OW  709   1.728   0.935   1.854
  142SOL    HW1  710   1.682   0.928   1.765
  142SOL    HW2  711   1.666   0.979   1.920
  143SOL     OW  712   0.307   0.063   0.618
  143SOL    HW1  713   0.296   0.157   0.651
  143SOL    HW2  714   0.302   0.000   0.695
  144SOL     OW  715   1.622   0.367   0.374
  144SOL    HW1  716   1.624   0.291   0.438
  144SOL    HW2  717   1.574   0.444   0.414
  145SOL     OW  718   1.023   0.766   0.966
  145SOL    HW1  719   1.038   0.787   1.062
  145SOL    HW2  720   0.993   0.671   0.957
  146SOL     OW  721   0.980   1.573   1.700
  146SOL    HW1  722   0.960   1.617   1.612
  146SOL    HW2  723   1.019   1.482   1.684
  147SOL     OW  724   1.859   1.518   1.605
  147SOL    HW1  725   1.873   1.545   1.510
  147SOL    HW2  726   1.942   1.540   1.658
  148SOL     OW  727   0.350   0.898   1.804
  148SOL    HW1  728   0.426   0.942   1.852
  148SOL    HW2  729   0.385   0.851   1.722
  149SOL     OW  730   1.540   0.274   0.125
  149SOL    HW1  731   1.479   0.199   0.148
  149SOL    HW2  732   1.562   0.326   0.208
  150SOL     OW  733   1.303   0.838   0.042
  150SOL    HW1  734   1.337   0.745   0.057
  150SOL    HW2  735   1.321   0.865  -0.053
  151SOL     OW  736   1.068   1.333   0.849
  151SOL    HW1  737   1.075   1.249   0.794
  151SOL    HW2  738   1.130   1.402   0.813
  152SOL     OW  739   0.319   0.810   0.949
  152SOL    HW1  740   0.412   0.846   0.954
  152SOL    HW2  741   0.313   0.725   1.001
  153SOL     OW  742   0.339   0.509   1.006
  153SOL    HW1  743   0.287   0.426   0.989
  153SOL    HW2  744   0.416   0.514   0.942
  154SOL     OW  745   1.138   0.380   1.678
  154SOL    HW1  746   1.093   0.443   1.742
  154SOL    HW2  747   1.231   0.411   1.661
  155SOL     OW  748   1.160   0.207   1.477
  155SOL    HW1  749   1.160   0.271   1.554
  155SOL    HW2  750   1.188   0.255   1.394
  156SOL     OW  751   0.008   1.326   0.200
  156SOL    HW1  752  -0.085   1.347   0.169
  156SOL    HW2  753   0.018   1.227   0.213
  157SOL     OW  754   0.088   1.801   0.927
  157SOL    HW1  755   0.046   1.715   0.900
  157SOL    HW2  756   0.182   1.804   0.893
  158SOL     OW  757   0.504   1.568   0.910
  158SOL    HW1  758   0.570   1.642   0.919
  158SOL    HW2  759   0.548   1.489   0.868
  159SOL     OW  760   1.002   0.796   1.238
  159SOL    HW1  761   1.043   0.764   1.324
  159SOL    HW2  762   0.906   0.769   1.235
  160SOL     OW  763   0.040   0.544   1.114
  160SOL    HW1  764   0.125   0.511   1.073
  160SOL    HW2  765   0.053   0.559   1.212
  161SOL     OW  766   0.189   0.520   1.722
  161SOL    HW1  767   0.248   0.480   1.652
  161SOL    HW2  768   0.131   0.591   1.681
  162SOL     OW  769   1.369   0.950   1.660
  162SOL    HW1  770   1.408   1.039   1.680
  162SOL    HW2  771   1.379   0.930   1.563
  163SOL     OW  772   0.815   0.572   0.325
  163SOL    HW1  773   0.822   0.483   0.279
  163SOL    HW2  774   0.721   0.606   0.317
  164SOL     OW  775   1.657   0.604   1.206
  164SOL    HW1  776   1.619   0.535   1.268
  164SOL    HW2  777   1.739   0.568   1.162
  165SOL     OW  778   0.252   1.564   1.744
  165SOL    HW1  779   0.222   1.621   1.820
  165SOL    HW2  780   0.245   1.467   1.770
  166SOL     OW  781   0.671   0.464   1.269
  166SOL    HW1  782   0.637   0.375   1.239
  166SOL    HW2  783   0.697   0.518   1.189
  167SOL     OW  784   0.930   1.678   1.465
  167SOL    HW1  785   0.906   1.660   1.370
  167SOL    HW2  786   0.960   1.772   1.475
  168SOL     OW  787   0.473   0.500   0.191
  168SOL    HW1  788   0.534   0.580   0.195
  168SOL    HW2  789   0.378   0.531   0.198
  169SOL     OW  790   0.159   1.137   1.466
  169SOL    HW1  791   0.181   1.076   1.542
  169SOL    HW2  792   0.169   1.088   1.380
  170SOL     OW  793   1.347   1.059   1.234
  170SOL    HW1  794   1.371   0.996   1.160
  170SOL    HW2  795   1.257   1.099   1.216
  171SOL     OW  796   1.302   0.855   0.309
  171SOL    HW1  797   1.216   0.824   0.351
  171SOL    HW2  798   1.298   0.841   0.210
  172SOL     OW  799   1.759   1.747   1.154
  172SOL    HW1  800   1.820   1.777   1.081
  172SOL    HW2  801   1.721   1.658   1.132
  173SOL     OW  802   1.252   1.731   1.128
  173SOL    HW1  803   1.336   1.736   1.074
  173SOL    HW2  804   1.229   1.635   1.146
  174SOL     OW  805   0.083   1.258   1.022
  174SOL    HW1  806   0.078   1.257   1.122
  174SOL    HW2  807   0.000   1.217   0.984
  175SOL     OW  808   0.688   1.662   1.716
  175SOL    HW1  809   0.632   1.743   1.725
  175SOL    HW2  810   0.740   1.666   1.630
  176SOL     OW  811   0.903   0.086   0.133
  176SOL    HW1  812   0.954   0.087   0.047
  176SOL    HW2  813   0.959   0.044   0.204
  177SOL     OW  814   1.726   0.135   0.523
  177SOL    HW1  815   1.799   0.118   0.456
  177SOL    HW2  816   1.695   0.048   0.561
  178SOL     OW  817   1.388   1.573   0.477
  178SOL    HW1  818   1.455   1.585   0.403
  178SOL    HW2  819   1.348   1.662   0.500
  179SOL     OW  820   0.130   1.794   1.851
  179SOL    HW1  821   0.089   1.720   1.904
  179SOL    HW2  822   0.194   1.845   1.909
  180SOL     OW  823   1.280   0.927   0.672
  180SOL    HW1  824   1.340   0.846   0.674
  180SOL    HW2  825   1.320   0.996   0.612
  181SOL     OW  826   0.830   1.273   1.422
  181SOL    HW1  827   0.825   1.306   1.517
  181SOL    HW2  828   0.744   1.292   1.376
  182SOL     OW  829   0.672   1.616   0.154
  182SOL    HW1  830   0.681   1.626   0.055
  182SOL    HW2  831   0.632   1.527   0.175
  183SOL     OW  832   1.650   1.720   1.394
  183SOL    HW1  833   1.703   1.730   1.310
  183SOL    HW2  834   1.623   1.810   1.428
  184SOL     OW  835   1.841   0.175   0.963
  184SOL    HW1  836   1.880   0.090   0.927
  184SOL    HW2  837   1.743   0.177   0.944
  185SOL     OW  838   0.263   0.326   0.720
  185SOL    HW1  839   0.184   0.377   0.686
  185SOL    HW2  840   0.254   0.311   0.818
  186SOL     OW  841   1.194   1.612   0.031
  186SOL    HW1  842   1.200   1.519   0.068
  186SOL    HW2  843   1.135   1.612  -0.049
  187SOL     OW  844   0.822   1.002   1.372
  187SOL    HW1  845   0.862   1.001   1.280
  187SOL    HW2  846   0.832   1.094   1.412
  188SOL     OW  847   0.916   0.910   0.291
  188SOL    HW1  848   0.979   0.948   0.223
  188SOL    HW2  849   0.956   0.827   0.330
  189SOL     OW  850   1.504   1.607   0.044
  189SOL    HW1  851   1.412   1.644   0.051
  189SOL    HW2  852   1.542   1.627  -0.046
  190SOL     OW  853   0.372   1.288   1.490
  190SOL    HW1  854   0.359   1.381   1.456
  190SOL    HW2  855   0.288   1.236   1.477
  191SOL     OW  856   1.614   1.292   1.289
  191SOL    HW1  857   1.674   1.295   1.369
  191SOL    HW2  858   1.539   1.356   1.302
  192SOL     OW  859   1.039   1.098   0.696
  192SOL    HW1  860   0.969   1.051   0.750
  192SOL    HW2  861   1.098   1.030   0.653
  193SOL     OW  862   1.014   0.236   0.971
  193SOL    HW1  863   1.006   0.200   0.878
  193SOL    HW2  864   1.012   0.160   1.036
  194SOL     OW  865   0.590   1.487   0.491
  194SOL    HW1  866   0.632   1.429   0.421
  194SOL    HW2  867   0.546   1.566   0.447
  195SOL     OW  868   1.709   0.385   1.381
  195SOL    HW1  869   1.782   0.454   1.385
  195SOL    HW2  870   1.737   0.310   1.322
  196SOL     OW  871   0.255   1.348   0.290
  196SOL    HW1  872   0.159   1.349   0.263
  196SOL    HW2  873   0.267   1.401   0.374
  197SOL     OW  874   0.105   1.013   1.726
  197SOL    HW1  875   0.028   0.980   1.780
  197SOL    HW2  876   0.190   0.983   1.768
  198SOL     OW  877   0.672   0.203   1.489
  198SOL    HW1  878   0.762   0.187   1.449
  198SOL    HW2  879   0.680   0.208   1.588
  199SOL     OW  880   0.075   0.345   0.033
  199SOL    HW1  881  -0.017   0.317   0.004
  199SOL    HW2  882   0.106   0.422  -0.023
  200SOL     OW  883   1.440   0.856   1.398
  200SOL    HW1  884   1.383   0.908   1.335
  200SOL    HW2  885   1.536   0.868   1.374
  201SOL     OW  886   0.072   0.166   0.318
  201SOL    HW1  887   0.055   0.249   0.264
  201SOL    HW2  888   0.162   0.129   0.296
  202SOL     OW  889   1.183   1.335   0.119
  202SOL    HW1  890   1.084   1.324   0.121
  202SOL    HW2  891   1.217   1.350   0.212
  203SOL     OW  892   0.613   0.842   1.431
  203SOL    HW1  893   0.669   0.923   1.414
  203SOL    HW2  894   0.672   0.762   1.434
  204SOL     OW  895   1.493   1.767   0.959
  204SOL    HW1  896   1.526   1.831   0.890
  204SOL    HW2  897   1.559   1.761   1.034
  205SOL     OW  898   0.716   0.565   1.708
  205SOL    HW1  899   0.735   0.630   1.782
  205SOL    HW2  900   0.776   0.485   1.717
  206SOL     OW  901   1.450   1.220   1.633
  206SOL    HW1  902   1.441   1.210   1.732
  206SOL    HW2  903   1.546   1.213   1.607
  207SOL     OW  904   0.390   1.741   1.560
  207SOL    HW1  905   0.299   1.782   1.558
  207SOL    HW2  906   0.383   1.647   1.592
  208SOL     OW  907   1.674   0.883   1.254
  208SOL    HW1  908   1.647   0.794   1.217
  208SOL    HW2  909   1.675   0.951   1.181
  209SOL     OW  910   1.225   0.325   0.449
  209SOL    HW1  911   1.290   0.251   0.438
  209SOL    HW2  912   1.245   0.375   0.533
  210SOL     OW  913   0.594   0.745   0.652
  210SOL    HW1  914   0.644   0.830   0.633
  210SOL    HW2  915   0.506   0.747   0.604
  211SOL     OW  916   1.777   0.342   1.642
  211SOL    HW1  917   1.760   0.373   1.548
  211SOL    HW2  918   1.693   0.305   1.680
  212SOL     OW  919   1.730   0.934   1.517
  212SOL    HW1  920   1.768   1.025   1.532
  212SOL    HW2  921   1.722   0.917   1.418
  213SOL     OW  922   0.859   1.374   0.016
  213SOL    HW1  923   0.813   1.389   0.104
  213SOL    HW2  924   0.903   1.459  -0.014
  214SOL     OW  925   0.661   1.790   0.953
  214SOL    HW1  926   0.615   1.878   0.940
  214SOL    HW2  927   0.760   1.802   0.946
  215SOL     OW  928   0.859   0.956   0.861
  215SOL    HW1  929   0.913   0.887   0.909
  215SOL    HW2  930   0.827   1.025   0.927
  216SOL     OW  931   1.083   0.984   0.087
  216SOL    HW1  932   1.060   1.037   0.005
  216SOL    HW2  933   1.164   0.928   0.068
  217SOL     OW  934   1.861   1.569   0.851
  217SOL    HW1  935   1.790   1.557   0.781
  217SOL    HW2  936   1.862   1.490   0.911
  218SOL     OW  937   0.221   1.314   1.844
  218SOL    HW1  938   0.156   1.241   1.823
  218SOL    HW2  939   0.225   1.328   1.942
  219SOL     OW  940   0.079   1.240   0.653
  219SOL    HW1  941   0.078   1.193   0.741
  219SOL    HW2  942   0.161   1.212   0.602
  220SOL     OW  943   0.672   1.391   1.624
  220SOL    HW1  944   0.594   1.341   1.662
  220SOL    HW2  945   0.669   1.486   1.655
  221SOL     OW  946   1.824   0.192   1.227
  221SOL    HW1  947   1.820   0.102   1.271
  221SOL    HW2  948   1.827   0.181   1.128
  222SOL     OW  949   0.428   0.424   0.520
  222SOL    HW1  950   0.458   0.352   0.458
  222SOL    HW2  951   0.389   0.384   0.603
  223SOL     OW  952   1.705   1.487   1.104
  223SOL    HW1  953   1.612   1.462   1.077
  223SOL    HW2  954   1.731   1.437   1.186
  224SOL     OW  955   0.317   0.547   1.280
  224SOL    HW1  956   0.355   0.488   1.352
  224SOL    HW2  957   0.357   0.521   1.192
  225SOL     OW  958   0.812   1.586   0.687
  225SOL    HW1  959   0.844   1.596   0.593
  225SOL    HW2  960   0.733   1.524   0.689
  226SOL     OW  961   1.424   0.214   1.112
  226SOL    HW1  962   1.476   0.149   1.167
  226SOL    HW2  963   1.375   0.277   1.173
  227SOL     OW  964   1.001   0.034   1.154
  227SOL    HW1  965   0.938  -0.038   1.123
  227SOL    HW2  966   1.094  -0.002   1.154
  228SOL     OW  967   0.770   1.330   0.301
  228SOL    HW1  968   0.724   1.243   0.318
  228SOL    HW2  969   0.861   1.327   0.342
  229SOL     OW  970   0.618   1.567   1.284
  229SOL    HW1  971   0.613   1.649   1.341
  229SOL    HW2  972   0.707   1.564   1.239
  230SOL     OW  973   1.352   0.052   0.168
  230SOL    HW1  974   1.387   0.011   0.084
  230SOL    HW2  975   1.262   0.014   0.188
  231SOL     OW  976   1.300   0.453   0.691
  231SOL    HW1  977   1.241   0.533   0.695
  231SOL    HW2  978   1.315   0.418   0.784
  232SOL     OW  979   1.593   0.221   0.882
  232SOL    HW1  980   1.509   0.220   0.936
  232SOL    HW2  981   1.595   0.304   0.826
  233SOL     OW  982   0.039   1.077   0.300
  233SOL    HW1  983   0.138   1.066   0.291
  233SOL    HW2  984  -0.001   0.991   0.332
  234SOL     OW  985   0.875   1.646   0.337
  234SOL    HW1  986   0.798   1.611   0.283
  234SOL    HW2  987   0.843   1.717   0.399
  235SOL     OW  988   0.230   0.628   1.975
  235SOL    HW1  989   0.137   0.626   2.012
  235SOL    HW2  990   0.231   0.589   1.883
  236SOL     OW  991   0.225   0.275   2.858
  236SOL    HW1  992   0.260   0.258   2.950
  236SOL    HW2  993   0.137   0.230   2.846
  237SOL     OW  994   0.019   0.368   2.509
  237SOL    HW1  995  -0.063   0.411   2.548
  237SOL    HW2  996  -0.009   0.295   2.446
  238SOL     OW  997   0.569   1.275   3.027
  238SOL    HW1  998   0.476   1.268   2.990
  238SOL    HW2  999   0.580   1.364   3.071
  239SOL     OW 1000   1.555   1.511   2.565
  239SOL    HW1 1001   1.498   1.495   2.646
  239SOL    HW2 1002   1.496   1.521   2.485
  240SOL     OW 1003   1.135   0.703   2.579
  240SOL    HW1 1004   1.192   0.781   2.554
  240SOL    HW2 1005   1.075   0.729   2.655
  241SOL     OW 1006   1.755   0.607   2.093
  241SOL    HW1 1007   1.743   0.594   1.994
  241SOL    HW2 1008   1.725   0.526   2.142
  242SOL     OW 1009   0.768   1.144   2.885
  242SOL    HW1 1010   0.690   1.161   2.945
  242SOL    HW2 1011   0.802   1.231   2.849
  243SOL     OW 1012   0.850   0.798   3.685
  243SOL    HW1 1013   0.846   0.874   3.750
  243SOL    HW2 1014   0.872   0.834   3.594
  244SOL     OW 1015   0.685   1.012   2.527
  244SOL    HW1 1016   0.754   0.996   2.597
  244SOL    HW2 1017   0.612   1.069   2.565
  245SOL     OW 1018   0.686   1.161   3.665
  245SOL    HW1 1019   0.746   1.240   3.679
  245SOL    HW2 1020   0.600   1.192   3.624
  246SOL     OW 1021   0.335   1.435   2.923
  246SOL    HW1 1022   0.257   1.404   2.870
  246SOL    HW2 1023   0.393   1.493   2.866
  247SOL     OW 1024   1.460   1.505   3.201
  247SOL    HW1 1025   1.484   1.599   3.227
  247SOL    HW2 1026   1.444   1.451   3.283
  248SOL     OW 1027   0.438   0.392   3.361
  248SOL    HW1 1028   0.520   0.336   3.370
  248SOL    HW2 1029   0.357   0.334   3.365
  249SOL     OW 1030   1.603   0.447   2.599
  249SOL    HW1 1031   1.529   0.493   2.549
  249SOL    HW2 1032   1.654   0.515   2.652
  250SOL     OW 1033   0.231   1.713   2.345
  250SOL    HW1 1034   0.265   1.790   2.399
  250SOL    HW2 1035   0.275   1.713   2.255
  251SOL     OW 1036   1.127   1.341   3.552
  251SOL    HW1 1037   1.174   1.341   3.640
  251SOL    HW2 1038   1.079   1.254   3.541
  252SOL     OW 1039   0.230   1.434   2.400
  252SOL    HW1 1040   0.204   1.530   2.400
  252SOL    HW2 1041   0.159   1.380   2.445
  253SOL     OW 1042   0.240   1.091   2.748
  253SOL    HW1 1043   0.254   1.007   2.800
  253SOL    HW2 1044   0.185   1.155   2.803
  254SOL     OW 1045   0.620   1.786   3.301
  254SOL    HW1 1046   0.528   1.769   3.336
  254SOL    HW2 1047   0.648   1.878   3.327
  255SOL     OW 1048   0.606   0.964   1.985
  255SOL    HW1 1049   0.613   1.048   1.931
  255SOL    HW2 1050   0.652   0.977   2.073
  256SOL     OW 1051   1.594   0.114   3.342
  256SOL    HW1 1052   1.576   0.181   3.270
  256SOL    HW2 1053   1.591   0.160   3.431
  257SOL     OW 1054   0.122   0.643   2.425
  257SOL    HW1 1055   0.077   0.555   2.442
  257SOL    HW2 1056   0.121   0.697   2.509
  258SOL     OW 1057   1.842   1.767   2.221
  258SOL    HW1 1058   1.896   1.738   2.301
  258SOL    HW2 1059   1.872   1.857   2.192
  259SOL     OW 1060   0.027   1.596   1.979
  259SOL    HW1 1061   0.008   1.500   2.000
  259SOL    HW2 1062  -0.006   1.654   2.054
  260SOL     OW 1063   1.689   0.922   2.474
  260SOL    HW1 1064   1.784   0.893   2.482
  260SOL    HW2 1065   1.681   0.987   2.399
  261SOL     OW 1066   1.641   1.108   2.294
  261SOL    HW1 1067   1.727   1.110   2.242
  261SOL    HW2 1068   1.655   1.155   2.382
  262SOL     OW 1069   0.113   0.737   3.459
  262SOL    HW1 1070   0.201   0.724   3.504
  262SOL    HW2 1071   0.100   0.834   3.437
  263SOL     OW 1072   0.613   1.365   2.588
  263SOL    HW1 1073   0.564   1.278   2.597
  263SOL    HW2 1074   0.590   1.408   2.501
  264SOL     OW 1075   1.293   1.228   3.285
  264SOL    HW1 1076   1.330   1.155   3.227
  264SOL    HW2 1077   1.345   1.233   3.370
  265SOL     OW 1078   0.809   0.004   2.364
  265SOL    HW1 1079   0.849   0.095   2.355
  265SOL    HW2 1080   0.709   0.012   2.370
  266SOL     OW 1081   0.197   0.976   3.126
  266SOL    HW1 1082   0.286   0.931   3.112
  266SOL    HW2 1083   0.124   0.911   3.107
  267SOL     OW 1084   1.525   0.999   2.052
  267SOL    HW1 1085   1.462   0.923   2.065
  267SOL    HW2 1086   1.573   1.017   2.138
  268SOL     OW 1087   1.187   1.792   3.478
  268SOL    HW1 1088   1.211   1.852   3.402
  268SOL    HW2 1089   1.194   1.697   3.448
  269SOL     OW 1090   0.317   0.251   3.663
  269SOL    HW1 1091   0.388   0.322   3.669
  269SOL    HW2 1092   0.229   0.290   3.691
  270SOL     OW 1093   1.466   1.417   2.815
  270SOL    HW1 1094   1.407   1.423   2.895
  270SOL    HW2 1095   1.451   1.329   2.769
  271SOL     OW 1096   1.667   1.714   2.434
  271SOL    HW1 1097   1.626   1.691   2.346
  271SOL    HW2 1098   1.649   1.640   2.499
  272SOL     OW 1099   0.598   0.729   2.132
  272SOL    HW1 1100   0.622   0.798   2.064
  272SOL    HW2 1101   0.520   0.762   2.186
  273SOL     OW 1102   1.281   0.345   2.806
  273SOL    HW1 1103   1.195   0.295   2.793
  273SOL    HW2 1104   1.343   0.291   2.862
  274SOL     OW 1105   1.576   1.662   2.169
  274SOL    HW1 1106   1.665   1.708   2.172
  274SOL    HW2 1107   1.555   1.638   2.074
  275SOL     OW 1108   0.807   0.605   3.327
  275SOL    HW1 1109   0.760   0.602   3.416
  275SOL    HW2 1110   0.756   0.550   3.261
  276SOL     OW 1111   1.394   0.469   3.536
  276SOL    HW1 1112   1.374   0.512   3.624
  276SOL    HW2 1113   1.472   0.407   3.545
  277SOL     OW 1114   0.973   0.890   3.434
  277SOL    HW1 1115   1.019   0.806   3.405
  277SOL    HW2 1116   0.917   0.924   3.359
  278SOL     OW 1117   0.991   0.410   3.104
  278SOL    HW1 1118   0.914   0.444   3.158
  278SOL    HW2 1119   0.957   0.359   3.025
  279SOL     OW 1120   1.041   0.701   2.291
  279SOL    HW1 1121   1.067   0.697   2.387
  279SOL    HW2 1122   0.956   0.650   2.277
  280SOL     OW 1123   0.076   0.811   2.651
  280SOL    HW1 1124   0.175   0.799   2.660
  280SOL    HW2 1125   0.052   0.906   2.672
  281SOL     OW 1126   0.130   1.821   3.433
  281SOL    HW1 1127   0.120   1.806   3.532
  281SOL    HW2 1128   0.044   1.857   3.397
  282SOL     OW 1129   0.865   0.348   2.057
  282SOL    HW1 1130   0.924   0.411   2.008
  282SOL    HW2 1131   0.884   0.254   2.028
  283SOL     OW 1132   1.719   0.585   3.693
  283SOL    HW1 1133   1.693   0.674   3.657
  283SOL    HW2 1134   1.717   0.517   3.620
  284SOL     OW 1135   1.362   1.144   2.407
  284SOL    HW1 1136   1.445   1.115   2.359
  284SOL    HW2 1137   1.313   1.211   2.351
  285SOL     OW 1138   0.550   0.196   2.747
  285SOL    HW1 1139   0.545   0.191   2.847
  285SOL    HW2 1140   0.552   0.292   2.718
  286SOL     OW 1141   1.008   1.456   2.339
  286SOL    HW1 1142   0.962   1.528   2.287
  286SOL    HW2 1143   1.004   1.476   2.437
  287SOL     OW 1144   0.351   1.801   2.715
  287SOL    HW1 1145   0.401   1.715   2.721
  287SOL    HW2 1146   0.416   1.878   2.712
  288SOL     OW 1147   1.795   1.066   2.735
  288SOL    HW1 1148   1.733   1.051   2.659
  288SOL    HW2 1149   1.743   1.077   2.820
  289SOL     OW 1150   1.227   1.550   3.368
  289SOL    HW1 1151   1.233   1.473   3.432
  289SOL    HW2 1152   1.175   1.524   3.288
  290SOL     OW 1153   0.321   0.943   2.104
  290SOL    HW1 1154   0.403   0.982   2.062
  290SOL    HW2 1155   0.294   0.861   2.055
  291SOL     OW 1156   1.458   0.735   2.590
  291SOL    HW1 1157   1.453   0.670   2.665
  291SOL    HW2 1158   1.538   0.794   2.603
  292SOL     OW 1159   0.461   1.266   3.589
  292SOL    HW1 1160   0.411   1.267   3.503
  292SOL    HW2 1161   0.398   1.248   3.665
  293SOL     OW 1162   1.111   1.776   2.099
  293SOL    HW1 1163   1.051   1.714   2.149
  293SOL    HW2 1164   1.142   1.732   2.014
  294SOL     OW 1165   0.202   0.285   3.360
  294SOL    HW1 1166   0.122   0.345   3.347
  294SOL    HW2 1167   0.192   0.236   3.446
  295SOL     OW 1168   1.632   1.377   1.943
  295SOL    HW1 1169   1.600   1.471   1.933
  295SOL    HW2 1170   1.556   1.314   1.931
  296SOL     OW 1171   0.464   1.743   2.185
  296SOL    HW1 1172   0.497   1.782   2.271
  296SOL    HW2 1173   0.540   1.736   2.120
  297SOL     OW 1174   1.400   0.107   2.288
  297SOL    HW1 1175   1.376   0.070   2.198
  297SOL    HW2 1176   1.499   0.123   2.292
  298SOL     OW 1177   0.249   1.785   3.103
  298SOL    HW1 1178   0.306   1.720   3.153
  298SOL    HW2 1179   0.233   1.752   3.010
  299SOL     OW 1180   0.940   1.698   2.766
  299SOL    HW1 1181   1.020   1.641   2.787
  299SOL    HW2 1182   0.891   1.658   2.689
  300SOL     OW 1183   0.382   0.700   2.342
  300SOL    HW1 1184   0.427   0.610   2.339
  300SOL    HW2 1185   0.288   0.689   2.375
  301SOL     OW 1186   1.547   0.222   3.591
  301SOL    HW1 1187   1.542   0.259   3.683
  301SOL    HW2 1188   1.475   0.153   3.579
  302SOL     OW 1189   0.614   0.122   1.979
  302SOL    HW1 1190   0.712   0.100   1.986
  302SOL    HW2 1191   0.583   0.105   1.886
  303SOL     OW 1192   0.781   0.264   3.611
  303SOL    HW1 1193   0.848   0.203   3.654
  303SOL    HW2 1194   0.708   0.283   3.676
  304SOL     OW 1195   0.888   1.514   3.057
  304SOL    HW1 1196   0.865   1.489   2.963
  304SOL    HW2 1197   0.949   1.445   3.096
  305SOL     OW 1198   1.351   0.590   3.295
  305SOL    HW1 1199   1.379   0.547   3.380
  305SOL    HW2 1200   1.376   0.686   3.296
  306SOL     OW 1201   0.803   1.402   2.786
  306SOL    HW1 1202   0.893   1.416   2.744
  306SOL    HW2 1203   0.732   1.404   2.715
  307SOL     OW 1204   0.922   0.503   2.761
  307SOL    HW1 1205   0.897   0.494   2.665
  307SOL    HW2 1206   0.970   0.421   2.792
  308SOL     OW 1207   0.539   0.064   2.374
  308SOL    HW1 1208   0.458   0.065   2.432
  308SOL    HW2 1209   0.542   0.147   2.319
  309SOL     OW 1210   1.434   1.188   1.903
  309SOL    HW1 1211   1.466   1.112   1.960
  309SOL    HW2 1212   1.342   1.215   1.933
  310SOL     OW 1213   0.297   0.035   2.033
  310SOL    HW1 1214   0.346   0.119   2.012
  310SOL    HW2 1215   0.359  -0.030   2.078
  311SOL     OW 1216   0.935   0.236   2.342
  311SOL    HW1 1217   0.887   0.277   2.264
  311SOL    HW2 1218   1.034   0.234   2.323
  312SOL     OW 1219   1.076   0.683   3.326
  312SOL    HW1 1220   0.996   0.622   3.329
  312SOL    HW2 1221   1.157   0.630   3.302
  313SOL     OW 1222   1.227   1.570   2.655
  313SOL    HW1 1223   1.248   1.644   2.590
  313SOL    HW2 1224   1.295   1.570   2.728
  314SOL     OW 1225   0.459   1.152   2.603
  314SOL    HW1 1226   0.388   1.125   2.668
  314SOL    HW2 1227   0.433   1.124   2.510
  315SOL     OW 1228   1.271   1.797   2.453
  315SOL    HW1 1229   1.315   1.861   2.389
  315SOL    HW2 1230   1.221   1.849   2.523
  316SOL     OW 1231   1.032   0.549   1.878
  316SOL    HW1 1232   0.991   0.631   1.839
  316SOL    HW2 1233   1.096   0.575   1.951
  317SOL     OW 1234   0.078   0.556   3.248
  317SOL    HW1 1235   0.170   0.555   3.207
  317SOL    HW2 1236   0.072   0.630   3.315
  318SOL     OW 1237   0.561   0.222   3.009
  318SOL    HW1 1238   0.599   0.138   3.046
  318SOL    HW2 1239   0.473   0.241   3.053
  319SOL     OW 1240   0.866   0.454   2.504
  319SOL    HW1 1241   0.834   0.526   2.442
  319SOL    HW2 1242   0.890   0.373   2.451
  320SOL     OW 1243   1.017   0.039   2.615
  320SOL    HW1 1244   0.945   0.044   2.546
  320SOL    HW2 1245   0.993  -0.030   2.684
  321SOL     OW 1246   1.429   1.173   2.729
  321SOL    HW1 1247   1.374   1.089   2.722
  321SOL    HW2 1248   1.455   1.202   2.637
  322SOL     OW 1249   1.466   0.590   2.854
  322SOL    HW1 1250   1.436   0.495   2.861
  322SOL    HW2 1251   1.539   0.606   2.920
  323SOL     OW 1252   1.857   0.833   2.239
  323SOL    HW1 1253   1.899   0.769   2.303
  323SOL    HW2 1254   1.819   0.782   2.161
  324SOL     OW 1255   0.488   1.385   2.036
  324SOL    HW1 1256   0.401   1.370   2.083
  324SOL    HW2 1257   0.471   1.411   1.941
  325SOL     OW 1258   1.664   1.280   2.519
  325SOL    HW1 1259   1.763   1.288   2.533
  325SOL    HW2 1260   1.619   1.364   2.550
  326SOL     OW 1261   1.390   0.575   1.940
  326SOL    HW1 1262   1.336   0.554   2.021
  326SOL    HW2 1263   1.481   0.534   1.949
  327SOL     OW 1264   0.527   0.256   2.190
  327SOL    HW1 1265   0.554   0.197   2.115
  327SOL    HW2 1266   0.527   0.351   2.159
  328SOL     OW 1267   1.754   1.223   3.450
  328SOL    HW1 1268   1.845   1.184   3.437
  328SOL    HW2 1269   1.762   1.319   3.474
  329SOL     OW 1270   1.064   1.347   3.202
  329SOL    HW1 1271   0.984   1.324   3.257
  329SOL    HW2 1272   1.147   1.321   3.251
  330SOL     OW 1273   1.592   1.629   3.487
  330SOL    HW1 1274   1.619   1.663   3.397
  330SOL    HW2 1275   1.671   1.591   3.533
  331SOL     OW 1276   1.111   1.195   2.962
  331SOL    HW1 1277   1.071   1.239   3.043
  331SOL    HW2 1278   1.070   1.232   2.879
  332SOL     OW 1279   1.638   1.099   2.941
  332SOL    HW1 1280   1.643   1.180   3.000
  332SOL    HW2 1281   1.552   1.101   2.890
  333SOL     OW 1282   0.915   0.089   3.264
  333SOL    HW1 1283   0.940   0.069   3.169
  333SOL    HW2 1284   0.987   0.145   3.306
  334SOL     OW 1285   0.980   1.116   3.581
  334SOL    HW1 1286   0.881   1.122   3.591
  334SOL    HW2 1287   1.003   1.036   3.525
  335SOL     OW 1288   0.705   1.050   2.230
  335SOL    HW1 1289   0.691   1.057   2.329
  335SOL    HW2 1290   0.789   0.999   2.212
  336SOL     OW 1291   0.410   0.813   3.113
  336SOL    HW1 1292   0.496   0.825   3.163
  336SOL    HW2 1293   0.368   0.726   3.140
  337SOL     OW 1294   1.274   0.386   3.124
  337SOL    HW1 1295   1.295   0.460   3.188
  337SOL    HW2 1296   1.185   0.403   3.081
  338SOL     OW 1297   0.064   1.564   3.193
  338SOL    HW1 1298   0.018   1.646   3.159
  338SOL    HW2 1299   0.162   1.583   3.202
  339SOL     OW 1300   0.367   1.100   2.363
  339SOL    HW1 1301   0.360   1.183   2.307
  339SOL    HW2 1302   0.371   1.020   2.303
  340SOL     OW 1303   0.566   0.537   2.727
  340SOL    HW1 1304   0.578   0.603   2.653
  340SOL    HW2 1305   0.612   0.571   2.810
  341SOL     OW 1306   1.252   1.348   2.250
  341SOL    HW1 1307   1.302   1.425   2.290
  341SOL    HW2 1308   1.157   1.350   2.282
  342SOL     OW 1309   1.272   1.445   3.004
  342SOL    HW1 1310   1.319   1.458   3.091
  342SOL    HW2 1311   1.206   1.371   3.013
  343SOL     OW 1312   1.582   0.639   2.334
  343SOL    HW1 1313   1.551   0.700   2.407
  343SOL    HW2 1314   1.632   0.691   2.265
  344SOL     OW 1315   0.354   1.510   3.191
  344SOL    HW1 1316   0.333   1.466   3.104
  344SOL    HW2 1317   0.451   1.536   3.194
  345SOL     OW 1318   0.402   0.751   3.460
  345SOL    HW1 1319   0.470   0.806   3.413
  345SOL    HW2 1320   0.442   0.663   3.487
  346SOL     OW 1321   1.587   0.779   3.532
  346SOL    HW1 1322   1.495   0.817   3.527
  346SOL    HW2 1323   1.647   0.826   3.467
  347SOL     OW 1324   1.013   0.105   3.632
  347SOL    HW1 1325   1.019   0.190   3.580
  347SOL    HW2 1326   1.045   0.029   3.575
  348SOL     OW 1327   0.504   0.050   3.602
  348SOL    HW1 1328   0.462  -0.007   3.532
  348SOL    HW2 1329   0.438   0.119   3.634
  349SOL     OW 1330   0.573   0.870   2.891
  349SOL    HW1 1331   0.617   0.959   2.882
  349SOL    HW2 1332   0.510   0.870   2.968
  350SOL     OW 1333   1.360   0.862   2.907
  350SOL    HW1 1334   1.285   0.862   2.841
  350SOL    HW2 1335   1.397   0.770   2.916
  351SOL     OW 1336   1.209   0.525   2.137
  351SOL    HW1 1337   1.222   0.441   2.191
  351SOL    HW2 1338   1.180   0.599   2.197
  352SOL     OW 1339   0.307   0.213   3.093
  352SOL    HW1 1340   0.284   0.250   3.183
  352SOL    HW2 1341   0.277   0.118   3.087
  353SOL     OW 1342   0.037   1.310   3.144
  353SOL    HW1 1343   0.090   1.261   3.212
  353SOL    HW2 1344   0.059   1.408   3.149
  354SOL     OW 1345   0.732   0.634   2.926
  354SOL    HW1 1346   0.791   0.608   2.850
  354SOL    HW2 1347   0.704   0.730   2.915
  355SOL     OW 1348   1.728   0.935   3.716
  355SOL    HW1 1349   1.682   0.928   3.627
  355SOL    HW2 1350   1.666   0.979   3.782
  356SOL     OW 1351   0.307   0.063   2.480
  356SOL    HW1 1352   0.296   0.157   2.513
  356SOL    HW2 1353   0.302   0.000   2.557
  357SOL     OW 1354   1.622   0.367   2.236
  357SOL    HW1 1355   1.624   0.291   2.300
  357SOL    HW2 1356   1.574   0.444   2.276
  358SOL     OW 1357   1.023   0.766   2.828
  358SOL    HW1 1358   1.038   0.787   2.924
  358SOL    HW2 1359   0.993   0.671   2.819
  359SOL     OW 1360   0.980   1.573   3.562
  359SOL    HW1 1361   0.960   1.617   3.474
  359SOL    HW2 1362   1.019   1.482   3.546
  360SOL     OW 1363   1.859   1.518   3.467
  360SOL    HW1 1364   1.873   1.545   3.372
  360SOL    HW2 1365   1.942   1.540   3.520
  361SOL     OW 1366   0.350   0.898   3.666
  361SOL    HW1 1367   0.426   0.942   3.714
  361SOL    HW2 1368   0.385   0.851   3.584
  362SOL     OW 1369   1.540   0.274   1.987
  362SOL    HW1 1370   1.479   0.199   2.010
  362SOL    HW2 1371   1.562   0.326   2.070
  363SOL     OW 1372   1.303   0.838   1.904
  363SOL    HW1 1373   1.337   0.745   1.919
  363SOL    HW2 1374   1.321   0.865   1.809
  364SOL     OW 1375   1.068   1.333   2.711
  364SOL    HW1 1376   1.075   1.249   2.656
  364SOL    HW2 1377   1.130   1.402   2.675
  365SOL     OW 1378   0.319   0.810   2.811
  365SOL    HW1 1379   0.412   0.846   2.816
  365SOL    HW2 1380   0.313   0.725   2.863
  366SOL     OW 1381   0.339   0.509   2.868
  366SOL    HW1 1382   0.287   0.426   2.851
  366SOL    HW2 1383   0.416   0.514   2.804
  367SOL     OW 1384   1.138   0.380   3.540
  367SOL    HW1 1385   1.093   0.443   3.604
  367SOL    HW2 1386   1.231   0.411   3.523
  368SOL     OW 1387   1.160   0.207   3.339
  368SOL    HW1 1388   1.160   0.271   3.416
  368SOL    HW2 1389   1.188   0.255   3.256
  369SOL     OW 1390   0.008   1.326   2.062
  369SOL    HW1 1391  -0.085   1.347   2.031
  369SOL    HW2 1392   0.018   1.227   2.075
  370SOL     OW 1393   0.088   1.801   2.789
  370SOL    HW1 1394   0.046   1.715   2.762
  370SOL    HW2 1395   0.182   1.804   2.755
  371SOL     OW 1396   0.504   1.568   2.772
  371SOL    HW1 1397   0.570   1.642   2.781
  371SOL    HW2 1398   0.548   1.489   2.730
  372SOL     OW 1399   1.002   0.796   3.100
  372SOL    HW1 1400   1.043   0.764   3.186
  372SOL    HW2 1401   0.906   0.769   3.097
  373SOL     OW 1402   0.040   0.544   2.976
  373SOL    HW1 1403   0.125   0.511   2.935
  373SOL    HW2 1404   0.053   0.559   3.074
  374SOL     OW 1405   0.189   0.520   3.584
  374SOL    HW1 1406   0.248   0.480   3.514
  374SOL    HW2 1407   0.131   0.591   3.543
  375SOL     OW 1408   1.369   0.950   3.522
  375SOL    HW1 1409   1.408   1.039   3.542
  375SOL    HW2 1410   1.379   0.930   3.425
  376SOL     OW 1411   0.815   0.572   2.187
  376SOL    HW1 1412   0.822   0.483   2.141
  376SOL    HW2 1413   0.721   0.606   2.179
  377SOL     OW 1414   1.657   0.604   3.068
  377SOL    HW1 1415   1.619   0.535   3.130
  377SOL    HW2 1416   1.739   0.568   3.024
  378SOL     OW 1417   0.252   1.564   3.606
  378SOL    HW1 1418   0.222   1.621   3.682
  378SOL    HW2 1419   0.245   1.467   3.632
  379SOL     OW 1420   0.671   0.464   3.131
  379SOL    HW1 1421   0.637   0.375   3.101
  379SOL    HW2 1422   0.697   0.518   3.051
  380SOL     OW 1423   0.930   1.678   3.327
  380SOL    HW1 1424   0.906   1.660   3.232
  380SOL    HW2 1425   0.960   1.772   3.337
  381SOL     OW 1426   0.473   0.500   2.053
  381SOL    HW1 1427   0.534   0.580   2.057
  381SOL    HW2 1428   0.378   0.531   2.060
  382SOL     OW 1429   0.159   1.137   3.328
  382SOL    HW1 1430   0.181   1.076   3.404
  382SOL    HW2 1431   0.169   1.088   3.242
  383SOL     OW 1432   1.347   1.059   3.096
  383SOL    HW1 1433   1.371   0.996   3.022
  383SOL    HW2 1434   1.257   1.099   3.078
  384SOL     OW 1435   1.302   0.855   2.171
  384SOL    HW1 1436   1.216   0.824   2.213
  384SOL    HW2 1437   1.298   0.841   2.072
  385SOL     OW 1438   1.759   1.747   3.016
  385SOL    HW1 1439   1.820   1.777   2.943
  385SOL    HW2 1440   1.721   1.658   2.994
  386SOL     OW 1441   1.252   1.731   2.990
  386SOL    HW1 1442   1.336   1.736   2.936
  386SOL    HW2 1443   1.229   1.635   3.008
  387SOL     OW 1444   0.083   1.258   2.884
  387SOL    HW1 1445   0.078   1.257   2.984
  387SOL    HW2 1446   0.000   1.217   2.846
  388SOL     OW 1447   0.688   1.662   3.578
  388SOL    HW1 1448   0.632   1.743   3.587
  388SOL    HW2 1449   0.740   1.666   3.492
  389SOL     OW 1450   1.726   0.135   2.385
  389SOL    HW1 1451   1.799   0.118   2.318
  389SOL    HW2 1452   1.695   0.048   2.423
  390SOL     OW 1453   1.388   1.573   2.339
  390SOL    HW1 1454   1.455   1.585   2.265
  390SOL    HW2 1455   1.348   1.662   2.362
  391SOL     OW 1456   0.130   1.794   3.713
  391SOL    HW1 1457   0.089   1.720   3.766
  391SOL    HW2 1458   0.194   1.845   3.771
  392SOL     OW 1459   1.280   0.927   2.534
  392SOL    HW1 1460   1.340   0.846   2.536
  392SOL    HW2 1461   1.320   0.996   2.474
  393SOL     OW 1462   0.830   1.273   3.284
  393SOL    HW1 1463   0.825   1.306   3.379
  393SOL    HW2 1464   0.744   1.292   3.238
  394SOL     OW 1465   0.672   1.616   2.016
  394SOL    HW1 1466   0.681   1.626   1.917
  394SOL    HW2 1467   0.632   1.527   2.037
  395SOL     OW 1468   1.650   1.720   3.256
  395SOL    HW1 1469   1.703   1.730   3.172
  395SOL    HW2 1470   1.623   1.810   3.290
  396SOL     OW 1471   1.841   0.175   2.825
  396SOL    HW1 1472   1.880   0.090   2.789
  396SOL    HW2 1473   1.743   0.177   2.806
  397SOL     OW 1474   0.263   0.326   2.582
  397SOL    HW1 1475   0.184   0.377   2.548
  397SOL    HW2 1476   0.254   0.311   2.680
  398SOL     OW 1477   1.194   1.612   1.893
  398SOL    HW1 1478   1.200   1.519   1.930
  398SOL    HW2 1479   1.135   1.612   1.813
  399SOL     OW 1480   0.822   1.002   3.234
  399SOL    HW1 1481   0.862   1.001   3.142
  399SOL    HW2 1482   0.832   1.094   3.274
  400SOL     OW 1483   0.916   0.910   2.153
  400SOL    HW1 1484   0.979   0.948   2.085
  400SOL    HW2 1485   0.956   0.827   2.192
  401SOL     OW 1486   1.504   1.607   1.906
  401SOL    HW1 1487   1.412   1.644   1.913
  401SOL    HW2 1488   1.542   1.627   1.816
  402SOL     OW 1489   0.372   1.288   3.352
  402SOL    HW1 1490   0.359   1.381   3.318
  402SOL    HW2 1491   0.288   1.236   3.339
  403SOL     OW 1492   1.614   1.292   3.151
  403SOL    HW1 1493   1.674   1.295   3.231
  403SOL    HW2 1494   1.539   1.356   3.164
  404SOL     OW 1495   1.039   1.098   2.558
  404SOL    HW1 1496   0.969   1.051   2.612
  404SOL    HW2 1497   1.098   1.030   2.515
  405SOL     OW 1498   1.014   0.236   2.833
  405SOL    HW1 1499   1.006   0.200   2.740
  405SOL    HW2 1500   1.012   0.160   2.898
  406SOL     OW 1501   0.590   1.487   2.353
  406SOL    HW1 1502   0.632   1.429   2.283
  406SOL    HW2 1503   0.546   1.566   2.309
  407SOL     OW 1504   1.709   0.385   3.243
  407SOL    HW1 1505   1.782   0.454   3.247
  407SOL    HW2 1506   1.737   0.310   3.184
  408SOL     OW 1507   0.255   1.348   2.152
  408SOL    HW1 1508   0.159   1.349   2.125
  408SOL    HW2 1509   0.267   1.401   2.236
  409SOL     OW 1510   0.105   1.013   3.588
  409SOL    HW1 1511   0.028   0.980   3.642
  409SOL    HW2 1512   0.190   0.983   3.630
  410SOL     OW 1513   0.672   0.203   3.351
  410SOL    HW1 1514   0.762   0.187   3.311
  410SOL    HW2 1515   0.680   0.208   3.450
  411SOL     OW 1516   0.075   0.345   1.895
  411SOL    HW1 1517  -0.017   0.317   1.866
  411SOL    HW2 1518   0.106   0.422   1.839
  412SOL     OW 1519   1.440   0.856   3.260
  412SOL    HW1 1520   1.383   0.908   3.197
  412SOL    HW2 1521   1.536   0.868   3.236
  413SOL     OW 1522   0.072   0.166   2.180
  413SOL    HW1 1523   0.055   0.249   2.126
  413SOL    HW2 1524   0.162   0.129   2.158
  414SOL     OW 1525   1.183   1.335   1.981
  414SOL    HW1 1526   1.084   1.324   1.983
  414SOL    HW2 1527   1.217   1.350   2.074
  415SOL     OW 1528   0.613   0.842   3.293
  415SOL    HW1 1529   0.669   0.923   3.276
  415SOL    HW2 1530   0.672   0.762   3.296
  416SOL     OW 1531   1.493   1.767   2.821
  416SOL    HW1 1532   1.526   1.831   2.752
  416SOL    HW2 1533   1.559   1.761   2.896
  417SOL     OW 1534   0.716   0.565   3.570
  417SOL    HW1 1535   0.735   0.630   3.644
  417SOL    HW2 1536   0.776   0.485   3.579
  418SOL     OW 1537   1.450   1.220   3.495
  418SOL    HW1 1538   1.441   1.210   3.594
  418SOL    HW2 1539   1.546   1.213   3.469
  419SOL     OW 1540   0.390   1.741   3.422
  419SOL    HW1 1541   0.299   1.782   3.420
  419SOL    HW2 1542   0.383   1.647   3.454
  420SOL     OW 1543   1.674   0.883   3.116
  420SOL    HW1 1544   1.647   0.794   3.079
  420SOL    HW2 1545   1.675   0.951   3.043
  421SOL     OW 1546   1.225   0.325   2.311
  421SOL    HW1 1547   1.290   0.251   2.300
  421SOL    HW2 1548   1.245   0.375   2.395
  422SOL     OW 1549   0.594   0.745   2.514
  422SOL    HW1 1550   0.644   0.830   2.495
  422SOL    HW2 1551   0.506   0.747   2.466
  423SOL     OW 1552   1.777   0.342   3.504
  423SOL    HW1 1553   1.760   0.373   3.410
  423SOL    HW2 1554   1.693   0.305   3.542
  424SOL     OW 1555   1.730   0.934   3.379
  424SOL    HW1 1556   1.768   1.025   3.394
  424SOL    HW2 1557   1.722   0.917   3.280
  425SOL     OW 1558   0.859   1.374   1.878
  425SOL    HW1 1559   0.813   1.389   1.966
  425SOL    HW2 1560   0.903   1.459   1.848
  426SOL     OW 1561   0.661   1.790   2.815
  426SOL    HW1 1562   0.615   1.878   2.802
  426SOL    HW2 1563   0.760   1.802   2.808
  427SOL     OW 1564   0.859   0.956   2.723
  427SOL    HW1 1565   0.913   0.887   2.771
  427SOL    HW2 1566   0.827   1.025   2.789
  428SOL     OW 1567   1.083   0.984   1.949
  428SOL    HW1 1568   1.060   1.037   1.867
  428SOL    HW2 1569   1.164   0.928   1.930
  429SOL     OW 1570   1.861   1.569   2.713
  429SOL    HW1 1571   1.790   1.557   2.643
  429SOL    HW2 1572   1.862   1.490   2.773
  430SOL     OW 1573   0.221   1.314   3.706
  430SOL    HW1 1574   0.156   1.241   3.685
  430SOL    HW2 1575   0.225   1.328   3.804
  431SOL     OW 1576   0.079   1.240   2.515
  431SOL    HW1 1577   0.078   1.193   2.603
  431SOL    HW2 1578   0.161   1.212   2.464
  432SOL     OW 1579   0.672   1.391   3.486
  432SOL    HW1 1580   0.594   1.341   3.524
  432SOL    HW2 1581   0.669   1.486   3.517
  433SOL     OW 1582   1.824   0.192   3.089
  433SOL    HW1 1583   1.820   0.102   3.133
  433SOL    HW2 1584   1.827   0.181   2.990
  434SOL     OW 1585   0.428   0.424   2.382
  434SOL    HW1 1586   0.458   0.352   2.320
  434SOL    HW2 1587   0.389   0.384   2.465
  435SOL     OW 1588   1.705   1.487   2.966
  435SOL    HW1 1589   1.612   1.462   2.939
  435SOL    HW2 1590   1.731   1.437   3.048
  436SOL     OW 1591   0.317   0.547   3.142
  436SOL    HW1 1592   0.355   0.488   3.214
  436SOL    HW2 1593   0.357   0.521   3.054
  437SOL     OW 1594   0.812   1.586   2.549
  437SOL    HW1 1595   0.844   1.596   2.455
  437SOL    HW2 1596   0.733   1.524   2.551
  438SOL     OW 1597   1.424   0.214   2.974
  438SOL    HW1 1598   1.476   0.149   3.029
  438SOL    HW2 1599   1.375   0.277   3.035
  439SOL     OW 1600   1.001   0.034   3.016
  439SOL    HW1 1601   0.938  -0.038   2.985
  439SOL    HW2 1602   1.094  -0.002   3.016
  440SOL     OW 1603   0.770   1.330   2.163
  440SOL    HW1 1604   0.724   1.243   2.180
  440SOL    HW2 1605   0.861   1.327   2.204
  441SOL     OW 1606   0.618   1.567   3.146
  441SOL    HW1 1607   0.613   1.649   3.203
  441SOL    HW2 1608   0.707   1.564   3.101
  442SOL     OW 1609   1.352   0.052   2.030
  442SOL    HW1 1610   1.387   0.011   1.946
  442SOL    HW2 1611   1.262   0.014   2.050
  443SOL     OW 1612   1.300   0.453   2.553
  443SOL    HW1 1613   1.241   0.533   2.557
  443SOL    HW2 1614   1.315   0.418   2.646
  444SOL     OW 1615   1.593   0.221   2.744
  444SOL    HW1 1616   1.509   0.220   2.798
  444SOL    HW2 1617   1.595   0.304   2.688
  445SOL     OW 1618   0.039   1.077   2.162
  445SOL    HW1 1619   0.138   1.066   2.153
  445SOL    HW2 1620  -0.001   0.991   2.194
  446SOL     OW 1621   0.875   1.646   2.199
  446SOL    HW1 1622   0.798   1.611   2.145
  446SOL    HW2 1623   0.843   1.717   2.261
  447SOL     OW 1624   0.230   0.628   3.837
  447SOL    HW1 1625   0.137   0.626   3.874
  447SOL    HW2 1626   0.231   0.589   3.745
  448SOL     OW 1627   0.225   0.275   4.720
  448SOL    HW1 1628   0.260   0.258   4.812
  448SOL    HW2 1629   0.137   0.230   4.708
  449SOL     OW 1630   0.019   0.368   4.371
  449SOL    HW1 1631  -0.063   0.411   4.410
  449SOL    HW2 1632  -0.009   0.295   4.308
  450SOL     OW 1633   0.569   1.275   4.889
  450SOL    HW1 1634   0.476   1.268   4.852
  450SOL    HW2 1635   0.580   1.364   4.933
  451SOL     OW 1636   1.555   1.511   4.427
  451SOL    HW1 1637   1.498   1.495   4.508
  451SOL    HW2 1638   1.496   1.521   4.347
  452SOL     OW 1639   1.135   0.703   4.441
  452SOL    HW1 1640   1.192   0.781   4.416
  452SOL    HW2 1641   1.075   0.729   4.517
  453SOL     OW 1642   1.755   0.607   3.955
  453SOL    HW1 1643   1.743   0.594   3.856
  453SOL    HW2 1644   1.725   0.526   4.004
  454SOL     OW 1645   0.768   1.144   4.747
  454SOL    HW1 1646   0.690   1.161   4.807
  454SOL    HW2 1647   0.802   1.231   4.711
  455SOL     OW 1648   0.850   0.798   5.547
  455SOL    HW1 1649   0.846   0.874   5.612
  455SOL    HW2 1650   0.872   0.834   5.456
  456SOL     OW 1651   0.685   1.012   4.389
  456SOL    HW1 1652   0.754   0.996   4.459
  456SOL    HW2 1653   0.612   1.069   4.427
  457SOL     OW 1654   0.686   1.161   5.527
  457SOL    HW1 1655   0.746   1.240   5.541
  457SOL    HW2 1656   0.600   1.192   5.486
  458SOL     OW 1657   0.335   1.435   4.785
  458SOL    HW1 1658   0.257   1.404   4.732
  458SOL    HW2 1659   0.393   1.493   4.728
  459SOL     OW 1660   1.460   1.505   5.063
  459SOL    HW1 1661   1.484   1.599   5.089
  459SOL    HW2 1662   1.444   1.451   5.145
  460SOL     OW 1663   0.438   0.392   5.223
  460SOL    HW1 1664   0.520   0.336   5.232
  460SOL    HW2 1665   0.357   0.334   5.227
  461SOL     OW 1666   1.603   0.447   4.461
  461SOL    HW1 1667   1.529   0.493   4.411
  461SOL    HW2 1668   1.654   0.515   4.514
  462SOL     OW 1669   0.231   1.713   4.207
  462SOL    HW1 1670   0.265   1.790   4.261
  462SOL    HW2 1671   0.275   1.713   4.117
  463SOL     OW 1672   1.127   1.341   5.414
  463SOL    HW1 1673   1.174   1.341   5.502
  463SOL    HW2 1674   1.079   1.254   5.403
  464SOL     OW 1675   0.230   1.434   4.262
  464SOL    HW1 1676   0.204   1.530   4.262
  464SOL    HW2 1677   0.159   1.380   4.307
  465SOL     OW 1678   0.240   1.091   4.610
  465SOL    HW1 1679   0.254   1.007   4.662
  465SOL    HW2 1680   0.185   1.155   4.665
  466SOL     OW 1681   0.620   1.786   5.163
  466SOL    HW1 1682   0.528   1.769   5.198
  466SOL    HW2 1683   0.648   1.878   5.189
  467SOL     OW 1684   0.606   0.964   3.847
  467SOL    HW1 1685   0.613   1.048   3.793
  467SOL    HW2 1686   0.652   0.977   3.935
  468SOL     OW 1687   1.594   0.114   5.204
  468SOL    HW1 1688   1.576   0.181   5.132
  468SOL    HW2 1689   1.591   0.160   5.293
  469SOL     OW 1690   0.122   0.643   4.287
  469SOL    HW1 1691   0.077   0.555   4.304
  469SOL    HW2 1692   0.121   0.697   4.371
  470SOL     OW 1693   1.842   1.767   4.083
  470SOL    HW1 1694   1.896   1.738   4.163
  470SOL    HW2 1695   1.872   1.857   4.054
  471SOL     OW 1696   0.027   1.596   3.841
  471SOL    HW1 1697   0.008   1.500   3.862
  471SOL    HW2 1698  -0.006   1.654   3.916
  472SOL     OW 1699   1.689   0.922   4.336
  472SOL    HW1 1700   1.784   0.893   4.344
  472SOL    HW2 1701   1.681   0.987   4.261
  473SOL     OW 1702   1.641   1.108   4.156
  473SOL    HW1 1703   1.727   1.110   4.104
  473SOL    HW2 1704   1.655   1.155   4.244
  474SOL     OW 1705   0.113   0.737   5.321
  474SOL    HW1 1706   0.201   0.724   5.366
  474SOL    HW2 1707   0.100   0.834   5.299
  475SOL     OW 1708   0.613   1.365   4.450
  475SOL    HW1 1709   0.564   1.278   4.459
  475SOL    HW2 1710   0.590   1.408   4.363
  476SOL     OW 1711   1.293   1.228   5.147
  476SOL    HW1 1712   1.330   1.155   5.089
  476SOL    HW2 1713   1.345   1.233   5.232
  477SOL     OW 1714   0.809   0.004   4.226
  477SOL    HW1 1715   0.849   0.095   4.217
  477SOL    HW2 1716   0.709   0.012   4.232
  478SOL     OW 1717   0.197   0.976   4.988
  478SOL    HW1 1718   0.286   0.931   4.974
  478SOL    HW2 1719   0.124   0.911   4.969
  479SOL     OW 1720   1.525   0.999   3.914
  479SOL    HW1 1721   1.462   0.923   3.927
  479SOL    HW2 1722   1.573   1.017   4.000
  480SOL     OW 1723   1.187   1.792   5.340
  480SOL    HW1 1724   1.211   1.852   5.264
  480SOL    HW2 1725   1.194   1.697   5.310
  481SOL     OW 1726   0.317   0.251   5.525
  481SOL    HW1 1727   0.388   0.322   5.531
  481SOL    HW2 1728   0.229   0.290   5.553
  482SOL     OW 1729   1.466   1.417   4.677
  482SOL    HW1 1730   1.407   1.423   4.757
  482SOL    HW2 1731   1.451   1.329   4.631
  483SOL     OW 1732   1.667   1.714   4.296
  483SOL    HW1 1733   1.626   1.691   4.208
  483SOL    HW2 1734   1.649   1.640   4.361
  484SOL     OW 1735   0.598   0.729   3.994
  484SOL    HW1 1736   0.622   0.798   3.926
  484SOL    HW2 1737   0.520   0.762   4.048
  485SOL     OW 1738   1.281   0.345   4.668
  485SOL    HW1 1739   1.195   0.295   4.655
  485SOL    HW2 1740   1.343   0.291   4.724
  486SOL     OW 1741   1.576   1.662   4.031
  486SOL    HW1 1742   1.665   1.708   4.034
  486SOL    HW2 1743   1.555   1.638   3.936
  487SOL     OW 1744   0.807   0.605   5.189
  487SOL    HW1 1745   0.760   0.602   5.278
  487SOL    HW2 1746   0.756   0.550   5.123
  488SOL     OW 1747   1.394   0.469   5.398
  488SOL    HW1 1748   1.374   0.512   5.486
  488SOL    HW2 1749   1.472   0.407   5.407
  489SOL     OW 1750   0.973   0.890   5.296
  489SOL    HW1 1751   1.019   0.806   5.267
  489SOL    HW2 1752   0.917   0.924   5.221
  490SOL     OW 1753   0.991   0.410   4.966
  490SOL    HW1 1754   0.914   0.444   5.020
  490SOL    HW2 1755   0.957   0.359   4.887
  491SOL     OW 1756   1.041   0.701   4.153
  491SOL    HW1 1757   1.067   0.697   4.249
  491SOL    HW2 1758   0.956   0.650   4.139
  492SOL     OW 1759   0.076   0.811   4.513
  492SOL    HW1 1760   0.175   0.799   4.522
  492SOL    HW2 1761   0.052   0.906   4.534
  493SOL     OW 1762   0.130   1.821   5.295
  493SOL    HW1 1763   0.120   1.806   5.394
  493SOL    HW2 1764   0.044   1.857   5.259
  494SOL     OW 1765   0.865   0.348   3.919
  494SOL    HW1 1766   0.924   0.411   3.870
  494SOL    HW2 1767   0.884   0.254   3.890
  495SOL     OW 1768   1.719   0.585   5.555
  495SOL    HW1 1769   1.693   0.674   5.519
  495SOL    HW2 1770   1.717   0.517   5.482
  496SOL     OW 1771   1.362   1.144   4.269
  496SOL    HW1 1772   1.445   1.115   4.221
  496SOL    HW2 1773   1.313   1.211   4.213
  497SOL     OW 1774   0.550   0.196   4.609
  497SOL    HW1 1775   0.545   0.191   4.709
  497SOL    HW2 1776   0.552   0.292   4.580
  498SOL     OW 1777   1.008   1.456   4.201
  498SOL    HW1 1778   0.962   1.528   4.149
  498SOL    HW2 1779   1.004   1.476   4.299
  499SOL     OW 1780   0.351   1.801   4.577
  499SOL    HW1 1781   0.401   1.715   4.583
  499SOL    HW2 1782   0.416   1.878   4.574
  500SOL     OW 1783   1.795   1.066   4.597
  500SOL    HW1 1784   1.733   1.051   4.521
  500SOL    HW2 1785   1.743   1.077   4.682
  501SOL     OW 1786   1.227   1.550   5.230
  501SOL    HW1 1787   1.233   1.473   5.294
  501SOL    HW2 1788   1.175   1.524   5.150
  502SOL     OW 1789   0.321   0.943   3.966
  502SOL    HW1 1790   0.403   0.982   3.924
  502SOL    HW2 1791   0.294   0.861   3.917
  503SOL     OW 1792   1.458   0.735   4.452
  503SOL    HW1 1793   1.453   0.670   4.527
  503SOL    HW2 1794   1.538   0.794   4.465
  504SOL     OW 1795   0.461   1.266   5.451
  504SOL    HW1 1796   0.411   1.267   5.365
  504SOL    HW2 1797   0.398   1.248   5.527
  505SOL     OW 1798   1.111   1.776   3.961
  505SOL    HW1 1799   1.051   1.714   4.011
  505SOL    HW2 1800   1.142   1.732   3.876
  506SOL     OW 1801   0.202   0.285   5.222
  506SOL    HW1 1802   0.122   0.345   5.209
  506SOL    HW2 1803   0.192   0.236   5.308
  507SOL     OW 1804   1.632   1.377   3.805
  507SOL    HW1 1805   1.600   1.471   3.795
  507SOL    HW2 1806   1.556   1.314   3.793
  508SOL     OW 1807   0.464   1.743   4.047
  508SOL    HW1 1808   0.497   1.782   4.133
  508SOL    HW2 1809   0.540   1.736   3.982
  509SOL     OW 1810   1.400   0.107   4.150
  509SOL    HW1 1811   1.376   0.070   4.060
  509SOL    HW2 1812   1.499   0.123   4.154
  510SOL     OW 1813   0.249   1.785   4.965
  510SOL    HW1 1814   0.306   1.720   5.015
  510SOL    HW2 1815   0.233   1.752   4.872
  511SOL     OW 1816   0.940   1.698   4.628
  511SOL    HW1 1817   1.020   1.641   4.649
  511SOL    HW2 1818   0.891   1.658   4.551
  512SOL     OW 1819   0.382   0.700   4.204
  512SOL    HW1 1820   0.427   0.610   4.201
  512SOL    HW2 1821   0.288   0.689   4.237
  513SOL     OW 1822   1.547   0.222   5.453
  513SOL    HW1 1823   1.542   0.259   5.545
  513SOL    HW2 1824   1.475   0.153   5.441
  514SOL     OW 1825   0.614   0.122   3.841
  514SOL    HW1 1826   0.712   0.100   3.848
  514SOL    HW2 1827   0.583   0.105   3.748
  515SOL     OW 1828   0.781   0.264   5.473
  515SOL    HW1 1829   0.848   0.203   5.516
  515SOL    HW2 1830   0.708   0.283   5.538
  516SOL     OW 1831   0.888   1.514   4.919
  516SOL    HW1 1832   0.865   1.489   4.825
  516SOL    HW2 1833   0.949   1.445   4.958
  517SOL     OW 1834   1.351   0.590   5.157
  517SOL    HW1 1835   1.379   0.547   5.242
  517SOL    HW2 1836   1.376   0.686   5.158
  518SOL     OW 1837   0.803   1.402   4.648
  518SOL    HW1 1838   0.893   1.416   4.606
  518SOL    HW2 1839   0.732   1.404   4.577
  519SOL     OW 1840   0.922   0.503   4.623
  519SOL    HW1 1841   0.897   0.494   4.527
  519SOL    HW2 1842   0.970   0.421   4.654
  520SOL     OW 1843   0.539   0.064   4.236
  520SOL    HW1 1844   0.458   0.065   4.294
  520SOL    HW2 1845   0.542   0.147   4.181
  521SOL     OW 1846   1.434   1.188   3.765
  521SOL    HW1 1847   1.466   1.112   3.822
  521SOL    HW2 1848   1.342   1.215   3.795
  522SOL     OW 1849   0.297   0.035   3.895
  522SOL    HW1 1850   0.346   0.119   3.874
  522SOL    HW2 1851   0.359  -0.030   3.940
  523SOL     OW 1852   0.935   0.236   4.204
  523SOL    HW1 1853   0.887   0.277   4.126
  523SOL    HW2 1854   1.034   0.234   4.185
  524SOL     OW 1855   1.076   0.683   5.188
  524SOL    HW1 1856   0.996   0.622   5.191
  524SOL    HW2 1857   1.157   0.630   5.164
  525SOL     OW 1858   1.227   1.570   4.517
  525SOL    HW1 1859   1.248   1.644   4.452
  525SOL    HW2 1860   1.295   1.570   4.590
  526SOL     OW 1861   0.459   1.152   4.465
  526SOL    HW1 1862   0.388   1.125   4.530
  526SOL    HW2 1863   0.433   1.124   4.372
  527SOL     OW 1864   1.271   1.797   4.315
  527SOL    HW1 1865   1.315   1.861   4.251
  527SOL    HW2 1866   1.221   1.849   4.385
  528SOL     OW 1867   1.032   0.549   3.740
  528SOL    HW1 1868   0.991   0.631   3.701
  528SOL    HW2 1869   1.096   0.575   3.813
  529SOL     OW 1870   0.078   0.556   5.110
  529SOL    HW1 1871   0.170   0.555   5.069
  529SOL    HW2 1872   0.072   0.630   5.177
  530SOL     OW 1873   0.561   0.222   4.871
  530SOL    HW1 1874   0.599   0.138   4.908
  530SOL    HW2 1875   0.473   0.241   4.915
  531SOL     OW 1876   0.866   0.454   4.366
  531SOL    HW1 1877   0.834   0.526   4.304
  531SOL    HW2 1878   0.890   0.373   4.313
  532SOL     OW 1879   1.017   0.039   4.477
  532SOL    HW1 1880   0.945   0.044   4.408
  532SOL    HW2 1881   0.993  -0.030   4.546
  533SOL     OW 1882   1.429   1.173   4.591
  533SOL    HW1 1883   1.374   1.089   4.584
  533SOL    HW2 1884   1.455   1.202   4.499
  534SOL     OW 1885   1.466   0.590   4.716
  534SOL    HW1 1886   1.436   0.495   4.723
  534SOL    HW2 1887   1.539   0.606   4.782
  535SOL     OW 1888   1.857   0.833   4.101
  535SOL    HW1 1889   1.899   0.769   4.165
  535SOL    HW2 1890   1.819   0.782   4.023
  536SOL     OW 1891   0.488   1.385   3.898
  536SOL    HW1 1892   0.401   1.370   3.945
  536SOL    HW2 1893   0.471   1.411   3.803
  537SOL     OW 1894   1.664   1.280   4.381
  537SOL    HW1 1895   1.763   1.288   4.395
  537SOL    HW2 1896   1.619   1.364   4.412
  538SOL     OW 1897   1.390   0.575   3.802
  538SOL    HW1 1898   1.336   0.554   3.883
  538SOL    HW2 1899   1.481   0.534   3.811
  539SOL     OW 1900   0.527   0.256   4.052
  539SOL    HW1 1901   0.554   0.197   3.977
  539SOL    HW2 1902   0.527   0.351   4.021
  540SOL     OW 1903   1.754   1.223   5.312
  540SOL    HW1 1904   1.845   1.184   5.299
  540SOL    HW2 1905   1.762   1.319   5.336
  541SOL     OW 1906   1.064   1.347   5.064
  541SOL    HW1 1907   0.984   1.324   5.119
  541SOL    HW2 1908   1.147   1.321   5.113
  542SOL     OW 1909   1.592   1.629   5.349
  542SOL    HW1 1910   1.619   1.663   5.259
  542SOL    HW2 1911   1.671   1.591   5.395
  543SOL     OW 1912   1.111   1.195   4.824
  543SOL    HW1 1913   1.071   1.239   4.905
  543SOL    HW2 1914   1.070   1.232   4.741
  544SOL     OW 1915   1.638   1.099   4.803
  544SOL    HW1 1916   1.643   1.180   4.862
  544SOL    HW2 1917   1.552   1.101   4.752
  545SOL     OW 1918   0.915   0.089   5.126
  545SOL    HW1 1919   0.940   0.069   5.031
  545SOL    HW2 1920   0.987   0.145   5.168
  546SOL     OW 1921   0.980   1.116   5.443
  546SOL    HW1 1922   0.881   1.122   5.453
  546SOL    HW2 1923   1.003   1.036   5.387
  547SOL     OW 1924   0.705   1.050   4.092
  547SOL    HW1 1925   0.691   1.057   4.191
  547SOL    HW2 1926   0.789   0.999   4.074
  548SOL     OW 1927   0.410   0.813   4.975
  548SOL    HW1 1928   0.496   0.825   5.025
  548SOL    HW2 1929   0.368   0.726   5.002
  549SOL     OW 1930   1.274   0.386   4.986
  549SOL    HW1 1931   1.295   0.460   5.050
  549SOL    HW2 1932   1.185   0.403   4.943
  550SOL     OW 1933   0.064   1.564   5.055
  550SOL    HW1 1934   0.018   1.646   5.021
  550SOL    HW2 1935   0.162   1.583   5.064
  551SOL     OW 1936   0.367   1.100   4.225
  551SOL    HW1 1937   0.360   1.183   4.169
  551SOL    HW2 1938   0.371   1.020   4.165
  552SOL     OW 1939   0.566   0.537   4.589
  552SOL    HW1 1940   0.578   0.603   4.515
  552SOL    HW2 1941   0.612   0.571   4.672
  553SOL     OW 1942   1.252   1.348   4.112
  553SOL    HW1 1943   1.302   1.425   4.152
  553SOL    HW2 1944   1.157   1.350   4.144
  554SOL     OW 1945   1.272   1.445   4.866
  554SOL    HW1 1946   1.319   1.458   4.953
  554SOL    HW2 1947   1.206   1.371   4.875
  555SOL     OW 1948   1.582   0.639   4.196
  555SOL    HW1 1949   1.551   0.700   4.269
  555SOL    HW2 1950   1.632   0.691   4.127
  556SOL     OW 1951   0.354   1.510   5.053
  556SOL    HW1 1952   0.333   1.466   4.966
  556SOL    HW2 1953   0.451   1.536   5.056
  557SOL     OW 1954   0.402   0.751   5.322
  557SOL    HW1 1955   0.470   0.806   5.275
  557SOL    HW2 1956   0.442   0.663   5.349
  558SOL     OW 1957   1.587   0.779   5.394
  558SOL    HW1 1958   1.495   0.817   5.389
  558SOL    HW2 1959   1.647   0.826   5.329
  559SOL     OW 1960   1.013   0.105   5.494
  559SOL    HW1 1961   1.019   0.190   5.442
  559SOL    HW2 1962   1.045   0.029   5.437
  560SOL     OW 1963   0.504   0.050   5.464
  560SOL    HW1 1964   0.462  -0.007   5.394
  560SOL    HW2 1965   0.438   0.119   5.496
  561SOL     OW 1966   0.573   0.870   4.753
  561SOL    HW1 1967   0.617   0.959   4.744
  561SOL    HW2 1968   0.510   0.870   4.830
  562SOL     OW 1969   1.360   0.862   4.769
  562SOL    HW1 1970   1.285   0.862   4.703
  562SOL    HW2 1971   1.397   0.770   4.778
  563SOL     OW 1972   1.209   0.525   3.999
  563SOL    HW1 1973   1.222   0.441   4.053
  563SOL    HW2 1974   1.180   0.599   4.059
  564SOL     OW 1975   0.307   0.213   4.955
  564SOL    HW1 1976   0.284   0.250   5.045
  564SOL    HW2 1977   0.277   0.118   4.949
  565SOL     OW 1978   0.037   1.310   5.006
  565SOL    HW1 1979   0.090   1.261   5.074
  565SOL    HW2 1980   0.059   1.408   5.011
  566SOL     OW 1981   0.732   0.634   4.788
  566SOL    HW1 1982   0.791   0.608   4.712
  566SOL    HW2 1983   0.704   0.730   4.777
  567SOL     OW 1984   1.728   0.935   5.578
  567SOL    HW1 1985   1.682   0.928   5.489
  567SOL    HW2 1986   1.666   0.979   5.644
  568SOL     OW 1987   0.307   0.063   4.342
  568SOL    HW1 1988   0.296   0.157   4.375
  568SOL    HW2 1989   0.302   0.000   4.419
  569SOL     OW 1990   1.622   0.367   4.098
  569SOL    HW1 1991   1.624   0.291   4.162
  569SOL    HW2 1992   1.574   0.444   4.138
  570SOL     OW 1993   1.023   0.766   4.690
  570SOL    HW1 1994   1.038   0.787   4.786
  570SOL    HW2 1995   0.993   0.671   4.681
  571SOL     OW 1996   0.980   1.573   5.424
  571SOL    HW1 1997   0.960   1.617   5.336
  571SOL    HW2 1998   1.019   1.482   5.408
  572SOL     OW 1999   1.859   1.518   5.329
  572SOL    HW1 2000   1.873   1.545   5.234
  572SOL    HW2 2001   1.942   1.540   5.382
  573SOL     OW 2002   0.350   0.898   5.528
  573SOL    HW1 2003   0.426   0.942   5.576
  573SOL    HW2 2004   0.385   0.851   5.446
  574SOL     OW 2005   1.540   0.274   3.849
  574SOL    HW1 2006   1.479   0.199   3.872
  574SOL    HW2 2007   1.562   0.326   3.932
  575SOL     OW 2008   1.303   0.838   3.766
  575SOL    HW1 2009   1.337   0.745   3.781
  575SOL    HW2 2010   1.321   0.865   3.671
  576SOL     OW 2011   1.068   1.333   4.573
  576SOL    HW1 2012   1.075   1.249   4.518
  576SOL    HW2 2013   1.130   1.402   4.537
  577SOL     OW 2014   0.319   0.810   4.673
  577SOL    HW1 2015   0.412   0.846   4.678
  577SOL    HW2 2016   0.313   0.725   4.725
  578SOL     OW 2017   0.339   0.509   4.730
  578SOL    HW1 2018   0.287   0.426   4.713
  578SOL    HW2 2019   0.416   0.514   4.666
  579SOL     OW 2020   1.138   0.380   5.402
  579SOL    HW1 2021   1.093   0.443   5.466
  579SOL    HW2 2022   1.231   0.411   5.385
  580SOL     OW 2023   1.160   0.207   5.201
  580SOL    HW1 2024   1.160   0.271   5.278
  580SOL    HW2 2025   1.188   0.255   5.118
  581SOL     OW 2026   0.008   1.326   3.924
  581SOL    HW1 2027  -0.085   1.347   3.893
  581SOL    HW2 2028   0.018   1.227   3.937
  582SOL     OW 2029   0.088   1.801   4.651
  582SOL    HW1 2030   0.046   1.715   4.624
  582SOL    HW2 2031   0.182   1.804   4.617
  583SOL     OW 2032   0.504   1.568   4.634
  583SOL    HW1 2033   0.570   1.642   4.643
  583SOL    HW2 2034   0.548   1.489   4.592
  584SOL     OW 2035   1.002   0.796   4.962
  584SOL    HW1 2036   1.043   0.764   5.048
  584SOL    HW2 2037   0.906   0.769   4.959
  585SOL     OW 2038   0.040   0.544   4.838
  585SOL    HW1 2039   0.125   0.511   4.797
  585SOL    HW2 2040   0.053   0.559   4.936
  586SOL     OW 2041   0.189   0.520   5.446
  586SOL    HW1 2042   0.248   0.480   5.376
  586SOL    HW2 2043   0.131   0.591   5.405
  587SOL     OW 2044   1.369   0.950   5.384
  587SOL    HW1 2045   1.408   1.039   5.404
  587SOL    HW2 2046   1.379   0.930   5.287
  588SOL     OW 2047   0.815   0.572   4.049
  588SOL    HW1 2048   0.822   0.483   4.003
  588SOL    HW2 2049   0.721   0.606   4.041
  589SOL     OW 2050   1.657   0.604   4.930
  589SOL    HW1 2051   1.619   0.535   4.992
  589SOL    HW2 2052   1.739   0.568   4.886
  590SOL     OW 2053   0.252   1.564   5.468
  590SOL    HW1 2054   0.222   1.621   5.544
  590SOL    HW2 2055   0.245   1.467   5.494
  591SOL     OW 2056   0.671   0.464   4.993
  591SOL    HW1 2057   0.637   0.375   4.963
  591SOL    HW2 2058   0.697   0.518   4.913
  592SOL     OW 2059   0.930   1.678   5.189
  592SOL    HW1 2060   0.906   1.660   5.094
  592SOL    HW2 2061   0.960   1.772   5.199
  593SOL     OW 2062   0.473   0.500   3.915
  593SOL    HW1 2063   0.534   0.580   3.919
  593SOL    HW2 2064   0.378   0.531   3.922
  594SOL     OW 2065   0.159   1.137   5.190
  594SOL    HW1 2066   0.181   1.076   5.266
  594SOL    HW2 2067   0.169   1.088   5.104
  595SOL     OW 2068   1.347   1.059   4.958
  595SOL    HW1 2069   1.371   0.996   4.884
  595SOL    HW2 2070   1.257   1.099   4.940
  596SOL     OW 2071   1.302   0.855   4.033
  596SOL    HW1 2072   1.216   0.824   4.075
  596SOL    HW2 2073   1.298   0.841   3.934
  597SOL     OW 2074   1.759   1.747   4.878
  597SOL    HW1 2075   1.820   1.777   4.805
  597SOL    HW2 2076   1.721   1.658   4.856
  598SOL     OW 2077   1.252   1.731   4.852
  598SOL    HW1 2078   1.336   1.736   4.798
  598SOL    HW2 2079   1.229   1.635   4.870
  599SOL     OW 2080   0.083   1.258   4.746
  599SOL    HW1 2081   0.078   1.257   4.846
  599SOL    HW2 2082   0.000   1.217   4.708
  600SOL     OW 2083   0.688   1.662   5.440
  600SOL    HW1 2084   0.632   1.743   5.449
  600SOL    HW2 2085   0.740   1.666   5.354
  601SOL     OW 2086   1.726   0.135   4.247
  601SOL    HW1 2087   1.799   0.118   4.180
  601SOL    HW2 2088   1.695   0.048   4.285
  602SOL     OW 2089   1.388   1.573   4.201
  602SOL    HW1 2090   1.455   1.585   4.127
  602SOL    HW2 2091   1.348   1.662   4.224
  603SOL     OW 2092   0.130   1.794   5.575
  603SOL    HW1 2093   0.089   1.720   5.628
  603SOL    HW2 2094   0.194   1.845   5.633
  604SOL     OW 2095   1.280   0.927   4.396
  604SOL    HW1 2096   1.340   0.846   4.398
  604SOL    HW2 2097   1.320   0.996   4.336
  605SOL     OW 2098   0.830   1.273   5.146
  605SOL    HW1 2099   0.825   1.306   5.241
  605SOL    HW2 2100   0.744   1.292   5.100
  606SOL     OW 2101   0.672   1.616   3.878
  606SOL    HW1 2102   0.681   1.626   3.779
  606SOL    HW2 2103   0.632   1.527   3.899
  607SOL     OW 2104   1.650   1.720   5.118
  607SOL    HW1 2105   1.703   1.730   5.034
  607SOL    HW2 2106   1.623   1.810   5.152
  608SOL     OW 2107   1.841   0.175   4.687
  608SOL    HW1 2108   1.880   0.090   4.651
  608SOL    HW2 2109   1.743   0.177   4.668
  609SOL     OW 2110   0.263   0.326   4.444
  609SOL    HW1 2111   0.184   0.377   4.410
  609SOL    HW2 2112   0.254   0.311   4.542
  610SOL     OW 2113   1.194   1.612   3.755
  610SOL    HW1 2114   1.200   1.519   3.792
  610SOL    HW2 2115   1.135   1.612   3.675
  611SOL     OW 2116   0.822   1.002   5.096
  611SOL    HW1 2117   0.862   1.001   5.004
  611SOL    HW2 2118   0.832   1.094   5.136
  612SOL     OW 2119   0.916   0.910   4.015
  612SOL    HW1 2120   0.979   0.948   3.947
  612SOL    HW2 2121   0.956   0.827   4.054
  613SOL     OW 2122   1.504   1.607   3.768
  613SOL    HW1 2123   1.412   1.644   3.775
  613SOL    HW2 2124   1.542   1.627   3.678
  614SOL     OW 2125   0.372   1.288   5.214
  614SOL    HW1 2126   0.359   1.381   5.180
  614SOL    HW2 2127   0.288   1.236   5.201
  615SOL     OW 2128   1.614   1.292   5.013
  615SOL    HW1 2129   1.674   1.295   5.093
  615SOL    HW2 2130   1.539   1.356   5.026
  616SOL     OW 2131   1.039   1.098   4.420
  616SOL    HW1 2132   0.969   1.051   4.474
  616SOL    HW2 2133   1.098   1.030   4.377
  617SOL     OW 2134   1.014   0.236   4.695
  617SOL    HW1 2135   1.006   0.200   4.602
  617SOL    HW2 2136   1.012   0.160   4.760
  618SOL     OW 2137   0.590   1.487   4.215
  618SOL    HW1 2138   0.632   1.429   4.145
  618SOL    HW2 2139   0.546   1.566   4.171
  619SOL     OW 2140   1.709   0.385   5.105
  619SOL    HW1 2141   1.782   0.454   5.109
  619SOL    HW2 2142   1.737   0.310   5.046
  620SOL     OW 2143   0.255   1.348   4.014
  620SOL    HW1 2144   0.159   1.349   3.987
  620SOL    HW2 2145   0.267   1.401   4.098
  621SOL     OW 2146   0.105   1.013   5.450
  621SOL    HW1 2147   0.028   0.980   5.504
  621SOL    HW2 2148   0.190   0.983   5.492
  622SOL     OW 2149   0.672   0.203   5.213
  622SOL    HW1 2150   0.762   0.187   5.173
  622SOL    HW2 2151   0.680   0.208   5.312
  623SOL     OW 2152   0.075   0.345   3.757
  623SOL    HW1 2153  -0.017   0.317   3.728
  623SOL    HW2 2154   0.106   0.422   3.701
  624SOL     OW 2155   1.440   0.856   5.122
  624SOL    HW1 2156   1.383   0.908   5.059
  624SOL    HW2 2157   1.536   0.868   5.098
  625SOL     OW 2158   0.072   0.166   4.042
  625SOL    HW1 2159   0.055   0.249   3.988
  625SOL    HW2 2160   0.162   0.129   4.020
  626SOL     OW 2161   1.183   1.335   3.843
  626SOL    HW1 2162   1.084   1.324   3.845
  626SOL    HW2 2163   1.217   1.350   3.936
  627SOL     OW 2164   0.613   0.842   5.155
  627SOL    HW1 2165   0.669   0.923   5.138
  627SOL    HW2 2166   0.672   0.762   5.158
  628SOL     OW 2167   1.493   1.767   4.683
  628SOL    HW1 2168   1.526   1.831   4.614
  628SOL    HW2 2169   1.559   1.761   4.758
  629SOL     OW 2170   0.716   0.565   5.432
  629SOL    HW1 2171   0.735   0.630   5.506
  629SOL    HW2 2172   0.776   0.485   5.441
  630SOL     OW 2173   1.450   1.220   5.357
  630SOL    HW1 2174   1.441   1.210   5.456
  630SOL    HW2 2175   1.546   1.213   5.331
  631SOL     OW 2176   0.390   1.741   5.284
  631SOL    HW1 2177   0.299   1.782   5.282
  631SOL    HW2 2178   0.383   1.647   5.316
  632SOL     OW 2179   1.674   0.883   4.978
  632SOL    HW1 2180   1.647   0.794   4.941
  632SOL    HW2 2181   1.675   0.951   4.905
  633SOL     OW 2182   1.225   0.325   4.173
  633SOL    HW1 2183   1.290   0.251   4.162
  633SOL    HW2 2184   1.245   0.375   4.257
  634SOL     OW 2185   0.594   0.745   4.376
  634SOL    HW1 2186   0.644   0.830   4.357
  634SOL    HW2 2187   0.506   0.747   4.328
  635SOL     OW 2188   1.777   0.342   5.366
  635SOL    HW1 2189   1.760   0.373   5.272
  635SOL    HW2 2190   1.693   0.305   5.404
  636SOL     OW 2191   1.730   0.934   5.241
  636SOL    HW1 2192   1.768   1.025   5.256
  636SOL    HW2 2193   1.722   0.917   5.142
  637SOL     OW 2194   0.859   1.374   3.740
  637SOL    HW1 2195   0.813   1.389   3.828
  637SOL    HW2 2196   0.903   1.459   3.710
  638SOL     OW 2197   0.661   1.790   4.677
  638SOL    HW1 2198   0.615   1.878   4.664
  638SOL    HW2 2199   0.760   1.802   4.670
  639SOL     OW 2200   0.859   0.956   4.585
  639SOL    HW1 2201   0.913   0.887   4.633
  639SOL    HW2 2202   0.827   1.025   4.651
  640SOL     OW 2203   1.083   0.984   3.811
  640SOL    HW1 2204   1.060   1.037   3.729
  640SOL    HW2 2205   1.164   0.928   3.792
  641SOL     OW 2206   1.861   1.569   4.575
  641SOL    HW1 2207   1.790   1.557   4.505
  641SOL    HW2 2208   1.862   1.490   4.635
  642SOL     OW 2209   0.221   1.314   5.568
  642SOL    HW1 2210   0.156   1.241   5.547
  642SOL    HW2 2211   0.225   1.328   5.666
  643SOL     OW 2212   0.079   1.240   4.377
  643SOL    HW1 2213   0.078   1.193   4.465
  643SOL    HW2 2214   0.161   1.212   4.326
  644SOL     OW 2215   0.672   1.391   5.348
  644SOL    HW1 2216   0.594   1.341   5.386
  644SOL    HW2 2217   0.669   1.486   5.379
  645SOL     OW 2218   1.824   0.192   4.951
  645SOL    HW1 2219   1.820   0.102   4.995
  645SOL    HW2 2220   1.827   0.181   4.852
  646SOL     OW 2221   0.428   0.424   4.244
  646SOL    HW1 2222   0.458   0.352   4.182
  646SOL    HW2 2223   0.389   0.384   4.327
  647SOL     OW 2224   1.705   1.487   4.828
  647SOL    HW1 2225   1.612   1.462   4.801
  647SOL    HW2 2226   1.731   1.437   4.910
  648SOL     OW 2227   0.317   0.547   5.004
  648SOL    HW1 2228   0.355   0.488   5.076
  648SOL    HW2 2229   0.357   0.521   4.916
  649SOL     OW 2230   0.812   1.586   4.411
  649SOL    HW1 2231   0.844   1.596   4.317
  649SOL    HW2 2232   0.733   1.524   4.413
  650SOL     OW 2233   1.424   0.214   4.836
  650SOL    HW1 2234   1.476   0.149   4.891
  650SOL    HW2 2235   1.375   0.277   4.897
  651SOL     OW 2236   1.001   0.034   4.878
  651SOL    HW1 2237   0.938  -0.038   4.847
  651SOL    HW2 2238   1.094  -0.002   4.878
  652SOL     OW 2239   0.770   1.330   4.025
  652SOL    HW1 2240   0.724   1.243   4.042
  652SOL    HW2 2241   0.861   1.327   4.066
  653SOL     OW 2242   0.618   1.567   5.008
  653SOL    HW1 2243   0.613   1.649   5.065
  653SOL    HW2 2244   0.707   1.564   4.963
  654SOL     OW 2245   1.352   0.052   3.892
  654SOL    HW1 2246   1.387   0.011   3.808
  654SOL    HW2 2247   1.262   0.014   3.912
  655SOL     OW 2248   1.300   0.453   4.415
  655SOL    HW1 2249   1.241   0.533   4.419
  655SOL    HW2 2250   1.315   0.418   4.508
  656SOL     OW 2251   1.593   0.221   4.606
  656SOL    HW1 2252   1.509   0.220   4.660
  656SOL    HW2 2253   1.595   0.304   4.550
  657SOL     OW 2254   0.039   1.077   4.024
  657SOL    HW1 2255   0.138   1.066   4.015
  657SOL    HW2 2256  -0.001   0.991   4.056
  658SOL     OW 2257   0.875   1.646   4.061
  658SOL    HW1 2258   0.798   1.611   4.007
  658SOL    HW2 2259   0.843   1.717   4.123
  659SOL     OW 2260   0.230   2.490   0.113
  659SOL    HW1 2261   0.137   2.488   0.150
  659SOL    HW2 2262   0.231   2.451   0.021
  660SOL     OW 2263   0.225   2.137   0.996
  660SOL    HW1 2264   0.260   2.120   1.088
  660SOL    HW2 2265   0.137   2.092   0.984
  661SOL     OW 2266   0.019   2.230   0.647
  661SOL    HW1 2267  -0.063   2.273   0.686
  661SOL    HW2 2268  -0.009   2.157   0.584
  662SOL     OW 2269   0.569   3.137   1.165
  662SOL    HW1 2270   0.476   3.130   1.128
  662SOL    HW2 2271   0.580   3.226   1.209
  663SOL     OW 2272   1.555   3.373   0.703
  663SOL    HW1 2273   1.498   3.357   0.784
  663SOL    HW2 2274   1.496   3.383   0.623
  664SOL     OW 2275   1.135   2.565   0.717
  664SOL    HW1 2276   1.192   2.643   0.692
  664SOL    HW2 2277   1.075   2.591   0.793
  665SOL     OW 2278   1.755   2.469   0.231
  665SOL    HW1 2279   1.743   2.456   0.132
  665SOL    HW2 2280   1.725   2.388   0.280
  666SOL     OW 2281   0.768   3.006   1.023
  666SOL    HW1 2282   0.690   3.023   1.083
  666SOL    HW2 2283   0.802   3.093   0.987
  667SOL     OW 2284   0.850   2.660   1.823
  667SOL    HW1 2285   0.846   2.736   1.888
  667SOL    HW2 2286   0.872   2.696   1.732
  668SOL     OW 2287   0.685   2.874   0.665
  668SOL    HW1 2288   0.754   2.858   0.735
  668SOL    HW2 2289   0.612   2.931   0.703
  669SOL     OW 2290   0.686   3.023   1.803
  669SOL    HW1 2291   0.746   3.102   1.817
  669SOL    HW2 2292   0.600   3.054   1.762
  670SOL     OW 2293   0.335   3.297   1.061
  670SOL    HW1 2294   0.257   3.266   1.008
  670SOL    HW2 2295   0.393   3.355   1.004
  671SOL     OW 2296   1.460   3.367   1.339
  671SOL    HW1 2297   1.484   3.461   1.365
  671SOL    HW2 2298   1.444   3.313   1.421
  672SOL     OW 2299   0.438   2.254   1.499
  672SOL    HW1 2300   0.520   2.198   1.508
  672SOL    HW2 2301   0.357   2.196   1.503
  673SOL     OW 2302   1.603   2.309   0.737
  673SOL    HW1 2303   1.529   2.355   0.687
  673SOL    HW2 2304   1.654   2.377   0.790
  674SOL     OW 2305   0.231   3.575   0.483
  674SOL    HW1 2306   0.265   3.652   0.537
  674SOL    HW2 2307   0.275   3.575   0.393
  675SOL     OW 2308   1.127   3.203   1.690
  675SOL    HW1 2309   1.174   3.203   1.778
  675SOL    HW2 2310   1.079   3.116   1.679
  676SOL     OW 2311   0.230   3.296   0.538
  676SOL    HW1 2312   0.204   3.392   0.538
  676SOL    HW2 2313   0.159   3.242   0.583
  677SOL     OW 2314   0.240   2.953   0.886
  677SOL    HW1 2315   0.254   2.869   0.938
  677SOL    HW2 2316   0.185   3.017   0.941
  678SOL     OW 2317   0.620   3.648   1.439
  678SOL    HW1 2318   0.528   3.631   1.474
  678SOL    HW2 2319   0.648   3.740   1.465
  679SOL     OW 2320   0.606   2.826   0.123
  679SOL    HW1 2321   0.613   2.910   0.069
  679SOL    HW2 2322   0.652   2.839   0.211
  680SOL     OW 2323   1.594   1.976   1.480
  680SOL    HW1 2324   1.576   2.043   1.408
  680SOL    HW2 2325   1.591   2.022   1.569
  681SOL     OW 2326   0.122   2.505   0.563
  681SOL    HW1 2327   0.077   2.417   0.580
  681SOL    HW2 2328   0.121   2.559   0.647
  682SOL     OW 2329   1.842   3.629   0.359
  682SOL    HW1 2330   1.896   3.600   0.439
  682SOL    HW2 2331   1.872   3.719   0.330
  683SOL     OW 2332   0.027   3.458   0.117
  683SOL    HW1 2333   0.008   3.362   0.138
  683SOL    HW2 2334  -0.006   3.516   0.192
  684SOL     OW 2335   1.689   2.784   0.612
  684SOL    HW1 2336   1.784   2.755   0.620
  684SOL    HW2 2337   1.681   2.849   0.537
  685SOL     OW 2338   1.641   2.970   0.432
  685SOL    HW1 2339   1.727   2.972   0.380
  685SOL    HW2 2340   1.655   3.017   0.520
  686SOL     OW 2341   0.113   2.599   1.597
  686SOL    HW1 2342   0.201   2.586   1.642
  686SOL    HW2 2343   0.100   2.696   1.575
  687SOL     OW 2344   0.613   3.227   0.726
  687SOL    HW1 2345   0.564   3.140   0.735
  687SOL    HW2 2346   0.590   3.270   0.639
  688SOL     OW 2347   1.293   3.090   1.423
  688SOL    HW1 2348   1.330   3.017   1.365
  688SOL    HW2 2349   1.345   3.095   1.508
  689SOL     OW 2350   0.809   1.866   0.502
  689SOL    HW1 2351   0.849   1.957   0.493
  689SOL    HW2 2352   0.709   1.874   0.508
  690SOL     OW 2353   0.197   2.838   1.264
  690SOL    HW1 2354   0.286   2.793   1.250
  690SOL    HW2 2355   0.124   2.773   1.245
  691SOL     OW 2356   1.525   2.861   0.190
  691SOL    HW1 2357   1.462   2.785   0.203
  691SOL    HW2 2358   1.573   2.879   0.276
  692SOL     OW 2359   1.187   3.654   1.616
  692SOL    HW1 2360   1.211   3.714   1.540
  692SOL    HW2 2361   1.194   3.559   1.586
  693SOL     OW 2362   0.317   2.113   1.801
  693SOL    HW1 2363   0.388   2.184   1.807
  693SOL    HW2 2364   0.229   2.152   1.829
  694SOL     OW 2365   1.466   3.279   0.953
  694SOL    HW1 2366   1.407   3.285   1.033
  694SOL    HW2 2367   1.451   3.191   0.907
  695SOL     OW 2368   1.667   3.576   0.572
  695SOL    HW1 2369   1.626   3.553   0.484
  695SOL    HW2 2370   1.649   3.502   0.637
  696SOL     OW 2371   0.598   2.591   0.270
  696SOL    HW1 2372   0.622   2.660   0.202
  696SOL    HW2 2373   0.520   2.624   0.324
  697SOL     OW 2374   1.281   2.207   0.944
  697SOL    HW1 2375   1.195   2.157   0.931
  697SOL    HW2 2376   1.343   2.153   1.000
  698SOL     OW 2377   1.576   3.524   0.307
  698SOL    HW1 2378   1.665   3.570   0.310
  698SOL    HW2 2379   1.555   3.500   0.212
  699SOL     OW 2380   0.807   2.467   1.465
  699SOL    HW1 2381   0.760   2.464   1.554
  699SOL    HW2 2382   0.756   2.412   1.399
  700SOL     OW 2383   1.394   2.331   1.674
  700SOL    HW1 2384   1.374   2.374   1.762
  700SOL    HW2 2385   1.472   2.269   1.683
  701SOL     OW 2386   0.973   2.752   1.572
  701SOL    HW1 2387   1.019   2.668   1.543
  701SOL    HW2 2388   0.917   2.786   1.497
  702SOL     OW 2389   0.991   2.272   1.242
  702SOL    HW1 2390   0.914   2.306   1.296
  702SOL    HW2 2391   0.957   2.221   1.163
  703SOL     OW 2392   1.041   2.563   0.429
  703SOL    HW1 2393   1.067   2.559   0.525
  703SOL    HW2 2394   0.956   2.512   0.415
  704SOL     OW 2395   0.076   2.673   0.789
  704SOL    HW1 2396   0.175   2.661   0.798
  704SOL    HW2 2397   0.052   2.768   0.810
  705SOL     OW 2398   0.130   3.683   1.571
  705SOL    HW1 2399   0.120   3.668   1.670
  705SOL    HW2 2400   0.044   3.719   1.535
  706SOL     OW 2401   0.865   2.210   0.195
  706SOL    HW1 2402   0.924   2.273   0.146
  706SOL    HW2 2403   0.884   2.116   0.166
  707SOL     OW 2404   1.719   2.447   1.831
  707SOL    HW1 2405   1.693   2.536   1.795
  707SOL    HW2 2406   1.717   2.379   1.758
  708SOL     OW 2407   1.362   3.006   0.545
  708SOL    HW1 2408   1.445   2.977   0.497
  708SOL    HW2 2409   1.313   3.073   0.489
  709SOL     OW 2410   0.550   2.058   0.885
  709SOL    HW1 2411   0.545   2.053   0.985
  709SOL    HW2 2412   0.552   2.154   0.856
  710SOL     OW 2413   1.008   3.318   0.477
  710SOL    HW1 2414   0.962   3.390   0.425
  710SOL    HW2 2415   1.004   3.338   0.575
  711SOL     OW 2416   0.351   3.663   0.853
  711SOL    HW1 2417   0.401   3.577   0.859
  711SOL    HW2 2418   0.416   3.740   0.850
  712SOL     OW 2419   1.795   2.928   0.873
  712SOL    HW1 2420   1.733   2.913   0.797
  712SOL    HW2 2421   1.743   2.939   0.958
  713SOL     OW 2422   1.227   3.412   1.506
  713SOL    HW1 2423   1.233   3.335   1.570
  713SOL    HW2 2424   1.175   3.386   1.426
  714SOL     OW 2425   0.321   2.805   0.242
  714SOL    HW1 2426   0.403   2.844   0.200
  714SOL    HW2 2427   0.294   2.723   0.193
  715SOL     OW 2428   1.458   2.597   0.728
  715SOL    HW1 2429   1.453   2.532   0.803
  715SOL    HW2 2430   1.538   2.656   0.741
  716SOL     OW 2431   0.461   3.128   1.727
  716SOL    HW1 2432   0.411   3.129   1.641
  716SOL    HW2 2433   0.398   3.110   1.803
  717SOL     OW 2434   1.111   3.638   0.237
  717SOL    HW1 2435   1.051   3.576   0.287
  717SOL    HW2 2436   1.142   3.594   0.152
  718SOL     OW 2437   0.202   2.147   1.498
  718SOL    HW1 2438   0.122   2.207   1.485
  718SOL    HW2 2439   0.192   2.098   1.584
  719SOL     OW 2440   1.632   3.239   0.081
  719SOL    HW1 2441   1.600   3.333   0.071
  719SOL    HW2 2442   1.556   3.176   0.069
  720SOL     OW 2443   0.464   3.605   0.323
  720SOL    HW1 2444   0.497   3.644   0.409
  720SOL    HW2 2445   0.540   3.598   0.258
  721SOL     OW 2446   1.400   1.969   0.426
  721SOL    HW1 2447   1.376   1.932   0.336
  721SOL    HW2 2448   1.499   1.985   0.430
  722SOL     OW 2449   0.249   3.647   1.241
  722SOL    HW1 2450   0.306   3.582   1.291
  722SOL    HW2 2451   0.233   3.614   1.148
  723SOL     OW 2452   0.940   3.560   0.904
  723SOL    HW1 2453   1.020   3.503   0.925
  723SOL    HW2 2454   0.891   3.520   0.827
  724SOL     OW 2455   0.382   2.562   0.480
  724SOL    HW1 2456   0.427   2.472   0.477
  724SOL    HW2 2457   0.288   2.551   0.513
  725SOL     OW 2458   1.547   2.084   1.729
  725SOL    HW1 2459   1.542   2.121   1.821
  725SOL    HW2 2460   1.475   2.015   1.717
  726SOL     OW 2461   0.614   1.984   0.117
  726SOL    HW1 2462   0.712   1.962   0.124
  726SOL    HW2 2463   0.583   1.967   0.024
  727SOL     OW 2464   0.781   2.126   1.749
  727SOL    HW1 2465   0.848   2.065   1.792
  727SOL    HW2 2466   0.708   2.145   1.814
  728SOL     OW 2467   0.888   3.376   1.195
  728SOL    HW1 2468   0.865   3.351   1.101
  728SOL    HW2 2469   0.949   3.307   1.234
  729SOL     OW 2470   1.351   2.452   1.433
  729SOL    HW1 2471   1.379   2.409   1.518
  729SOL    HW2 2472   1.376   2.548   1.434
  730SOL     OW 2473   0.803   3.264   0.924
  730SOL    HW1 2474   0.893   3.278   0.882
  730SOL    HW2 2475   0.732   3.266   0.853
  731SOL     OW 2476   0.922   2.365   0.899
  731SOL    HW1 2477   0.897   2.356   0.803
  731SOL    HW2 2478   0.970   2.283   0.930
  732SOL     OW 2479   0.539   1.926   0.512
  732SOL    HW1 2480   0.458   1.927   0.570
  732SOL    HW2 2481   0.542   2.009   0.457
  733SOL     OW 2482   1.434   3.050   0.041
  733SOL    HW1 2483   1.466   2.974   0.098
  733SOL    HW2 2484   1.342   3.077   0.071
  734SOL     OW 2485   0.297   1.897   0.171
  734SOL    HW1 2486   0.346   1.981   0.150
  734SOL    HW2 2487   0.359   1.832   0.216
  735SOL     OW 2488   0.935   2.098   0.480
  735SOL    HW1 2489   0.887   2.139   0.402
  735SOL    HW2 2490   1.034   2.096   0.461
  736SOL     OW 2491   1.076   2.545   1.464
  736SOL    HW1 2492   0.996   2.484   1.467
  736SOL    HW2 2493   1.157   2.492   1.440
  737SOL     OW 2494   1.227   3.432   0.793
  737SOL    HW1 2495   1.248   3.506   0.728
  737SOL    HW2 2496   1.295   3.432   0.866
  738SOL     OW 2497   0.459   3.014   0.741
  738SOL    HW1 2498   0.388   2.987   0.806
  738SOL    HW2 2499   0.433   2.986   0.648
  739SOL     OW 2500   1.271   3.659   0.591
  739SOL    HW1 2501   1.315   3.723   0.527
  739SOL    HW2 2502   1.221   3.711   0.661
  740SOL     OW 2503   1.032   2.411   0.016
  740SOL    HW1 2504   0.991   2.493  -0.023
  740SOL    HW2 2505   1.096   2.437   0.089
  741SOL     OW 2506   0.078   2.418   1.386
  741SOL    HW1 2507   0.170   2.417   1.345
  741SOL    HW2 2508   0.072   2.492   1.453
  742SOL     OW 2509   0.561   2.084   1.147
  742SOL    HW1 2510   0.599   2.000   1.184
  742SOL    HW2 2511   0.473   2.103   1.191
  743SOL     OW 2512   0.866   2.316   0.642
  743SOL    HW1 2513   0.834   2.388   0.580
  743SOL    HW2 2514   0.890   2.235   0.589
  744SOL     OW 2515   1.017   1.901   0.753
  744SOL    HW1 2516   0.945   1.906   0.684
  744SOL    HW2 2517   0.993   1.832   0.822
  745SOL     OW 2518   1.429   3.035   0.867
  745SOL    HW1 2519   1.374   2.951   0.860
  745SOL    HW2 2520   1.455   3.064   0.775
  746SOL     OW 2521   1.466   2.452   0.992
  746SOL    HW1 2522   1.436   2.357   0.999
  746SOL    HW2 2523   1.539   2.468   1.058
  747SOL     OW 2524   1.857   2.695   0.377
  747SOL    HW1 2525   1.899   2.631   0.441
  747SOL    HW2 2526   1.819   2.644   0.299
  748SOL     OW 2527   0.488   3.247   0.174
  748SOL    HW1 2528   0.401   3.232   0.221
  748SOL    HW2 2529   0.471   3.273   0.079
  749SOL     OW 2530   1.664   3.142   0.657
  749SOL    HW1 2531   1.763   3.150   0.671
  749SOL    HW2 2532   1.619   3.226   0.688
  750SOL     OW 2533   1.390   2.437   0.078
  750SOL    HW1 2534   1.336   2.416   0.159
  750SOL    HW2 2535   1.481   2.396   0.087
  751SOL     OW 2536   0.527   2.118   0.328
  751SOL    HW1 2537   0.554   2.059   0.253
  751SOL    HW2 2538   0.527   2.213   0.297
  752SOL     OW 2539   1.754   3.085   1.588
  752SOL    HW1 2540   1.845   3.046   1.575
  752SOL    HW2 2541   1.762   3.181   1.612
  753SOL     OW 2542   1.064   3.209   1.340
  753SOL    HW1 2543   0.984   3.186   1.395
  753SOL    HW2 2544   1.147   3.183   1.389
  754SOL     OW 2545   1.592   3.491   1.625
  754SOL    HW1 2546   1.619   3.525   1.535
  754SOL    HW2 2547   1.671   3.453   1.671
  755SOL     OW 2548   1.111   3.057   1.100
  755SOL    HW1 2549   1.071   3.101   1.181
  755SOL    HW2 2550   1.070   3.094   1.017
  756SOL     OW 2551   1.638   2.961   1.079
  756SOL    HW1 2552   1.643   3.042   1.138
  756SOL    HW2 2553   1.552   2.963   1.028
  757SOL     OW 2554   0.915   1.951   1.402
  757SOL    HW1 2555   0.940   1.931   1.307
  757SOL    HW2 2556   0.987   2.007   1.444
  758SOL     OW 2557   0.980   2.978   1.719
  758SOL    HW1 2558   0.881   2.984   1.729
  758SOL    HW2 2559   1.003   2.898   1.663
  759SOL     OW 2560   0.705   2.912   0.368
  759SOL    HW1 2561   0.691   2.919   0.467
  759SOL    HW2 2562   0.789   2.861   0.350
  760SOL     OW 2563   0.410   2.675   1.251
  760SOL    HW1 2564   0.496   2.687   1.301
  760SOL    HW2 2565   0.368   2.588   1.278
  761SOL     OW 2566   1.274   2.248   1.262
  761SOL    HW1 2567   1.295   2.322   1.326
  761SOL    HW2 2568   1.185   2.265   1.219
  762SOL     OW 2569   0.064   3.426   1.331
  762SOL    HW1 2570   0.018   3.508   1.297
  762SOL    HW2 2571   0.162   3.445   1.340
  763SOL     OW 2572   0.367   2.962   0.501
  763SOL    HW1 2573   0.360   3.045   0.445
  763SOL    HW2 2574   0.371   2.882   0.441
  764SOL     OW 2575   0.566   2.399   0.865
  764SOL    HW1 2576   0.578   2.465   0.791
  764SOL    HW2 2577   0.612   2.433   0.948
  765SOL     OW 2578   1.252   3.210   0.388
  765SOL    HW1 2579   1.302   3.287   0.428
  765SOL    HW2 2580   1.157   3.212   0.420
  766SOL     OW 2581   1.272   3.307   1.142
  766SOL    HW1 2582   1.319   3.320   1.229
  766SOL    HW2 2583   1.206   3.233   1.151
  767SOL     OW 2584   1.582   2.501   0.472
  767SOL    HW1 2585   1.551   2.562   0.545
  767SOL    HW2 2586   1.632   2.553   0.403
  768SOL     OW 2587   0.354   3.372   1.329
  768SOL    HW1 2588   0.333   3.328   1.242
  768SOL    HW2 2589   0.451   3.398   1.332
  769SOL     OW 2590   0.402   2.613   1.598
  769SOL    HW1 2591   0.470   2.668   1.551
  769SOL    HW2 2592   0.442   2.525   1.625
  770SOL     OW 2593   1.587   2.641   1.670
  770SOL    HW1 2594   1.495   2.679   1.665
  770SOL    HW2 2595   1.647   2.688   1.605
  771SOL     OW 2596   1.013   1.967   1.770
  771SOL    HW1 2597   1.019   2.052   1.718
  771SOL    HW2 2598   1.045   1.891   1.713
  772SOL     OW 2599   0.504   1.912   1.740
  772SOL    HW1 2600   0.462   1.855   1.670
  772SOL    HW2 2601   0.438   1.981   1.772
  773SOL     OW 2602   0.573   2.732   1.029
  773SOL    HW1 2603   0.617   2.821   1.020
  773SOL    HW2 2604   0.510   2.732   1.106
  774SOL     OW 2605   1.360   2.724   1.045
  774SOL    HW1 2606   1.285   2.724   0.979
  774SOL    HW2 2607   1.397   2.632   1.054
  775SOL     OW 2608   1.209   2.387   0.275
  775SOL    HW1 2609   1.222   2.303   0.329
  775SOL    HW2 2610   1.180   2.461   0.335
  776SOL     OW 2611   0.307   2.075   1.231
  776SOL    HW1 2612   0.284   2.112   1.321
  776SOL    HW2 2613   0.277   1.980   1.225
  777SOL     OW 2614   0.037   3.172   1.282
  777SOL    HW1 2615   0.090   3.123   1.350
  777SOL    HW2 2616   0.059   3.270   1.287
  778SOL     OW 2617   0.732   2.496   1.064
  778SOL    HW1 2618   0.791   2.470   0.988
  778SOL    HW2 2619   0.704   2.592   1.053
  779SOL     OW 2620   1.728   2.797   1.854
  779SOL    HW1 2621   1.682   2.790   1.765
  779SOL    HW2 2622   1.666   2.841   1.920
  780SOL     OW 2623   0.307   1.925   0.618
  780SOL    HW1 2624   0.296   2.019   0.651
  780SOL    HW2 2625   0.302   1.862   0.695
  781SOL     OW 2626   1.622   2.229   0.374
  781SOL    HW1 2627   1.624   2.153   0.438
  781SOL    HW2 2628   1.574   2.306   0.414
  782SOL     OW 2629   1.023   2.628   0.966
  782SOL    HW1 2630   1.038   2.649   1.062
  782SOL    HW2 2631   0.993   2.533   0.957
  783SOL     OW 2632   0.980   3.435   1.700
  783SOL    HW1 2633   0.960   3.479   1.612
  783SOL    HW2 2634   1.019   3.344   1.684
  784SOL     OW 2635   1.859   3.380   1.605
  784SOL    HW1 2636   1.873   3.407   1.510
  784SOL    HW2 2637   1.942   3.402   1.658
  785SOL     OW 2638   0.350   2.760   1.804
  785SOL    HW1 2639   0.426   2.804   1.852
  785SOL    HW2 2640   0.385   2.713   1.722
  786SOL     OW 2641   1.540   2.136   0.125
  786SOL    HW1 2642   1.479   2.061   0.148
  786SOL    HW2 2643   1.562   2.188   0.208
  787SOL     OW 2644   1.303   2.700   0.042
  787SOL    HW1 2645   1.337   2.607   0.057
  787SOL    HW2 2646   1.321   2.727  -0.053
  788SOL     OW 2647   1.068   3.195   0.849
  788SOL    HW1 2648   1.075   3.111   0.794
  788SOL    HW2 2649   1.130   3.264   0.813
  789SOL     OW 2650   0.319   2.672   0.949
  789SOL    HW1 2651   0.412   2.708   0.954
  789SOL    HW2 2652   0.313   2.587   1.001
  790SOL     OW 2653   0.339   2.371   1.006
  790SOL    HW1 2654   0.287   2.288   0.989
  790SOL    HW2 2655   0.416   2.376   0.942
  791SOL     OW 2656   1.138   2.242   1.678
  791SOL    HW1 2657   1.093   2.305   1.742
  791SOL    HW2 2658   1.231   2.273   1.661
  792SOL     OW 2659   1.160   2.069   1.477
  792SOL    HW1 2660   1.160   2.133   1.554
  792SOL    HW2 2661   1.188   2.117   1.394
  793SOL     OW 2662   0.008   3.188   0.200
  793SOL    HW1 2663  -0.085   3.209   0.169
  793SOL    HW2 2664   0.018   3.089   0.213
  794SOL     OW 2665   0.088   3.663   0.927
  794SOL    HW1 2666   0.046   3.577   0.900
  794SOL    HW2 2667   0.182   3.666   0.893
  795SOL     OW 2668   0.504   3.430   0.910
  795SOL    HW1 2669   0.570   3.504   0.919
  795SOL    HW2 2670   0.548   3.351   0.868
  796SOL     OW 2671   1.002   2.658   1.238
  796SOL    HW1 2672   1.043   2.626   1.324
  796SOL    HW2 2673   0.906   2.631   1.235
  797SOL     OW 2674   0.040   2.406   1.114
  797SOL    HW1 2675   0.125   2.373   1.073
  797SOL    HW2 2676   0.053   2.421   1.212
  798SOL     OW 2677   0.189   2.382   1.722
  798SOL    HW1 2678   0.248   2.342   1.652
  798SOL    HW2 2679   0.131   2.453   1.681
  799SOL     OW 2680   1.369   2.812   1.660
  799SOL    HW1 2681   1.408   2.901   1.680
  799SOL    HW2 2682   1.379   2.792   1.563
  800SOL     OW 2683   0.815   2.434   0.325
  800SOL    HW1 2684   0.822   2.345   0.279
  800SOL    HW2 2685   0.721   2.468   0.317
  801SOL     OW 2686   1.657   2.466   1.206
  801SOL    HW1 2687   1.619   2.397   1.268
  801SOL    HW2 2688   1.739   2.430   1.162
  802SOL     OW 2689   0.252   3.426   1.744
  802SOL    HW1 2690   0.222   3.483   1.820
  802SOL    HW2 2691   0.245   3.329   1.770
  803SOL     OW 2692   0.671   2.326   1.269
  803SOL    HW1 2693   0.637   2.237   1.239
  803SOL    HW2 2694   0.697   2.380   1.189
  804SOL     OW 2695   0.930   3.540   1.465
  804SOL    HW1 2696   0.906   3.522   1.370
  804SOL    HW2 2697   0.960   3.634   1.475
  805SOL     OW 2698   0.473   2.362   0.191
  805SOL    HW1 2699   0.534   2.442   0.195
  805SOL    HW2 2700   0.378   2.393   0.198
  806SOL     OW 2701   0.159   2.999   1.466
  806SOL    HW1 2702   0.181   2.938   1.542
  806SOL    HW2 2703   0.169   2.950   1.380
  807SOL     OW 2704   1.347   2.921   1.234
  807SOL    HW1 2705   1.371   2.858   1.160
  807SOL    HW2 2706   1.257   2.961   1.216
  808SOL     OW 2707   1.302   2.717   0.309
  808SOL    HW1 2708   1.216   2.686   0.351
  808SOL    HW2 2709   1.298   2.703   0.210
  809SOL     OW 2710   1.759   3.609   1.154
  809SOL    HW1 2711   1.820   3.639   1.081
  809SOL    HW2 2712   1.721   3.520   1.132
  810SOL     OW 2713   1.252   3.593   1.128
  810SOL    HW1 2714   1.336   3.598   1.074
  810SOL    HW2 2715   1.229   3.497   1.146
  811SOL     OW 2716   0.083   3.120   1.022
  811SOL    HW1 2717   0.078   3.119   1.122
  811SOL    HW2 2718   0.000   3.079   0.984
  812SOL     OW 2719   0.688   3.524   1.716
  812SOL    HW1 2720   0.632   3.605   1.725
  812SOL    HW2 2721   0.740   3.528   1.630
  813SOL     OW 2722   0.903   1.948   0.133
  813SOL    HW1 2723   0.954   1.949   0.047
  813SOL    HW2 2724   0.959   1.906   0.204
  814SOL     OW 2725   1.726   1.997   0.523
  814SOL    HW1 2726   1.799   1.980   0.456
  814SOL    HW2 2727   1.695   1.910   0.561
  815SOL     OW 2728   1.388   3.435   0.477
  815SOL    HW1 2729   1.455   3.447   0.403
  815SOL    HW2 2730   1.348   3.524   0.500
  816SOL     OW 2731   0.130   3.656   1.851
  816SOL    HW1 2732   0.089   3.582   1.904
  816SOL    HW2 2733   0.194   3.707   1.909
  817SOL     OW 2734   1.280   2.789   0.672
  817SOL    HW1 2735   1.340   2.708   0.674
  817SOL    HW2 2736   1.320   2.858   0.612
  818SOL     OW 2737   0.830   3.135   1.422
  818SOL    HW1 2738   0.825   3.168   1.517
  818SOL    HW2 2739   0.744   3.154   1.376
  819SOL     OW 2740   0.672   3.478   0.154
  819SOL    HW1 2741   0.681   3.488   0.055
  819SOL    HW2 2742   0.632   3.389   0.175
  820SOL     OW 2743   1.650   3.582   1.394
  820SOL    HW1 2744   1.703   3.592   1.310
  820SOL    HW2 2745   1.623   3.672   1.428
  821SOL     OW 2746   1.841   2.037   0.963
  821SOL    HW1 2747   1.880   1.952   0.927
  821SOL    HW2 2748   1.743   2.039   0.944
  822SOL     OW 2749   0.263   2.188   0.720
  822SOL    HW1 2750   0.184   2.239   0.686
  822SOL    HW2 2751   0.254   2.173   0.818
  823SOL     OW 2752   1.194   3.474   0.031
  823SOL    HW1 2753   1.200   3.381   0.068
  823SOL    HW2 2754   1.135   3.474  -0.049
  824SOL     OW 2755   0.822   2.864   1.372
  824SOL    HW1 2756   0.862   2.863   1.280
  824SOL    HW2 2757   0.832   2.956   1.412
  825SOL     OW 2758   0.916   2.772   0.291
  825SOL    HW1 2759   0.979   2.810   0.223
  825SOL    HW2 2760   0.956   2.689   0.330
  826SOL     OW 2761   1.504   3.469   0.044
  826SOL    HW1 2762   1.412   3.506   0.051
  826SOL    HW2 2763   1.542   3.489  -0.046
  827SOL     OW 2764   0.372   3.150   1.490
  827SOL    HW1 2765   0.359   3.243   1.456
  827SOL    HW2 2766   0.288   3.098   1.477
  828SOL     OW 2767   1.614   3.154   1.289
  828SOL    HW1 2768   1.674   3.157   1.369
  828SOL    HW2 2769   1.539   3.218   1.302
  829SOL     OW 2770   1.039   2.960   0.696
  829SOL    HW1 2771   0.969   2.913   0.750
  829SOL    HW2 2772   1.098   2.892   0.653
  830SOL     OW 2773   1.014   2.098   0.971
  830SOL    HW1 2774   1.006   2.062   0.878
  830SOL    HW2 2775   1.012   2.022   1.036
  831SOL     OW 2776   0.590   3.349   0.491
  831SOL    HW1 2777   0.632   3.291   0.421
  831SOL    HW2 2778   0.546   3.428   0.447
  832SOL     OW 2779   1.709   2.247   1.381
  832SOL    HW1 2780   1.782   2.316   1.385
  832SOL    HW2 2781   1.737   2.172   1.322
  833SOL     OW 2782   0.255   3.210   0.290
  833SOL    HW1 2783   0.159   3.211   0.263
  833SOL    HW2 2784   0.267   3.263   0.374
  834SOL     OW 2785   0.105   2.875   1.726
  834SOL    HW1 2786   0.028   2.842   1.780
  834SOL    HW2 2787   0.190   2.845   1.768
  835SOL     OW 2788   0.672   2.065   1.489
  835SOL    HW1 2789   0.762   2.049   1.449
  835SOL    HW2 2790   0.680   2.070   1.588
  836SOL     OW 2791   0.075   2.207   0.033
  836SOL    HW1 2792  -0.017   2.179   0.004
  836SOL    HW2 2793   0.106   2.284  -0.023
  837SOL     OW 2794   1.440   2.718   1.398
  837SOL    HW1 2795   1.383   2.770   1.335
  837SOL    HW2 2796   1.536   2.730   1.374
  838SOL     OW 2797   0.072   2.028   0.318
  838SOL    HW1 2798   0.055   2.111   0.264
  838SOL    HW2 2799   0.162   1.991   0.296
  839SOL     OW 2800   1.183   3.197   0.119
  839SOL    HW1 2801   1.084   3.186   0.121
  839SOL    HW2 2802   1.217   3.212   0.212
  840SOL     OW 2803   0.613   2.704   1.431
  840SOL    HW1 2804   0.669   2.785   1.414
  840SOL    HW2 2805   0.672   2.624   1.434
  841SOL     OW 2806   1.493   3.629   0.959
  841SOL    HW1 2807   1.526   3.693   0.890
  841SOL    HW2 2808   1.559   3.623   1.034
  842SOL     OW 2809   0.716   2.427   1.708
  842SOL    HW1 2810   0.735   2.492   1.782
  842SOL    HW2 2811   0.776   2.347   1.717
  843SOL     OW 2812   1.450   3.082   1.633
  843SOL    HW1 2813   1.441   3.072   1.732
  843SOL    HW2 2814   1.546   3.075   1.607
  844SOL     OW 2815   0.390   3.603   1.560
  844SOL    HW1 2816   0.299   3.644   1.558
  844SOL    HW2 2817   0.383   3.509   1.592
  845SOL     OW 2818   1.674   2.745   1.254
  845SOL    HW1 2819   1.647   2.656   1.217
  845SOL    HW2 2820   1.675   2.813   1.181
  846SOL     OW 2821   1.225   2.187   0.449
  846SOL    HW1 2822   1.290   2.113   0.438
  846SOL    HW2 2823   1.245   2.237   0.533
  847SOL     OW 2824   0.594   2.607   0.652
  847SOL    HW1 2825   0.644   2.692   0.633
  847SOL    HW2 2826   0.506   2.609   0.604
  848SOL     OW 2827   1.777   2.204   1.642
  848SOL    HW1 2828   1.760   2.235   1.548
  848SOL    HW2 2829   1.693   2.167   1.680
  849SOL     OW 2830   1.730   2.796   1.517
  849SOL    HW1 2831   1.768   2.887   1.532
  849SOL    HW2 2832   1.722   2.779   1.418
  850SOL     OW 2833   0.859   3.236   0.016
  850SOL    HW1 2834   0.813   3.251   0.104
  850SOL    HW2 2835   0.903   3.321  -0.014
  851SOL     OW 2836   0.661   3.652   0.953
  851SOL    HW1 2837   0.615   3.740   0.940
  851SOL    HW2 2838   0.760   3.664   0.946
  852SOL     OW 2839   0.859   2.818   0.861
  852SOL    HW1 2840   0.913   2.749   0.909
  852SOL    HW2 2841   0.827   2.887   0.927
  853SOL     OW 2842   1.083   2.846   0.087
  853SOL    HW1 2843   1.060   2.899   0.005
  853SOL    HW2 2844   1.164   2.790   0.068
  854SOL     OW 2845   1.861   3.431   0.851
  854SOL    HW1 2846   1.790   3.419   0.781
  854SOL    HW2 2847   1.862   3.352   0.911
  855SOL     OW 2848   0.221   3.176   1.844
  855SOL    HW1 2849   0.156   3.103   1.823
  855SOL    HW2 2850   0.225   3.190   1.942
  856SOL     OW 2851   0.079   3.102   0.653
  856SOL    HW1 2852   0.078   3.055   0.741
  856SOL    HW2 2853   0.161   3.074   0.602
  857SOL     OW 2854   0.672   3.253   1.624
  857SOL    HW1 2855   0.594   3.203   1.662
  857SOL    HW2 2856   0.669   3.348   1.655
  858SOL     OW 2857   1.824   2.054   1.227
  858SOL    HW1 2858   1.820   1.964   1.271
  858SOL    HW2 2859   1.827   2.043   1.128
  859SOL     OW 2860   0.428   2.286   0.520
  859SOL    HW1 2861   0.458   2.214   0.458
  859SOL    HW2 2862   0.389   2.246   0.603
  860SOL     OW 2863   1.705   3.349   1.104
  860SOL    HW1 2864   1.612   3.324   1.077
  860SOL    HW2 2865   1.731   3.299   1.186
  861SOL     OW 2866   0.317   2.409   1.280
  861SOL    HW1 2867   0.355   2.350   1.352
  861SOL    HW2 2868   0.357   2.383   1.192
  862SOL     OW 2869   0.812   3.448   0.687
  862SOL    HW1 2870   0.844   3.458   0.593
  862SOL    HW2 2871   0.733   3.386   0.689
  863SOL     OW 2872   1.424   2.076   1.112
  863SOL    HW1 2873   1.476   2.011   1.167
  863SOL    HW2 2874   1.375   2.139   1.173
  864SOL     OW 2875   1.001   1.896   1.154
  864SOL    HW1 2876   0.938   1.824   1.123
  864SOL    HW2 2877   1.094   1.860   1.154
  865SOL     OW 2878   0.770   3.192   0.301
  865SOL    HW1 2879   0.724   3.105   0.318
  865SOL    HW2 2880   0.861   3.189   0.342
  866SOL     OW 2881   0.618   3.429   1.284
  866SOL    HW1 2882   0.613   3.511   1.341
  866SOL    HW2 2883   0.707   3.426   1.239
  867SOL     OW 2884   1.352   1.914   0.168
  867SOL    HW1 2885   1.387   1.873   0.084
  867SOL    HW2 2886   1.262   1.876   0.188
  868SOL     OW 2887   1.300   2.315   0.691
  868SOL    HW1 2888   1.241   2.395   0.695
  868SOL    HW2 2889   1.315   2.280   0.784
  869SOL     OW 2890   1.593   2.083   0.882
  869SOL    HW1 2891   1.509   2.082   0.936
  869SOL    HW2 2892   1.595   2.166   0.826
  870SOL     OW 2893   0.039   2.939   0.300
  870SOL    HW1 2894   0.138   2.928   0.291
  870SOL    HW2 2895  -0.001   2.853   0.332
  871SOL     OW 2896   0.875   3.508   0.337
  871SOL    HW1 2897   0.798   3.473   0.283
  871SOL    HW2 2898   0.843   3.579   0.399
  872SOL     OW 2899   0.230   2.490   1.975
  872SOL    HW1 2900   0.137   2.488   2.012
  872SOL    HW2 2901   0.231   2.451   1.883
  873SOL     OW 2902   0.225   2.137   2.858
  873SOL    HW1 2903   0.260   2.120   2.950
  873SOL    HW2 2904   0.137   2.092   2.846
  874SOL     OW 2905   0.019   2.230   2.509
  874SOL    HW1 2906  -0.063   2.273   2.548
  874SOL    HW2 2907  -0.009   2.157   2.446
  875SOL     OW 2908   0.569   3.137   3.027
  875SOL    HW1 2909   0.476   3.130   2.990
  875SOL    HW2 2910   0.580   3.226   3.071
  876SOL     OW 2911   1.555   3.373   2.565
  876SOL    HW1 2912   1.498   3.357   2.646
  876SOL    HW2 2913   1.496   3.383   2.485
  877SOL     OW 2914   1.135   2.565   2.579
  877SOL    HW1 2915   1.192   2.643   2.554
  877SOL    HW2 2916   1.075   2.591   2.655
  878SOL     OW 2917   1.755   2.469   2.093
  878SOL    HW1 2918   1.743   2.456   1.994
  878SOL    HW2 2919   1.725   2.388   2.142
  879SOL     OW 2920   0.768   3.006   2.885
  879SOL    HW1 2921   0.690   3.023   2.945
  879SOL    HW2 2922   0.802   3.093   2.849
  880SOL     OW 2923   0.850   2.660   3.685
  880SOL    HW1 2924   0.846   2.736   3.750
  880SOL    HW2 2925   0.872   2.696   3.594
  881SOL     OW 2926   0.685   2.874   2.527
  881SOL    HW1 2927   0.754   2.858   2.597
  881SOL    HW2 2928   0.612   2.931   2.565
  882SOL     OW 2929   0.686   3.023   3.665
  882SOL    HW1 2930   0.746   3.102   3.679
  882SOL    HW2 2931   0.600   3.054   3.624
  883SOL     OW 2932   0.335   3.297   2.923
  883SOL    HW1 2933   0.257   3.266   2.870
  883SOL    HW2 2934   0.393   3.355   2.866
  884SOL     OW 2935   1.460   3.367   3.201
  884SOL    HW1 2936   1.484   3.461   3.227
  884SOL    HW2 2937   1.444   3.313   3.283
  885SOL     OW 2938   0.438   2.254   3.361
  885SOL    HW1 2939   0.520   2.198   3.370
  885SOL    HW2 2940   0.357   2.196   3.365
  886SOL     OW 2941   1.603   2.309   2.599
  886SOL    HW1 2942   1.529   2.355   2.549
  886SOL    HW2 2943   1.654   2.377   2.652
  887SOL     OW 2944   0.231   3.575   2.345
  887SOL    HW1 2945   0.265   3.652   2.399
  887SOL    HW2 2946   0.275   3.575   2.255
  888SOL     OW 2947   1.127   3.203   3.552
  888SOL    HW1 2948   1.174   3.203   3.640
  888SOL    HW2 2949   1.079   3.116   3.541
  889SOL     OW 2950   0.230   3.296   2.400
  889SOL    HW1 2951   0.204   3.392   2.400
  889SOL    HW2 2952   0.159   3.242   2.445
  890SOL     OW 2953   0.240   2.953   2.748
  890SOL    HW1 2954   0.254   2.869   2.800
  890SOL    HW2 2955   0.185   3.017   2.803
  891SOL     OW 2956   0.620   3.648   3.301
  891SOL    HW1 2957   0.528   3.631   3.336
  891SOL    HW2 2958   0.648   3.740   3.327
  892SOL     OW 2959   0.606   2.826   1.985
  892SOL    HW1 2960   0.613   2.910   1.931
  892SOL    HW2 2961   0.652   2.839   2.073
  893SOL     OW 2962   1.594   1.976   3.342
  893SOL    HW1 2963   1.576   2.043   3.270
  893SOL    HW2 2964   1.591   2.022   3.431
  894SOL     OW 2965   0.122   2.505   2.425
  894SOL    HW1 2966   0.077   2.417   2.442
  894SOL    HW2 2967   0.121   2.559   2.509
  895SOL     OW 2968   1.842   3.629   2.221
  895SOL    HW1 2969   1.896   3.600   2.301
  895SOL    HW2 2970   1.872   3.719   2.192
  896SOL     OW 2971   0.027   3.458   1.979
  896SOL    HW1 2972   0.008   3.362   2.000
  896SOL    HW2 2973  -0.006   3.516   2.054
  897SOL     OW 2974   1.689   2.784   2.474
  897SOL    HW1 2975   1.784   2.755   2.482
  897SOL    HW2 2976   1.681   2.849   2.399
  898SOL     OW 2977   1.641   2.970   2.294
  898SOL    HW1 2978   1.727   2.972   2.242
  898SOL    HW2 2979   1.655   3.017   2.382
  899SOL     OW 2980   0.113   2.599   3.459
  899SOL    HW1 2981   0.201   2.586   3.504
  899SOL    HW2 2982   0.100   2.696   3.437
  900SOL     OW 2983   0.613   3.227   2.588
  900SOL    HW1 2984   0.564   3.140   2.597
  900SOL    HW2 2985   0.590   3.270   2.501
  901SOL     OW 2986   1.293   3.090   3.285
  901SOL    HW1 2987   1.330   3.017   3.227
  901SOL    HW2 2988   1.345   3.095   3.370
  902SOL     OW 2989   0.809   1.866   2.364
  902SOL    HW1 2990   0.849   1.957   2.355
  902SOL    HW2 2991   0.709   1.874   2.370
  903SOL     OW 2992   0.197   2.838   3.126
  903SOL    HW1 2993   0.286   2.793   3.112
  903SOL    HW2 2994   0.124   2.773   3.107
  904SOL     OW 2995   1.525   2.861   2.052
  904SOL    HW1 2996   1.462   2.785   2.065
  904SOL    HW2 2997   1.573   2.879   2.138
  905SOL     OW 2998   1.187   3.654   3.478
  905SOL    HW1 2999   1.211   3.714   3.402
  905SOL    HW2 3000   1.194   3.559   3.448
  906SOL     OW 3001   0.317   2.113   3.663
  906SOL    HW1 3002   0.388   2.184   3.669
  906SOL    HW2 3003   0.229   2.152   3.691
  907SOL     OW 3004   1.466   3.279   2.815
  907SOL    HW1 3005   1.407   3.285   2.895
  907SOL    HW2 3006   1.451   3.191   2.769
  908SOL     OW 3007   1.667   3.576   2.434
  908SOL    HW1 3008   1.626   3.553   2.346
  908SOL    HW2 3009   1.649   3.502   2.499
  909SOL     OW 3010   0.598   2.591   2.132
  909SOL    HW1 3011   0.622   2.660   2.064
  909SOL    HW2 3012   0.520   2.624   2.186
  910SOL     OW 3013   1.281   2.207   2.806
  910SOL    HW1 3014   1.195   2.157   2.793
  910SOL    HW2 3015   1.343   2.153   2.862
  911SOL     OW 3016   1.576   3.524   2.169
  911SOL    HW1 3017   1.665   3.570   2.172
  911SOL    HW2 3018   1.555   3.500   2.074
  912SOL     OW 3019   0.807   2.467   3.327
  912SOL    HW1 3020   0.760   2.464   3.416
  912SOL    HW2 3021   0.756   2.412   3.261
  913SOL     OW 3022   1.394   2.331   3.536
  913SOL    HW1 3023   1.374   2.374   3.624
  913SOL    HW2 3024   1.472   2.269   3.545
  914SOL     OW 3025   0.973   2.752   3.434
  914SOL    HW1 3026   1.019   2.668   3.405
  914SOL    HW2 3027   0.917   2.786   3.359
  915SOL     OW 3028   0.991   2.272   3.104
  915SOL    HW1 3029   0.914   2.306   3.158
  915SOL    HW2 3030   0.957   2.221   3.025
  916SOL     OW 3031   1.041   2.563   2.291
  916SOL    HW1 3032   1.067   2.559   2.387
  916SOL    HW2 3033   0.956   2.512   2.277
  917SOL     OW 3034   0.076   2.673   2.651
  917SOL    HW1 3035   0.175   2.661   2.660
  917SOL    HW2 3036   0.052   2.768   2.672
  918SOL     OW 3037   0.130   3.683   3.433
  918SOL    HW1 3038   0.120   3.668   3.532
  918SOL    HW2 3039   0.044   3.719   3.397
  919SOL     OW 3040   0.865   2.210   2.057
  919SOL    HW1 3041   0.924   2.273   2.008
  919SOL    HW2 3042   0.884   2.116   2.028
  920SOL     OW 3043   1.719   2.447   3.693
  920SOL    HW1 3044   1.693   2.536   3.657
  920SOL    HW2 3045   1.717   2.379   3.620
  921SOL     OW 3046   1.362   3.006   2.407
  921SOL    HW1 3047   1.445   2.977   2.359
  921SOL    HW2 3048   1.313   3.073   2.351
  922SOL     OW 3049   0.550   2.058   2.747
  922SOL    HW1 3050   0.545   2.053   2.847
  922SOL    HW2 3051   0.552   2.154   2.718
  923SOL     OW 3052   1.008   3.318   2.339
  923SOL    HW1 3053   0.962   3.390   2.287
  923SOL    HW2 3054   1.004   3.338   2.437
  924SOL     OW 3055   0.351   3.663   2.715
  924SOL    HW1 3056   0.401   3.577   2.721
  924SOL    HW2 3057   0.416   3.740   2.712
  925SOL     OW 3058   1.795   2.928   2.735
  925SOL    HW1 3059   1.733   2.913   2.659
  925SOL    HW2 3060   1.743   2.939   2.820
  926SOL     OW 3061   1.227   3.412   3.368
  926SOL    HW1 3062   1.233   3.335   3.432
  926SOL    HW2 3063   1.175   3.386   3.288
  927SOL     OW 3064   0.321   2.805   2.104
  927SOL    HW1 3065   0.403   2.844   2.062
  927SOL    HW2 3066   0.294   2.723   2.055
  928SOL     OW 3067   1.458   2.597   2.590
  928SOL    HW1 3068   1.453   2.532   2.665
  928SOL    HW2 3069   1.538   2.656   2.603
  929SOL     OW 3070   0.461   3.128   3.589
  929SOL    HW1 3071   0.411   3.129   3.503
  929SOL    HW2 3072   0.398   3.110   3.665
  930SOL     OW 3073   1.111   3.638   2.099
  930SOL    HW1 3074   1.051   3.576   2.149
  930SOL    HW2 3075   1.142   3.594   2.014
  931SOL     OW 3076   0.202   2.147   3.360
  931SOL    HW1 3077   0.122   2.207   3.347
  931SOL    HW2 3078   0.192   2.098   3.446
  932SOL     OW 3079   1.632   3.239   1.943
  932SOL    HW1 3080   1.600   3.333   1.933
  932SOL    HW2 3081   1.556   3.176   1.931
  933SOL     OW 3082   0.464   3.605   2.185
  933SOL    HW1 3083   0.497   3.644   2.271
  933SOL    HW2 3084   0.540   3.598   2.120
  934SOL     OW 3085   1.400   1.969   2.288
  934SOL    HW1 3086   1.376   1.932   2.198
  934SOL    HW2 3087   1.499   1.985   2.292
  935SOL     OW 3088   0.249   3.647   3.103
  935SOL    HW1 3089   0.306   3.582   3.153
  935SOL    HW2 3090   0.233   3.614   3.010
  936SOL     OW 3091   0.940   3.560   2.766
  936SOL    HW1 3092   1.020   3.503   2.787
  936SOL    HW2 3093   0.891   3.520   2.689
  937SOL     OW 3094   0.382   2.562   2.342
  937SOL    HW1 3095   0.427   2.472   2.339
  937SOL    HW2 3096   0.288   2.551   2.375
  938SOL     OW 3097   1.547   2.084   3.591
  938SOL    HW1 3098   1.542   2.121   3.683
  938SOL    HW2 3099   1.475   2.015   3.579
  939SOL     OW 3100   0.614   1.984   1.979
  939SOL    HW1 3101   0.712   1.962   1.986
  939SOL    HW2 3102   0.583   1.967   1.886
  940SOL     OW 3103   0.781   2.126   3.611
  940SOL    HW1 3104   0.848   2.065   3.654
  940SOL    HW2 3105   0.708   2.145   3.676
  941SOL     OW 3106   0.888   3.376   3.057
  941SOL    HW1 3107   0.865   3.351   2.963
  941SOL    HW2 3108   0.949   3.307   3.096
  942SOL     OW 3109   1.351   2.452   3.295
  942SOL    HW1 3110   1.379   2.409   3.380
  942SOL    HW2 3111   1.376   2.548   3.296
  943SOL     OW 3112   0.803   3.264   2.786
  943SOL    HW1 3113   0.893   3.278   2.744
  943SOL    HW2 3114   0.732   3.266   2.715
  944SOL     OW 3115   0.922   2.365   2.761
  944SOL    HW1 3116   0.897   2.356   2.665
  944SOL    HW2 3117   0.970   2.283   2.792
  945SOL     OW 3118   0.539   1.926   2.374
  945SOL    HW1 3119   0.458   1.927   2.432
  945SOL    HW2 3120   0.542   2.009   2.319
  946SOL     OW 3121   1.434   3.050   1.903
  946SOL    HW1 3122   1.466   2.974   1.960
  946SOL    HW2 3123   1.342   3.077   1.933
  947SOL     OW 3124   0.297   1.897   2.033
  947SOL    HW1 3125   0.346   1.981   2.012
  947SOL    HW2 3126   0.359   1.832   2.078
  948SOL     OW 3127   0.935   2.098   2.342
  948SOL    HW1 3128   0.887   2.139   2.264
  948SOL    HW2 3129   1.034   2.096   2.323
  949SOL     OW 3130   1.076   2.545   3.326
  949SOL    HW1 3131   0.996   2.484   3.329
  949SOL    HW2 3132   1.157   2.492   3.302
  950SOL     OW 3133   1.227   3.432   2.655
  950SOL    HW1 3134   1.248   3.506   2.590
  950SOL    HW2 3135   1.295   3.432   2.728
  951SOL     OW 3136   0.459   3.014   2.603
  951SOL    HW1 3137   0.388   2.987   2.668
  951SOL    HW2 3138   0.433   2.986   2.510
  952SOL     OW 3139   1.271   3.659   2.453
  952SOL    HW1 3140   1.315   3.723   2.389
  952SOL    HW2 3141   1.221   3.711   2.523
  953SOL     OW 3142   1.032   2.411   1.878
  953SOL    HW1 3143   0.991   2.493   1.839
  953SOL    HW2 3144   1.096   2.437   1.951
  954SOL     OW 3145   0.078   2.418   3.248
  954SOL    HW1 3146   0.170   2.417   3.207
  954SOL    HW2 3147   0.072   2.492   3.315
  955SOL     OW 3148   0.561   2.084   3.009
  955SOL    HW1 3149   0.599   2.000   3.046
  955SOL    HW2 3150   0.473   2.103   3.053
  956SOL     OW 3151   0.866   2.316   2.504
  956SOL    HW1 3152   0.834   2.388   2.442
  956SOL    HW2 3153   0.890   2.235   2.451
  957SOL     OW 3154   1.017   1.901   2.615
  957SOL    HW1 3155   0.945   1.906   2.546
  957SOL    HW2 3156   0.993   1.832   2.684
  958SOL     OW 3157   1.429   3.035   2.729
  958SOL    HW1 3158   1.374   2.951   2.722
  958SOL    HW2 3159   1.455   3.064   2.637
  959SOL     OW 3160   1.466   2.452   2.854
  959SOL    HW1 3161   1.436   2.357   2.861
  959SOL    HW2 3162   1.539   2.468   2.920
  960SOL     OW 3163   1.857   2.695   2.239
  960SOL    HW1 3164   1.899   2.631   2.303
  960SOL    HW2 3165   1.819   2.644   2.161
  961SOL     OW 3166   0.488   3.247   2.036
  961SOL    HW1 3167   0.401   3.232   2.083
  961SOL    HW2 3168   0.471   3.273   1.941
  962SOL     OW 3169   1.664   3.142   2.519
  962SOL    HW1 3170   1.763   3.150   2.533
  962SOL    HW2 3171   1.619   3.226   2.550
  963SOL     OW 3172   1.390   2.437   1.940
  963SOL    HW1 3173   1.336   2.416   2.021
  963SOL    HW2 3174   1.481   2.396   1.949
  964SOL     OW 3175   0.527   2.118   2.190
  964SOL    HW1 3176   0.554   2.059   2.115
  964SOL    HW2 3177   0.527   2.213   2.159
  965SOL     OW 3178   1.754   3.085   3.450
  965SOL    HW1 3179   1.845   3.046   3.437
  965SOL    HW2 3180   1.762   3.181   3.474
  966SOL     OW 3181   1.064   3.209   3.202
  966SOL    HW1 3182   0.984   3.186   3.257
  966SOL    HW2 3183   1.147   3.183   3.251
  967SOL     OW 3184   1.592   3.491   3.487
  967SOL    HW1 3185   1.619   3.525   3.397
  967SOL    HW2 3186   1.671   3.453   3.533
  968SOL     OW 3187   1.111   3.057   2.962
  968SOL    HW1 3188   1.071   3.101   3.043
  968SOL    HW2 3189   1.070   3.094   2.879
  969SOL     OW 3190   1.638   2.961   2.941
  969SOL    HW1 3191   1.643   3.042   3.000
  969SOL    HW2 3192   1.552   2.963   2.890
  970SOL     OW 3193   0.915   1.951   3.264
  970SOL    HW1 3194   0.940   1.931   3.169
  970SOL    HW2 3195   0.987   2.007   3.306
  971SOL     OW 3196   0.980   2.978   3.581
  971SOL    HW1 3197   0.881   2.984   3.591
  971SOL    HW2 3198   1.003   2.898   3.525
  972SOL     OW 3199   0.705   2.912   2.230
  972SOL    HW1 3200   0.691   2.919   2.329
  972SOL    HW2 3201   0.789   2.861   2.212
  973SOL     OW 3202   0.410   2.675   3.113
  973SOL    HW1 3203   0.496   2.687   3.163
  973SOL    HW2 3204   0.368   2.588   3.140
  974SOL     OW 3205   1.274   2.248   3.124
  974SOL    HW1 3206   1.295   2.322   3.188
  974SOL    HW2 3207   1.185   2.265   3.081
  975SOL     OW 3208   0.064   3.426   3.193
  975SOL    HW1 3209   0.018   3.508   3.159
  975SOL    HW2 3210   0.162   3.445   3.202
  976SOL     OW 3211   0.367   2.962   2.363
  976SOL    HW1 3212   0.360   3.045   2.307
  976SOL    HW2 3213   0.371   2.882   2.303
  977SOL     OW 3214   0.566   2.399   2.727
  977SOL    HW1 3215   0.578   2.465   2.653
  977SOL    HW2 3216   0.612   2.433   2.810
  978SOL     OW 3217   1.252   3.210   2.250
  978SOL    HW1 3218   1.302   3.287   2.290
  978SOL    HW2 3219   1.157   3.212   2.282
  979SOL     OW 3220   1.272   3.307   3.004
  979SOL    HW1 3221   1.319   3.320   3.091
  979SOL    HW2 3222   1.206   3.233   3.013
  980SOL     OW 3223   1.582   2.501   2.334
  980SOL    HW1 3224   1.551   2.562   2.407
  980SOL    HW2 3225   1.632   2.553   2.265
  981SOL     OW 3226   0.354   3.372   3.191
  981SOL    HW1 3227   0.333   3.328   3.104
  981SOL    HW2 3228   0.451   3.398   3.194
  982SOL     OW 3229   0.402   2.613   3.460
  982SOL    HW1 3230   0.470   2.668   3.413
  982SOL    HW2 3231   0.442   2.525   3.487
  983SOL     OW 3232   1.587   2.641   3.532
  983SOL    HW1 3233   1.495   2.679   3.527
  983SOL    HW2 3234   1.647   2.688   3.467
  984SOL     OW 3235   1.013   1.967   3.632
  984SOL    HW1 3236   1.019   2.052   3.580
  984SOL    HW2 3237   1.045   1.891   3.575
  985SOL     OW 3238   0.504   1.912   3.602
  985SOL    HW1 3239   0.462   1.855   3.532
  985SOL    HW2 3240   0.438   1.981   3.634
  986SOL     OW 3241   0.573   2.732   2.891
  986SOL    HW1 3242   0.617   2.821   2.882
  986SOL    HW2 3243   0.510   2.732   2.968
  987SOL     OW 3244   1.360   2.724   2.907
  987SOL    HW1 3245   1.285   2.724   2.841
  987SOL    HW2 3246   1.397   2.632   2.916
  988SOL     OW 3247   1.209   2.387   2.137
  988SOL    HW1 3248   1.222   2.303   2.191
  988SOL    HW2 3249   1.180   2.461   2.197
  989SOL     OW 3250   0.307   2.075   3.093
  989SOL    HW1 3251   0.284   2.112   3.183
  989SOL    HW2 3252   0.277   1.980   3.087
  990SOL     OW 3253   0.037   3.172   3.144
  990SOL    HW1 3254   0.090   3.123   3.212
  990SOL    HW2 3255   0.059   3.270   3.149
  991SOL     OW 3256   0.732   2.496   2.926
  991SOL    HW1 3257   0.791   2.470   2.850
  991SOL    HW2 3258   0.704   2.592   2.915
  992SOL     OW 3259   1.728   2.797   3.716
  992SOL    HW1 3260   1.682   2.790   3.627
  992SOL    HW2 3261   1.666   2.841   3.782
  993SOL     OW 3262   0.307   1.925   2.480
  993SOL    HW1 3263   0.296   2.019   2.513
  993SOL    HW2 3264   0.302   1.862   2.557
  994SOL     OW 3265   1.622   2.229   2.236
  994SOL    HW1 3266   1.624   2.153   2.300
  994SOL    HW2 3267   1.574   2.306   2.276
  995SOL     OW 3268   1.023   2.628   2.828
  995SOL    HW1 3269   1.038   2.649   2.924
  995SOL    HW2 3270   0.993   2.533   2.819
  996SOL     OW 3271   0.980   3.435   3.562
  996SOL    HW1 3272   0.960   3.479   3.474
  996SOL    HW2 3273   1.019   3.344   3.546
  997SOL     OW 3274   1.859   3.380   3.467
  997SOL    HW1 3275   1.873   3.407   3.372
  997SOL    HW2 3276   1.942   3.402   3.520
  998SOL     OW 3277   0.350   2.760   3.666
  998SOL    HW1 3278   0.426   2.804   3.714
  998SOL    HW2 3279   0.385   2.713   3.584
  999SOL     OW 3280   1.540   2.136   1.987
  999SOL    HW1 3281   1.479   2.061   2.010
  999SOL    HW2 3282   1.562   2.188   2.070
 1000SOL     OW 3283   1.303   2.700   1.904
 1000SOL    HW1 3284   1.337   2.607   1.919
 1000SOL    HW2 3285   1.321   2.727   1.809
 1001SOL     OW 3286   1.068   3.195   2.711
 1001SOL    HW1 3287   1.075   3.111   2.656
 1001SOL    HW2 3288   1.130   3.264   2.675
 1002SOL     OW 3289   0.319   2.672   2.811
 1002SOL    HW1 3290   0.412   2.708   2.816
 1002SOL    HW2 3291   0.313   2.587   2.863
 1003SOL     OW 3292   0.339   2.371   2.868
 1003SOL    HW1 3293   0.287   2.288   2.851
 1003SOL    HW2 3294   0.416   2.376   2.804
 1004SOL     OW 3295   1.138   2.242   3.540
 1004SOL    HW1 3296   1.093   2.305   3.604
 1004SOL    HW2 3297   1.231   2.273   3.523
 1005SOL     OW 3298   1.160   2.069   3.339
 1005SOL    HW1 3299   1.160   2.133   3.416
 1005SOL    HW2 3300   1.188   2.117   3.256
 1006SOL     OW 3301   0.008   3.188   2.062
 1006SOL    HW1 3302  -0.085   3.209   2.031
 1006SOL    HW2 3303   0.018   3.089   2.075
 1007SOL     OW 3304   0.088   3.663   2.789
 1007SOL    HW1 3305   0.046   3.577   2.762
 1007SOL    HW2 3306   0.182   3.666   2.755
 1008SOL     OW 3307   0.504   3.430   2.772
 1008SOL    HW1 3308   0.570   3.504   2.781
 1008SOL    HW2 3309   0.548   3.351   2.730
 1009SOL     OW 3310   1.002   2.658   3.100
 1009SOL    HW1 3311   1.043   2.626   3.186
 1009SOL    HW2 3312   0.906   2.631   3.097
 1010SOL     OW 3313   0.040   2.406   2.976
 1010SOL    HW1 3314   0.125   2.373   2.935
 1010SOL    HW2 3315   0.053   2.421   3.074
 1011SOL     OW 3316   0.189   2.382   3.584
 1011SOL    HW1 3317   0.248   2.342   3.514
 1011SOL    HW2 3318   0.131   2.453   3.543
 1012SOL     OW 3319   1.369   2.812   3.522
 1012SOL    HW1 3320   1.408   2.901   3.542
 1012SOL    HW2 3321   1.379   2.792   3.425
 1013SOL     OW 3322   0.815   2.434   2.187
 1013SOL    HW1 3323   0.822   2.345   2.141
 1013SOL    HW2 3324   0.721   2.468   2.179
 1014SOL     OW 3325   1.657   2.466   3.068
 1014SOL    HW1 3326   1.619   2.397   3.130
 1014SOL    HW2 3327   1.739   2.430   3.024
 1015SOL     OW 3328   0.252   3.426   3.606
 1015SOL    HW1 3329   0.222   3.483   3.682
 1015SOL    HW2 3330   0.245   3.329   3.632
 1016SOL     OW 3331   0.671   2.326   3.131
 1016SOL    HW1 3332   0.637   2.237   3.101
 1016SOL    HW2 3333   0.697   2.380   3.051
 1017SOL     OW 3334   0.930   3.540   3.327
 1017SOL    HW1 3335   0.906   3.522   3.232
 1017SOL    HW2 3336   0.960   3.634   3.337
 1018SOL     OW 3337   0.473   2.362   2.053
 1018SOL    HW1 3338   0.534   2.442   2.057
 1018SOL    HW2 3339   0.378   2.393   2.060
 1019SOL     OW 3340   0.159   2.999   3.328
 1019SOL    HW1 3341   0.181   2.938   3.404
 1019SOL    HW2 3342   0.169   2.950   3.242
 1020SOL     OW 3343   1.347   2.921   3.096
 1020SOL    HW1 3344   1.371   2.858   3.022
 1020SOL    HW2 3345   1.257   2.961   3.078
 1021SOL     OW 3346   1.302   2.717   2.171
 1021SOL    HW1 3347   1.216   2.686   2.213
 1021SOL    HW2 3348   1.298   2.703   2.072
 1022SOL     OW 3349   1.759   3.609   3.016
 1022SOL    HW1 3350   1.820   3.639   2.943
 1022SOL    HW2 3351   1.721   3.520   2.994
 1023SOL     OW 3352   1.252   3.593   2.990
 1023SOL    HW1 3353   1.336   3.598   2.936
 1023SOL    HW2 3354   1.229   3.497   3.008
 1024SOL     OW 3355   0.083   3.120   2.884
 1024SOL    HW1 3356   0.078   3.119   2.984
 1024SOL    HW2 3357   0.000   3.079   2.846
 1025SOL     OW 3358   0.688   3.524   3.578
 1025SOL    HW1 3359   0.632   3.605   3.587
 1025SOL    HW2 3360   0.740   3.528   3.492
 1026SOL     OW 3361   1.726   1.997   2.385
 1026SOL    HW1 3362   1.799   1.980   2.318
 1026SOL    HW2 3363   1.695   1.910   2.423
 1027SOL     OW 3364   1.388   3.435   2.339
 1027SOL    HW1 3365   1.455   3.447   2.265
 1027SOL    HW2 3366   1.348   3.524   2.362
 1028SOL     OW 3367   0.130   3.656   3.713
 1028SOL    HW1 3368   0.089   3.582   3.766
 1028SOL    HW2 3369   0.194   3.707   3.771
 1029SOL     OW 3370   1.280   2.789   2.534
 1029SOL    HW1 3371   1.340   2.708   2.536
 1029SOL    HW2 3372   1.320   2.858   2.474
 1030SOL     OW 3373   0.830   3.135   3.284
 1030SOL    HW1 3374   0.825   3.168   3.379
 1030SOL    HW2 3375   0.744   3.154   3.238
 1031SOL     OW 3376   0.672   3.478   2.016
 1031SOL    HW1 3377   0.681   3.488   1.917
 1031SOL    HW2 3378   0.632   3.389   2.037
 1032SOL     OW 3379   1.650   3.582   3.256
 1032SOL    HW1 3380   1.703   3.592   3.172
 1032SOL    HW2 3381   1.623   3.672   3.290
 1033SOL     OW 3382   1.841   2.037   2.825
 1033SOL    HW1 3383   1.880   1.952   2.789
 1033SOL    HW2 3384   1.743   2.039   2.806
 1034SOL     OW 3385   0.263   2.188   2.582
 1034SOL    HW1 3386   0.184   2.239   2.548
 1034SOL    HW2 3387   0.254   2.173   2.680
 1035SOL     OW 3388   1.194   3.474   1.893
 1035SOL    HW1 3389   1.200   3.381   1.930
 1035SOL    HW2 3390   1.135   3.474   1.813
 1036SOL     OW 3391   0.822   2.864   3.234
 1036SOL    HW1 3392   0.862   2.863   3.142
 1036SOL    HW2 3393   0.832   2.956   3.274
 1037SOL     OW 3394   0.916   2.772   2.153
 1037SOL    HW1 3395   0.979   2.810   2.085
 1037SOL    HW2 3396   0.956   2.689   2.192
 1038SOL     OW 3397   1.504   3.469   1.906
 1038SOL    HW1 3398   1.412   3.506   1.913
 1038SOL    HW2 3399   1.542   3.489   1.816
 1039SOL     OW 3400   0.372   3.150   3.352
 1039SOL    HW1 3401   0.359   3.243   3.318
 1039SOL    HW2 3402   0.288   3.098   3.339
 1040SOL     OW 3403   1.614   3.154   3.151
 1040SOL    HW1 3404   1.674   3.157   3.231
 1040SOL    HW2 3405   1.539   3.218   3.164
 1041SOL     OW 3406   1.039   2.960   2.558
 1041SOL    HW1 3407   0.969   2.913   2.612
 1041SOL    HW2 3408   1.098   2.892   2.515
 1042SOL     OW 3409   1.014   2.098   2.833
 1042SOL    HW1 3410   1.006   2.062   2.740
 1042SOL    HW2 3411   1.012   2.022   2.898
 1043SOL     OW 3412   0.590   3.349   2.353
 1043SOL    HW1 3413   0.632   3.291   2.283
 1043SOL    HW2 3414   0.546   3.428   2.309
 1044SOL     OW 3415   1.709   2.247   3.243
 1044SOL    HW1 3416   1.782   2.316   3.247
 1044SOL    HW2 3417   1.737   2.172   3.184
 1045SOL     OW 3418   0.255   3.210   2.152
 1045SOL    HW1 3419   0.159   3.211   2.125
 1045SOL    HW2 3420   0.267   3.263   2.236
 1046SOL     OW 3421   0.105   2.875   3.588
 1046SOL    HW1 3422   0.028   2.842   3.642
 1046SOL    HW2 3423   0.190   2.845   3.630
 1047SOL     OW 3424   0.672   2.065   3.351
 1047SOL    HW1 3425   0.762   2.049   3.311
 1047SOL    HW2 3426   0.680   2.070   3.450
 1048SOL     OW 3427   0.075   2.207   1.895
 1048SOL    HW1 3428  -0.017   2.179   1.866
 1048SOL    HW2 3429   0.106   2.284   1.839
 1049SOL     OW 3430   1.440   2.718   3.260
 1049SOL    HW1 3431   1.383   2.770   3.197
 1049SOL    HW2 3432   1.536   2.730   3.236
 1050SOL     OW 3433   0.072   2.028   2.180
 1050SOL    HW1 3434   0.055   2.111   2.126
 1050SOL    HW2 3435   0.162   1.991   2.158
 1051SOL     OW 3436   1.183   3.197   1.981
 1051SOL    HW1 3437   1.084   3.186   1.983
 1051SOL    HW2 3438   1.217   3.212   2.074
 1052SOL     OW 3439   0.613   2.704   3.293
 1052SOL    HW1 3440   0.669   2.785   3.276
 1052SOL    HW2 3441   0.672   2.624   3.296
 1053SOL     OW 3442   1.493   3.629   2.821
 1053SOL    HW1 3443   1.526   3.693   2.752
 1053SOL    HW2 3444   1.559   3.623   2.896
 1054SOL     OW 3445   0.716   2.427   3.570
 1054SOL    HW1 3446   0.735   2.492   3.644
 1054SOL    HW2 3447   0.776   2.347   3.579
 1055SOL     OW 3448   1.450   3.082   3.495
 1055SOL    HW1 3449   1.441   3.072   3.594
 1055SOL    HW2 3450   1.546   3.075   3.469
 1056SOL     OW 3451   0.390   3.603   3.422
 1056SOL    HW1 3452   0.299   3.644   3.420
 1056SOL    HW2 3453   0.383   3.509   3.454
 1057SOL     OW 3454   1.674   2.745   3.116
 1057SOL    HW1 3455   1.647   2.656   3.079
 1057SOL    HW2 3456   1.675   2.813   3.043
 1058SOL     OW 3457   1.225   2.187   2.311
 1058SOL    HW1 3458   1.290   2.113   2.300
 1058SOL    HW2 3459   1.245   2.237   2.395
 1059SOL     OW 3460   0.594   2.607   2.514
 1059SOL    HW1 3461   0.644   2.692   2.495
 1059SOL    HW2 3462   0.506   2.609   2.466
 1060SOL     OW 3463   1.777   2.204   3.504
 1060SOL    HW1 3464   1.760   2.235   3.410
 1060SOL    HW2 3465   1.693   2.167   3.542
 1061SOL     OW 3466   1.730   2.796   3.379
 1061SOL    HW1 3467   1.768   2.887   3.394
 1061SOL    HW2 3468   1.722   2.779   3.280
 1062SOL     OW 3469   0.859   3.236   1.878
 1062SOL    HW1 3470   0.813   3.251   1.966
 1062SOL    HW2 3471   0.903   3.321   1.848
 1063SOL     OW 3472   0.661   3.652   2.815
 1063SOL    HW1 3473   0.615   3.740   2.802
 1063SOL    HW2 3474   0.760   3.664   2.808
 1064SOL     OW 3475   0.859   2.818   2.723
 1064SOL    HW1 3476   0.913   2.749   2.771
 1064SOL    HW2 3477   0.827   2.887   2.789
 1065SOL     OW 3478   1.083   2.846   1.949
 1065SOL    HW1 3479   1.060   2.899   1.867
 1065SOL    HW2 3480   1.164   2.790   1.930
 1066SOL     OW 3481   1.861   3.431   2.713
 1066SOL    HW1 3482   1.790   3.419   2.643
 1066SOL    HW2 3483   1.862   3.352   2.773
 1067SOL     OW 3484   0.221   3.176   3.706
 1067SOL    HW1 3485   0.156   3.103   3.685
 1067SOL    HW2 3486   0.225   3.190   3.804
 1068SOL     OW 3487   0.079   3.102   2.515
 1068SOL    HW1 3488   0.078   3.055   2.603
 1068SOL    HW2 3489   0.161   3.074   2.464
 1069SOL     OW 3490   0.672   3.253   3.486
 1069SOL    HW1 3491   0.594   3.203   3.524
 1069SOL    HW2 3492   0.669   3.348   3.517
 1070SOL     OW 3493   1.824   2.054   3.089
 1070SOL    HW1 3494   1.820   1.964   3.133
 1070SOL    HW2 3495   1.827   2.043   2.990
 1071SOL     OW 3496   0.428   2.286   2.382
 1071SOL    HW1 3497   0.458   2.214   2.320
 1071SOL    HW2 3498   0.389   2.246   2.465
 1072SOL     OW 3499   1.705   3.349   2.966
 1072SOL    HW1 3500   1.612   3.324   2.939
 1072SOL    HW2 3501   1.731   3.299   3.048
 1073SOL     OW 3502   0.317   2.409   3.142
 1073SOL    HW1 3503   0.355   2.350   3.214
 1073SOL    HW2 3504   0.357   2.383   3.054
 1074SOL     OW 3505   0.812   3.448   2.549
 1074SOL    HW1 3506   0.844   3.458   2.455
 1074SOL    HW2 3507   0.733   3.386   2.551
 1075SOL     OW 3508   1.424   2.076   2.974
 1075SOL    HW1 3509   1.476   2.011   3.029
 1075SOL    HW2 3510   1.375   2.139   3.035
 1076SOL     OW 3511   1.001   1.896   3.016
 1076SOL    HW1 3512   0.938   1.824   2.985
 1076SOL    HW2 3513   1.094   1.860   3.016
 1077SOL     OW 3514   0.770   3.192   2.163
 1077SOL    HW1 3515   0.724   3.105   2.180
 1077SOL    HW2 3516   0.861   3.189   2.204
 1078SOL     OW 3517   0.618   3.429   3.146
 1078SOL    HW1 3518   0.613   3.511   3.203
 1078SOL    HW2 3519   0.707   3.426   3.101
 1079SOL     OW 3520   1.352   1.914   2.030
 1079SOL    HW1 3521   1.387   1.873   1.946
 1079SOL    HW2 3522   1.262   1.876   2.050
 1080SOL     OW 3523   1.300   2.315   2.553
 1080SOL    HW1 3524   1.241   2.395   2.557
 1080SOL    HW2 3525   1.315   2.280   2.646
 1081SOL     OW 3526   1.593   2.083   2.744
 1081SOL    HW1 3527   1.509   2.082   2.798
 1081SOL    HW2 3528   1.595   2.166   2.688
 1082SOL     OW 3529   0.039   2.939   2.162
 1082SOL    HW1 3530   0.138   2.928   2.153
 1082SOL    HW2 3531  -0.001   2.853   2.194
 1083SOL     OW 3532   0.875   3.508   2.199
 1083SOL    HW1 3533   0.798   3.473   2.145
 1083SOL    HW2 3534   0.843   3.579   2.261
 1084SOL     OW 3535   0.230   2.490   3.837
 1084SOL    HW1 3536   0.137   2.488   3.874
 1084SOL    HW2 3537   0.231   2.451   3.745
 1085SOL     OW 3538   0.225   2.137   4.720
 1085SOL    HW1 3539   0.260   2.120   4.812
 1085SOL    HW2 3540   0.137   2.092   4.708
 1086SOL     OW 3541   0.019   2.230   4.371
 1086SOL    HW1 3542  -0.063   2.273   4.410
 1086SOL    HW2 3543  -0.009   2.157   4.308
 1087SOL     OW 3544   0.569   3.137   4.889
 1087SOL    HW1 3545   0.476   3.130   4.852
 1087SOL    HW2 3546   0.580   3.226   4.933
 1088SOL     OW 3547   1.555   3.373   4.427
 1088SOL    HW1 3548   1.498   3.357   4.508
 1088SOL    HW2 3549   1.496   3.383   4.347
 1089SOL     OW 3550   1.135   2.565   4.441
 1089SOL    HW1 3551   1.192   2.643   4.416
 1089SOL    HW2 3552   1.075   2.591   4.517
 1090SOL     OW 3553   1.755   2.469   3.955
 1090SOL    HW1 3554   1.743   2.456   3.856
 1090SOL    HW2 3555   1.725   2.388   4.004
 1091SOL     OW 3556   0.768   3.006   4.747
 1091SOL    HW1 3557   0.690   3.023   4.807
 1091SOL    HW2 3558   0.802   3.093   4.711
 1092SOL     OW 3559   0.850   2.660   5.547
 1092SOL    HW1 3560   0.846   2.736   5.612
 1092SOL    HW2 3561   0.872   2.696   5.456
 1093SOL     OW 3562   0.685   2.874   4.389
 1093SOL    HW1 3563   0.754   2.858   4.459
 1093SOL    HW2 3564   0.612   2.931   4.427
 1094SOL     OW 3565   0.686   3.023   5.527
 1094SOL    HW1 3566   0.746   3.102   5.541
 1094SOL    HW2 3567   0.600   3.054   5.486
 1095SOL     OW 3568   0.335   3.297   4.785
 1095SOL    HW1 3569   0.257   3.266   4.732
 1095SOL    HW2 3570   0.393   3.355   4.728
 1096SOL     OW 3571   1.460   3.367   5.063
 1096SOL    HW1 3572   1.484   3.461   5.089
 1096SOL    HW2 3573   1.444   3.313   5.145
 1097SOL     OW 3574   0.438   2.254   5.223
 1097SOL    HW1 3575   0.520   2.198   5.232
 1097SOL    HW2 3576   0.357   2.196   5.227
 1098SOL     OW 3577   1.603   2.309   4.461
 1098SOL    HW1 3578   1.529   2.355   4.411
 1098SOL    HW2 3579   1.654   2.377   4.514
 1099SOL     OW 3580   0.231   3.575   4.207
 1099SOL    HW1 3581   0.265   3.652   4.261
 1099SOL    HW2 3582   0.275   3.575   4.117
 1100SOL     OW 3583   1.127   3.203   5.414
 1100SOL    HW1 3584   1.174   3.203   5.502
 1100SOL    HW2 3585   1.079   3.116   5.403
 1101SOL     OW 3586   0.230   3.296   4.262
 1101SOL    HW1 3587   0.204   3.392   4.262
 1101SOL    HW2 3588   0.159   3.242   4.307
 1102SOL     OW 3589   0.240   2.953   4.610
 1102SOL    HW1 3590   0.254   2.869   4.662
 1102SOL    HW2 3591   0.185   3.017   4.665
 1103SOL     OW 3592   0.620   3.648   5.163
 1103SOL    HW1 3593   0.528   3.631   5.198
 1103SOL    HW2 3594   0.648   3.740   5.189
 1104SOL     OW 3595   0.606   2.826   3.847
 1104SOL    HW1 3596   0.613   2.910   3.793
 1104SOL    HW2 3597   0.652   2.839   3.935
 1105SOL     OW 3598   1.594   1.976   5.204
 1105SOL    HW1 3599   1.576   2.043   5.132
 1105SOL    HW2 3600   1.591   2.022   5.293
 1106SOL     OW 3601   0.122   2.505   4.287
 1106SOL    HW1 3602   0.077   2.417   4.304
 1106SOL    HW2 3603   0.121   2.559   4.371
 1107SOL     OW 3604   1.842   3.629   4.083
 1107SOL    HW1 3605   1.896   3.600   4.163
 1107SOL    HW2 3606   1.872   3.719   4.054
 1108SOL     OW 3607   0.027   3.458   3.841
 1108SOL    HW1 3608   0.008   3.362   3.862
 1108SOL    HW2 3609  -0.006   3.516   3.916
 1109SOL     OW 3610   1.689   2.784   4.336
 1109SOL    HW1 3611   1.784   2.755   4.344
 1109SOL    HW2 3612   1.681   2.849   4.261
 1110SOL     OW 3613   1.641   2.970   4.156
 1110SOL    HW1 3614   1.727   2.972   4.104
 1110SOL    HW2 3615   1.655   3.017   4.244
 1111SOL     OW 3616   0.113   2.599   5.321
 1111SOL    HW1 3617   0.201   2.586   5.366
 1111SOL    HW2 3618   0.100   2.696   5.299
 1112SOL     OW 3619   0.613   3.227   4.450
 1112SOL    HW1 3620   0.564   3.140   4.459
 1112SOL    HW2 3621   0.590   3.270   4.363
 1113SOL     OW 3622   1.293   3.090   5.147
 1113SOL    HW1 3623   1.330   3.017   5.089
 1113SOL    HW2 3624   1.345   3.095   5.232
 1114SOL     OW 3625   0.809   1.866   4.226
 1114SOL    HW1 3626   0.849   1.957   4.217
 1114SOL    HW2 3627   0.709   1.874   4.232
 1115SOL     OW 3628   0.197   2.838   4.988
 1115SOL    HW1 3629   0.286   2.793   4.974
 1115SOL    HW2 3630   0.124   2.773   4.969
 1116SOL     OW 3631   1.525   2.861   3.914
 1116SOL    HW1 3632   1.462   2.785   3.927
 1116SOL    HW2 3633   1.573   2.879   4.000
 1117SOL     OW 3634   1.187   3.654   5.340
 1117SOL    HW1 3635   1.211   3.714   5.264
 1117SOL    HW2 3636   1.194   3.559   5.310
 1118SOL     OW 3637   0.317   2.113   5.525
 1118SOL    HW1 3638   0.388   2.184   5.531
 1118SOL    HW2 3639   0.229   2.152   5.553
 1119SOL     OW 3640   1.466   3.279   4.677
 1119SOL    HW1 3641   1.407   3.285   4.757
 1119SOL    HW2 3642   1.451   3.191   4.631
 1120SOL     OW 3643   1.667   3.576   4.296
 1120SOL    HW1 3644   1.626   3.553   4.208
 1120SOL    HW2 3645   1.649   3.502   4.361
 1121SOL     OW 3646   0.598   2.591   3.994
 1121SOL    HW1 3647   0.622   2.660   3.926
 1121SOL    HW2 3648   0.520   2.624   4.048
 1122SOL     OW 3649   1.281   2.207   4.668
 1122SOL    HW1 3650   1.195   2.157   4.655
 1122SOL    HW2 3651   1.343   2.153   4.724
 1123SOL     OW 3652   1.576   3.524   4.031
 1123SOL    HW1 3653   1.665   3.570   4.034
 1123SOL    HW2 3654   1.555   3.500   3.936
 1124SOL     OW 3655   0.807   2.467   5.189
 1124SOL    HW1 3656   0.760   2.464   5.278
 1124SOL    HW2 3657   0.756   2.412   5.123
 1125SOL     OW 3658   1.394   2.331   5.398
 1125SOL    HW1 3659   1.374   2.374   5.486
 1125SOL    HW2 3660   1.472   2.269   5.407
 1126SOL     OW 3661   0.973   2.752   5.296
 1126SOL    HW1 3662   1.019   2.668   5.267
 1126SOL    HW2 3663   0.917   2.786   5.221
 1127SOL     OW 3664   0.991   2.272   4.966
 1127SOL    HW1 3665   0.914   2.306   5.020
 1127SOL    HW2 3666   0.957   2.221   4.887
 1128SOL     OW 3667   1.041   2.563   4.153
 1128SOL    HW1 3668   1.067   2.559   4.249
 1128SOL    HW2 3669   0.956   2.512   4.139
 1129SOL     OW 3670   0.076   2.673   4.513
 1129SOL    HW1 3671   0.175   2.661   4.522
 1129SOL    HW2 3672   0.052   2.768   4.534
 1130SOL     OW 3673   0.130   3.683   5.295
 1130SOL    HW1 3674   0.120   3.668   5.394
 1130SOL    HW2 3675   0.044   3.719   5.259
 1131SOL     OW 3676   0.865   2.210   3.919
 1131SOL    HW1 3677   0.924   2.273   3.870
 1131SOL    HW2 3678   0.884   2.116   3.890
 1132SOL     OW 3679   1.719   2.447   5.555
 1132SOL    HW1 3680   1.693   2.536   5.519
 1132SOL    HW2 3681   1.717   2.379   5.482
 1133SOL     OW 3682   1.362   3.006   4.269
 1133SOL    HW1 3683   1.445   2.977   4.221
 1133SOL    HW2 3684   1.313   3.073   4.213
 1134SOL     OW 3685   0.550   2.058   4.609
 1134SOL    HW1 3686   0.545   2.053   4.709
 1134SOL    HW2 3687   0.552   2.154   4.580
 1135SOL     OW 3688   1.008   3.318   4.201
 1135SOL    HW1 3689   0.962   3.390   4.149
 1135SOL    HW2 3690   1.004   3.338   4.299
 1136SOL     OW 3691   0.351   3.663   4.577
 1136SOL    HW1 3692   0.401   3.577   4.583
 1136SOL    HW2 3693   0.416   3.740   4.574
 1137SOL     OW 3694   1.795   2.928   4.597
 1137SOL    HW1 3695   1.733   2.913   4.521
 1137SOL    HW2 3696   1.743   2.939   4.682
 1138SOL     OW 3697   1.227   3.412   5.230
 1138SOL    HW1 3698   1.233   3.335   5.294
 1138SOL    HW2 3699   1.175   3.386   5.150
 1139SOL     OW 3700   0.321   2.805   3.966
 1139SOL    HW1 3701   0.403   2.844   3.924
 1139SOL    HW2 3702   0.294   2.723   3.917
 1140SOL     OW 3703   1.458   2.597   4.452
 1140SOL    HW1 3704   1.453   2.532   4.527
 1140SOL    HW2 3705   1.538   2.656   4.465
 1141SOL     OW 3706   0.461   3.128   5.451
 1141SOL    HW1 3707   0.411   3.129   5.365
 1141SOL    HW2 3708   0.398   3.110   5.527
 1142SOL     OW 3709   1.111   3.638   3.961
 1142SOL    HW1 3710   1.051   3.576   4.011
 1142SOL    HW2 3711   1.142   3.594   3.876
 1143SOL     OW 3712   0.202   2.147   5.222
 1143SOL    HW1 3713   0.122   2.207   5.209
 1143SOL    HW2 3714   0.192   2.098   5.308
 1144SOL     OW 3715   1.632   3.239   3.805
 1144SOL    HW1 3716   1.600   3.333   3.795
 1144SOL    HW2 3717   1.556   3.176   3.793
 1145SOL     OW 3718   0.464   3.605   4.047
 1145SOL    HW1 3719   0.497   3.644   4.133
 1145SOL    HW2 3720   0.540   3.598   3.982
 1146SOL     OW 3721   1.400   1.969   4.150
 1146SOL    HW1 3722   1.376   1.932   4.060
 1146SOL    HW2 3723   1.499   1.985   4.154
 1147SOL     OW 3724   0.249   3.647   4.965
 1147SOL    HW1 3725   0.306   3.582   5.015
 1147SOL    HW2 3726   0.233   3.614   4.872
 1148SOL     OW 3727   0.940   3.560   4.628
 1148SOL    HW1 3728   1.020   3.503   4.649
 1148SOL    HW2 3729   0.891   3.520   4.551
 1149SOL     OW 3730   0.382   2.562   4.204
 1149SOL    HW1 3731   0.427   2.472   4.201
 1149SOL    HW2 3732   0.288   2.551   4.237
 1150SOL     OW 3733   1.547   2.084   5.453
 1150SOL    HW1 3734   1.542   2.121   5.545
 1150SOL    HW2 3735   1.475   2.015   5.441
 1151SOL     OW 3736   0.614   1.984   3.841
 1151SOL    HW1 3737   0.712   1.962   3.848
 1151SOL    HW2 3738   0.583   1.967   3.748
 1152SOL     OW 3739   0.781   2.126   5.473
 1152SOL    HW1 3740   0.848   2.065   5.516
 1152SOL    HW2 3741   0.708   2.145   5.538
 1153SOL     OW 3742   0.888   3.376   4.919
 1153SOL    HW1 3743   0.865   3.351   4.825
 1153SOL    HW2 3744   0.949   3.307   4.958
 1154SOL     OW 3745   1.351   2.452   5.157
 1154SOL    HW1 3746   1.379   2.409   5.242
 1154SOL    HW2 3747   1.376   2.548   5.158
 1155SOL     OW 3748   0.803   3.264   4.648
 1155SOL    HW1 3749   0.893   3.278   4.606
 1155SOL    HW2 3750   0.732   3.266   4.577
 1156SOL     OW 3751   0.922   2.365   4.623
 1156SOL    HW1 3752   0.897   2.356   4.527
 1156SOL    HW2 3753   0.970   2.283   4.654
 1157SOL     OW 3754   0.539   1.926   4.236
 1157SOL    HW1 3755   0.458   1.927   4.294
 1157SOL    HW2 3756   0.542   2.009   4.181
 1158SOL     OW 3757   1.434   3.050   3.765
 1158SOL    HW1 3758   1.466   2.974   3.822
 1158SOL    HW2 3759   1.342   3.077   3.795
 1159SOL     OW 3760   0.297   1.897   3.895
 1159SOL    HW1 3761   0.346   1.981   3.874
 1159SOL    HW2 3762   0.359   1.832   3.940
 1160SOL     OW 3763   0.935   2.098   4.204
 1160SOL    HW1 3764   0.887   2.139   4.126
 1160SOL    HW2 3765   1.034   2.096   4.185
 1161SOL     OW 3766   1.076   2.545   5.188
 1161SOL    HW1 3767   0.996   2.484   5.191
 1161SOL    HW2 3768   1.157   2.492   5.164
 1162SOL     OW 3769   1.227   3.432   4.517
 1162SOL    HW1 3770   1.248   3.506   4.452
 1162SOL    HW2 3771   1.295   3.432   4.590
 1163SOL     OW 3772   0.459   3.014   4.465
 1163SOL    HW1 3773   0.388   2.987   4.530
 1163SOL    HW2 3774   0.433   2.986   4.372
 1164SOL     OW 3775   1.271   3.659   4.315
 1164SOL    HW1 3776   1.315   3.723   4.251
 1164SOL    HW2 3777   1.221   3.711   4.385
 1165SOL     OW 3778   1.032   2.411   3.740
 1165SOL    HW1 3779   0.991   2.493   3.701
 1165SOL    HW2 3780   1.096   2.437   3.813
 1166SOL     OW 3781   0.078   2.418   5.110
 1166SOL    HW1 3782   0.170   2.417   5.069
 1166SOL    HW2 3783   0.072   2.492   5.177
 1167SOL     OW 3784   0.561   2.084   4.871
 1167SOL    HW1 3785   0.599   2.000   4.908
 1167SOL    HW2 3786   0.473   2.103   4.915
 1168SOL     OW 3787   0.866   2.316   4.366
 1168SOL    HW1 3788   0.834   2.388   4.304
 1168SOL    HW2 3789   0.890   2.235   4.313
 1169SOL     OW 3790   1.017   1.901   4.477
 1169SOL    HW1 3791   0.945   1.906   4.408
 1169SOL    HW2 3792   0.993   1.832   4.546
 1170SOL     OW 3793   1.429   3.035   4.591
 1170SOL    HW1 3794   1.374   2.951   4.584
 1170SOL    HW2 3795   1.455   3.064   4.499
 1171SOL     OW 3796   1.466   2.452   4.716
 1171SOL    HW1 3797   1.436   2.357   4.723
 1171SOL    HW2 3798   1.539   2.468   4.782
 1172SOL     OW 3799   1.857   2.695   4.101
 1172SOL    HW1 3800   1.899   2.631   4.165
 1172SOL    HW2 3801   1.819   2.644   4.023
 1173SOL     OW 3802   0.488   3.247   3.898
 1173SOL    HW1 3803   0.401   3.232   3.945
 1173SOL    HW2 3804   0.471   3.273   3.803
 1174SOL     OW 3805   1.664   3.142   4.381
 1174SOL    HW1 3806   1.763   3.150   4.395
 1174SOL    HW2 3807   1.619   3.226   4.412
 1175SOL     OW 3808   1.390   2.437   3.802
 1175SOL    HW1 3809   1.336   2.416   3.883
 1175SOL    HW2 3810   1.481   2.396   3.811
 1176SOL     OW 3811   0.527   2.118   4.052
 1176SOL    HW1 3812   0.554   2.059   3.977
 1176SOL    HW2 3813   0.527   2.213   4.021
 1177SOL     OW 3814   1.754   3.085   5.312
 1177SOL    HW1 3815   1.845   3.046   5.299
 1177SOL    HW2 3816   1.762   3.181   5.336
 1178SOL     OW 3817   1.064   3.209   5.064
 1178SOL    HW1 3818   0.984   3.186   5.119
 1178SOL    HW2 3819   1.147   3.183   5.113
 1179SOL     OW 3820   1.592   3.491   5.349
 1179SOL    HW1 3821   1.619   3.525   5.259
 1179SOL    HW2 3822   1.671   3.453   5.395
 1180SOL     OW 3823   1.111   3.057   4.824
 1180SOL    HW1 3824   1.071   3.101   4.905
 1180SOL    HW2 3825   1.070   3.094   4.741
 1181SOL     OW 3826   1.638   2.961   4.803
 1181SOL    HW1 3827   1.643   3.042   4.862
 1181SOL    HW2 3828   1.552   2.963   4.752
 1182SOL     OW 3829   0.915   1.951   5.126
 1182SOL    HW1 3830   0.940   1.931   5.031
 1182SOL    HW2 3831   0.987   2.007   5.168
 1183SOL     OW 3832   0.980   2.978   5.443
 1183SOL    HW1 3833   0.881   2.984   5.453
 1183SOL    HW2 3834   1.003   2.898   5.387
 1184SOL     OW 3835   0.705   2.912   4.092
 1184SOL    HW1 3836   0.691   2.919   4.191
 1184SOL    HW2 3837   0.789   2.861   4.074
 1185SOL     OW 3838   0.410   2.675   4.975
 1185SOL    HW1 3839   0.496   2.687   5.025
 1185SOL    HW2 3840   0.368   2.588   5.002
 1186SOL     OW 3841   1.274   2.248   4.986
 1186SOL    HW1 3842   1.295   2.322   5.050
 1186SOL    HW2 3843   1.185   2.265   4.943
 1187SOL     OW 3844   0.064   3.426   5.055
 1187SOL    HW1 3845   0.018   3.508   5.021
 1187SOL    HW2 3846   0.162   3.445   5.064
 1188SOL     OW 3847   0.367   2.962   4.225
 1188SOL    HW1 3848   0.360   3.045   4.169
 1188SOL    HW2 3849   0.371   2.882   4.165
 1189SOL     OW 3850   0.566   2.399   4.589
 1189SOL    HW1 3851   0.578   2.465   4.515
 1189SOL    HW2 3852   0.612   2.433   4.672
 1190SOL     OW 3853   1.252   3.210   4.112
 1190SOL    HW1 3854   1.302   3.287   4.152
 1190SOL    HW2 3855   1.157   3.212   4.144
 1191SOL     OW 3856   1.272   3.307   4.866
 1191SOL    HW1 3857   1.319   3.320   4.953
 1191SOL    HW2 3858   1.206   3.233   4.875
 1192SOL     OW 3859   1.582   2.501   4.196
 1192SOL    HW1 3860   1.551   2.562   4.269
 1192SOL    HW2 3861   1.632   2.553   4.127
 1193SOL     OW 3862   0.354   3.372   5.053
 1193SOL    HW1 3863   0.333   3.328   4.966
 1193SOL    HW2 3864   0.451   3.398   5.056
 1194SOL     OW 3865   0.402   2.613   5.322
 1194SOL    HW1 3866   0.470   2.668   5.275
 1194SOL    HW2 3867   0.442   2.525   5.349
 1195SOL     OW 3868   1.587   2.641   5.394
 1195SOL    HW1 3869   1.495   2.679   5.389
 1195SOL    HW2 3870   1.647   2.688   5.329
 1196SOL     OW 3871   1.013   1.967   5.494
 1196SOL    HW1 3872   1.019   2.052   5.442
 1196SOL    HW2 3873   1.045   1.891   5.437
 1197SOL     OW 3874   0.504   1.912   5.464
 1197SOL    HW1 3875   0.462   1.855   5.394
 1197SOL    HW2 3876   0.438   1.981   5.496
 1198SOL     OW 3877   0.573   2.732   4.753
 1198SOL    HW1 3878   0.617   2.821   4.744
 1198SOL    HW2 3879   0.510   2.732   4.830
 1199SOL     OW 3880   1.360   2.724   4.769
 1199SOL    HW1 3881   1.285   2.724   4.703
 1199SOL    HW2 3882   1.397   2.632   4.778
 1200SOL     OW 3883   1.209   2.387   3.999
 1200SOL    HW1 3884   1.222   2.303   4.053
 1200SOL    HW2 3885   1.180   2.461   4.059
 1201SOL     OW 3886   0.307   2.075   4.955
 1201SOL    HW1 3887   0.284   2.112   5.045
 1201SOL    HW2 3888   0.277   1.980   4.949
 1202SOL     OW 3889   0.037   3.172   5.006
 1202SOL    HW1 3890   0.090   3.123   5.074
 1202SOL    HW2 3891   0.059   3.270   5.011
 1203SOL     OW 3892   0.732   2.496   4.788
 1203SOL    HW1 3893   0.791   2.470   4.712
 1203SOL    HW2 3894   0.704   2.592   4.777
 1204SOL     OW 3895   1.728   2.797   5.578
 1204SOL    HW1 3896   1.682   2.790   5.489
 1204SOL    HW2 3897   1.666   2.841   5.644
 1205SOL     OW 3898   0.307   1.925   4.342
 1205SOL    HW1 3899   0.296   2.019   4.375
 1205SOL    HW2 3900   0.302   1.862   4.419
 1206SOL     OW 3901   1.622   2.229   4.098
 1206SOL    HW1 3902   1.624   2.153   4.162
 1206SOL    HW2 3903   1.574   2.306   4.138
 1207SOL     OW 3904   1.023   2.628   4.690
 1207SOL    HW1 3905   1.038   2.649   4.786
 1207SOL    HW2 3906   0.993   2.533   4.681
 1208SOL     OW 3907   0.980   3.435   5.424
 1208SOL    HW1 3908   0.960   3.479   5.336
 1208SOL    HW2 3909   1.019   3.344   5.408
 1209SOL     OW 3910   1.859   3.380   5.329
 1209SOL    HW1 3911   1.873   3.407   5.234
 1209SOL    HW2 3912   1.942   3.402   5.382
 1210SOL     OW 3913   0.350   2.760   5.528
 1210SOL    HW1 3914   0.426   2.804   5.576
 1210SOL    HW2 3915   0.385   2.713   5.446
 1211SOL     OW 3916   1.540   2.136   3.849
 1211SOL    HW1 3917   1.479   2.061   3.872
 1211SOL    HW2 3918   1.562   2.188   3.932
 1212SOL     OW 3919   1.303   2.700   3.766
 1212SOL    HW1 3920   1.337   2.607   3.781
 1212SOL    HW2 3921   1.321   2.727   3.671
 1213SOL     OW 3922   1.068   3.195   4.573
 1213SOL    HW1 3923   1.075   3.111   4.518
 1213SOL    HW2 3924   1.130   3.264   4.537
 1214SOL     OW 3925   0.319   2.672   4.673
 1214SOL    HW1 3926   0.412   2.708   4.678
 1214SOL    HW2 3927   0.313   2.587   4.725
 1215SOL     OW 3928   0.339   2.371   4.730
 1215SOL    HW1 3929   0.287   2.288   4.713
 1215SOL    HW2 3930   0.416   2.376   4.666
 1216SOL     OW 3931   1.138   2.242   5.402
 1216SOL    HW1 3932   1.093   2.305   5.466
 1216SOL    HW2 3933   1.231   2.273   5.385
 1217SOL     OW 3934   1.160   2.069   5.201
 1217SOL    HW1 3935   1.160   2.133   5.278
 1217SOL    HW2 3936   1.188   2.117   5.118
 1218SOL     OW 3937   0.008   3.188   3.924
 1218SOL    HW1 3938  -0.085   3.209   3.893
 1218SOL    HW2 3939   0.018   3.089   3.937
 1219SOL     OW 3940   0.088   3.663   4.651
 1219SOL    HW1 3941   0.046   3.577   4.624
 1219SOL    HW2 3942   0.182   3.666   4.617
 1220SOL     OW 3943   0.504   3.430   4.634
 1220SOL    HW1 3944   0.570   3.504   4.643
 1220SOL    HW2 3945   0.548   3.351   4.592
 1221SOL     OW 3946   1.002   2.658   4.962
 1221SOL    HW1 3947   1.043   2.626   5.048
 1221SOL    HW2 3948   0.906   2.631   4.959
 1222SOL     OW 3949   0.040   2.406   4.838
 1222SOL    HW1 3950   0.125   2.373   4.797
 1222SOL    HW2 3951   0.053   2.421   4.936
 1223SOL     OW 3952   0.189   2.382   5.446
 1223SOL    HW1 3953   0.248   2.342   5.376
 1223SOL    HW2 3954   0.131   2.453   5.405
 1224SOL     OW 3955   1.369   2.812   5.384
 1224SOL    HW1 3956   1.408   2.901   5.404
 1224SOL    HW2 3957   1.379   2.792   5.287
 1225SOL     OW 3958   0.815   2.434   4.049
 1225SOL    HW1 3959   0.822   2.345   4.003
 1225SOL    HW2 3960   0.721   2.468   4.041
 1226SOL     OW 3961   1.657   2.466   4.930
 1226SOL    HW1 3962   1.619   2.397   4.992
 1226SOL    HW2 3963   1.739   2.430   4.886
 1227SOL     OW 3964   0.252   3.426   5.468
 1227SOL    HW1 3965   0.222   3.483   5.544
 1227SOL    HW2 3966   0.245   3.329   5.494
 1228SOL     OW 3967   0.671   2.326   4.993
 1228SOL    HW1 3968   0.637   2.237   4.963
 1228SOL    HW2 3969   0.697   2.380   4.913
 1229SOL     OW 3970   0.930   3.540   5.189
 1229SOL    HW1 3971   0.906   3.522   5.094
 1229SOL    HW2 3972   0.960   3.634   5.199
 1230SOL     OW 3973   0.473   2.362   3.915
 1230SOL    HW1 3974   0.534   2.442   3.919
 1230SOL    HW2 3975   0.378   2.393   3.922
 1231SOL     OW 3976   0.159   2.999   5.190
 1231SOL    HW1 3977   0.181   2.938   5.266
 1231SOL    HW2 3978   0.169   2.950   5.104
 1232SOL     OW 3979   1.347   2.921   4.958
 1232SOL    HW1 3980   1.371   2.858   4.884
 1232SOL    HW2 3981   1.257   2.961   4.940
 1233SOL     OW 3982   1.302   2.717   4.033
 1233SOL    HW1 3983   1.216   2.686   4.075
 1233SOL    HW2 3984   1.298   2.703   3.934
 1234SOL     OW 3985   1.759   3.609   4.878
 1234SOL    HW1 3986   1.820   3.639   4.805
 1234SOL    HW2 3987   1.721   3.520   4.856
 1235SOL     OW 3988   1.252   3.593   4.852
 1235SOL    HW1 3989   1.336   3.598   4.798
 1235SOL    HW2 3990   1.229   3.497   4.870
 1236SOL     OW 3991   0.083   3.120   4.746
 1236SOL    HW1 3992   0.078   3.119   4.846
 1236SOL    HW2 3993   0.000   3.079   4.708
 1237SOL     OW 3994   0.688   3.524   5.440
 1237SOL    HW1 3995   0.632   3.605   5.449
 1237SOL    HW2 3996   0.740   3.528   5.354
 1238SOL     OW 3997   1.726   1.997   4.247
 1238SOL    HW1 3998   1.799   1.980   4.180
 1238SOL    HW2 3999   1.695   1.910   4.285
 1239SOL     OW 4000   1.388   3.435   4.201
 1239SOL    HW1 4001   1.455   3.447   4.127
 1239SOL    HW2 4002   1.348   3.524   4.224
 1240SOL     OW 4003   0.130   3.656   5.575
 1240SOL    HW1 4004   0.089   3.582   5.628
 1240SOL    HW2 4005   0.194   3.707   5.633
 1241SOL     OW 4006   1.280   2.789   4.396
 1241SOL    HW1 4007   1.340   2.708   4.398
 1241SOL    HW2 4008   1.320   2.858   4.336
 1242SOL     OW 4009   0.830   3.135   5.146
 1242SOL    HW1 4010   0.825   3.168   5.241
 1242SOL    HW2 4011   0.744   3.154   5.100
 1243SOL     OW 4012   0.672   3.478   3.878
 1243SOL    HW1 4013   0.681   3.488   3.779
 1243SOL    HW2 4014   0.632   3.389   3.899
 1244SOL     OW 4015   1.650   3.582   5.118
 1244SOL    HW1 4016   1.703   3.592   5.034
 1244SOL    HW2 4017   1.623   3.672   5.152
 1245SOL     OW 4018   1.841   2.037   4.687
 1245SOL    HW1 4019   1.880   1.952   4.651
 1245SOL    HW2 4020   1.743   2.039   4.668
 1246SOL     OW 4021   0.263   2.188   4.444
 1246SOL    HW1 4022   0.184   2.239   4.410
 1246SOL    HW2 4023   0.254   2.173   4.542
 1247SOL     OW 4024   1.194   3.474   3.755
 1247SOL    HW1 4025   1.200   3.381   3.792
 1247SOL    HW2 4026   1.135   3.474   3.675
 1248SOL     OW 4027   0.822   2.864   5.096
 1248SOL    HW1 4028   0.862   2.863   5.004
 1248SOL    HW2 4029   0.832   2.956   5.136
 1249SOL     OW 4030   0.916   2.772   4.015
 1249SOL    HW1 4031   0.979   2.810   3.947
 1249SOL    HW2 4032   0.956   2.689   4.054
 1250SOL     OW 4033   1.504   3.469   3.768
 1250SOL    HW1 4034   1.412   3.506   3.775
 1250SOL    HW2 4035   1.542   3.489   3.678
 1251SOL     OW 4036   0.372   3.150   5.214
 1251SOL    HW1 4037   0.359   3.243   5.180
 1251SOL    HW2 4038   0.288   3.098   5.201
 1252SOL     OW 4039   1.614   3.154   5.013
 1252SOL    HW1 4040   1.674   3.157   5.093
 1252SOL    HW2 4041   1.539   3.218   5.026
 1253SOL     OW 4042   1.039   2.960   4.420
 1253SOL    HW1 4043   0.969   2.913   4.474
 1253SOL    HW2 4044   1.098   2.892   4.377
 1254SOL     OW 4045   1.014   2.098   4.695
 1254SOL    HW1 4046   1.006   2.062   4.602
 1254SOL    HW2 4047   1.012   2.022   4.760
 1255SOL     OW 4048   0.590   3.349   4.215
 1255SOL    HW1 4049   0.632   3.291   4.145
 1255SOL    HW2 4050   0.546   3.428   4.171
 1256SOL     OW 4051   1.709   2.247   5.105
 1256SOL    HW1 4052   1.782   2.316   5.109
 1256SOL    HW2 4053   1.737   2.172   5.046
 1257SOL     OW 4054   0.255   3.210   4.014
 1257SOL    HW1 4055   0.159   3.211   3.987
 1257SOL    HW2 4056   0.267   3.263   4.098
 1258SOL     OW 4057   0.105   2.875   5.450
 1258SOL    HW1 4058   0.028   2.842   5.504
 1258SOL    HW2 4059   0.190   2.845   5.492
 1259SOL     OW 4060   0.672   2.065   5.213
 1259SOL    HW1 4061   0.762   2.049   5.173
 1259SOL    HW2 4062   0.680   2.070   5.312
 1260SOL     OW 4063   0.075   2.207   3.757
 1260SOL    HW1 4064  -0.017   2.179   3.728
 1260SOL    HW2 4065   0.106   2.284   3.701
 1261SOL     OW 4066   1.440   2.718   5.122
 1261SOL    HW1 4067   1.383   2.770   5.059
 1261SOL    HW2 4068   1.536   2.730   5.098
 1262SOL     OW 4069   0.072   2.028   4.042
 1262SOL    HW1 4070   0.055   2.111   3.988
 1262SOL    HW2 4071   0.162   1.991   4.020
 1263SOL     OW 4072   1.183   3.197   3.843
 1263SOL    HW1 4073   1.084   3.186   3.845
 1263SOL    HW2 4074   1.217   3.212   3.936
 1264SOL     OW 4075   0.613   2.704   5.155
 1264SOL    HW1 4076   0.669   2.785   5.138
 1264SOL    HW2 4077   0.672   2.624   5.158
 1265SOL     OW 4078   1.493   3.629   4.683
 1265SOL    HW1 4079   1.526   3.693   4.614
 1265SOL    HW2 4080   1.559   3.623   4.758
 1266SOL     OW 4081   0.716   2.427   5.432
 1266SOL    HW1 4082   0.735   2.492   5.506
 1266SOL    HW2 4083   0.776   2.347   5.441
 1267SOL     OW 4084   1.450   3.082   5.357
 1267SOL    HW1 4085   1.441   3.072   5.456
 1267SOL    HW2 4086   1.546   3.075   5.331
 1268SOL     OW 4087   0.390   3.603   5.284
 1268SOL    HW1 4088   0.299   3.644   5.282
 1268SOL    HW2 4089   0.383   3.509   5.316
 1269SOL     OW 4090   1.674   2.745   4.978
 1269SOL    HW1 4091   1.647   2.656   4.941
 1269SOL    HW2 4092   1.675   2.813   4.905
 1270SOL     OW 4093   1.225   2.187   4.173
 1270SOL    HW1 4094   1.290   2.113   4.162
 1270SOL    HW2 4095   1.245   2.237   4.257
 1271SOL     OW 4096   0.594   2.607   4.376
 1271SOL    HW1 4097   0.644   2.692   4.357
 1271SOL    HW2 4098   0.506   2.609   4.328
 1272SOL     OW 4099   1.777   2.204   5.366
 1272SOL    HW1 4100   1.760   2.235   5.272
 1272SOL    HW2 4101   1.693   2.167   5.404
 1273SOL     OW 4102   1.730   2.796   5.241
 1273SOL    HW1 4103   1.768   2.887   5.256
 1273SOL    HW2 4104   1.722   2.779   5.142
 1274SOL     OW 4105   0.859   3.236   3.740
 1274SOL    HW1 4106   0.813   3.251   3.828
 1274SOL    HW2 4107   0.903   3.321   3.710
 1275SOL     OW 4108   0.661   3.652   4.677
 1275SOL    HW1 4109   0.615   3.740   4.664
 1275SOL    HW2 4110   0.760   3.664   4.670
 1276SOL     OW 4111   0.859   2.818   4.585
 1276SOL    HW1 4112   0.913   2.749   4.633
 1276SOL    HW2 4113   0.827   2.887   4.651
 1277SOL     OW 4114   1.083   2.846   3.811
 1277SOL    HW1 4115   1.060   2.899   3.729
 1277SOL    HW2 4116   1.164   2.790   3.792
 1278SOL     OW 4117   1.861   3.431   4.575
 1278SOL    HW1 4118   1.790   3.419   4.505
 1278SOL    HW2 4119   1.862   3.352   4.635
 1279SOL     OW 4120   0.221   3.176   5.568
 1279SOL    HW1 4121   0.156   3.103   5.547
 1279SOL    HW2 4122   0.225   3.190   5.666
 1280SOL     OW 4123   0.079   3.102   4.377
 1280SOL    HW1 4124   0.078   3.055   4.465
 1280SOL    HW2 4125   0.161   3.074   4.326
 1281SOL     OW 4126   0.672   3.253   5.348
 1281SOL    HW1 4127   0.594   3.203   5.386
 1281SOL    HW2 4128   0.669   3.348   5.379
 1282SOL     OW 4129   1.824   2.054   4.951
 1282SOL    HW1 4130   1.820   1.964   4.995
 1282SOL    HW2 4131   1.827   2.043   4.852
 1283SOL     OW 4132   0.428   2.286   4.244
 1283SOL    HW1 4133   0.458   2.214   4.182
 1283SOL    HW2 4134   0.389   2.246   4.327
 1284SOL     OW 4135   1.705   3.349   4.828
 1284SOL    HW1 4136   1.612   3.324   4.801
 1284SOL    HW2 4137   1.731   3.299   4.910
 1285SOL     OW 4138   0.317   2.409   5.004
 1285SOL    HW1 4139   0.355   2.350   5.076
 1285SOL    HW2 4140   0.357   2.383   4.916
 1286SOL     OW 4141   0.812   3.448   4.411
 1286SOL    HW1 4142   0.844   3.458   4.317
 1286SOL    HW2 4143   0.733   3.386   4.413
 1287SOL     OW 4144   1.424   2.076   4.836
 1287SOL    HW1 4145   1.476   2.011   4.891
 1287SOL    HW2 4146   1.375   2.139   4.897
 1288SOL     OW 4147   1.001   1.896   4.878
 1288SOL    HW1 4148   0.938   1.824   4.847
 1288SOL    HW2 4149   1.094   1.860   4.878
 1289SOL     OW 4150   0.770   3.192   4.025
 1289SOL    HW1 4151   0.724   3.105   4.042
 1289SOL    HW2 4152   0.861   3.189   4.066
 1290SOL     OW 4153   0.618   3.429   5.008
 1290SOL    HW1 4154   0.613   3.511   5.065
 1290SOL    HW2 4155   0.707   3.426   4.963
 1291SOL     OW 4156   1.352   1.914   3.892
 1291SOL    HW1 4157   1.387   1.873   3.808
 1291SOL    HW2 4158   1.262   1.876   3.912
 1292SOL     OW 4159   1.300   2.315   4.415
 1292SOL    HW1 4160   1.241   2.395   4.419
 1292SOL    HW2 4161   1.315   2.280   4.508
 1293SOL     OW 4162   1.593   2.083   4.606
 1293SOL    HW1 4163   1.509   2.082   4.660
 1293SOL    HW2 4164   1.595   2.166   4.550
 1294SOL     OW 4165   0.039   2.939   4.024
 1294SOL    HW1 4166   0.138   2.928   4.015
 1294SOL    HW2 4167  -0.001   2.853   4.056
 1295SOL     OW 4168   0.875   3.508   4.061
 1295SOL    HW1 4169   0.798   3.473   4.007
 1295SOL    HW2 4170   0.843   3.579   4.123
 1296SOL     OW 4171   0.230   4.352   0.113
 1296SOL    HW1 4172   0.137   4.350   0.150
 1296SOL    HW2 4173   0.231   4.313   0.021
 1297SOL     OW 4174   0.225   3.999   0.996
 1297SOL    HW1 4175   0.260   3.982   1.088
 1297SOL    HW2 4176   0.137   3.954   0.984
 1298SOL     OW 4177   0.019   4.092   0.647
 1298SOL    HW1 4178  -0.063   4.135   0.686
 1298SOL    HW2 4179  -0.009   4.019   0.584
 1299SOL     OW 4180   0.569   4.999   1.165
 1299SOL    HW1 4181   0.476   4.992   1.128
 1299SOL    HW2 4182   0.580   5.088   1.209
 1300SOL     OW 4183   1.555   5.235   0.703
 1300SOL    HW1 4184   1.498   5.219   0.784
 1300SOL    HW2 4185   1.496   5.245   0.623
 1301SOL     OW 4186   1.135   4.427   0.717
 1301SOL    HW1 4187   1.192   4.505   0.692
 1301SOL    HW2 4188   1.075   4.453   0.793
 1302SOL     OW 4189   1.755   4.331   0.231
 1302SOL    HW1 4190   1.743   4.318   0.132
 1302SOL    HW2 4191   1.725   4.250   0.280
 1303SOL     OW 4192   0.768   4.868   1.023
 1303SOL    HW1 4193   0.690   4.885   1.083
 1303SOL    HW2 4194   0.802   4.955   0.987
 1304SOL     OW 4195   0.850   4.522   1.823
 1304SOL    HW1 4196   0.846   4.598   1.888
 1304SOL    HW2 4197   0.872   4.558   1.732
 1305SOL     OW 4198   0.685   4.736   0.665
 1305SOL    HW1 4199   0.754   4.720   0.735
 1305SOL    HW2 4200   0.612   4.793   0.703
 1306SOL     OW 4201   0.686   4.885   1.803
 1306SOL    HW1 4202   0.746   4.964   1.817
 1306SOL    HW2 4203   0.600   4.916   1.762
 1307SOL     OW 4204   0.335   5.159   1.061
 1307SOL    HW1 4205   0.257   5.128   1.008
 1307SOL    HW2 4206   0.393   5.217   1.004
 1308SOL     OW 4207   1.460   5.229   1.339
 1308SOL    HW1 4208   1.484   5.323   1.365
 1308SOL    HW2 4209   1.444   5.175   1.421
 1309SOL     OW 4210   0.438   4.116   1.499
 1309SOL    HW1 4211   0.520   4.060   1.508
 1309SOL    HW2 4212   0.357   4.058   1.503
 1310SOL     OW 4213   1.603   4.171   0.737
 1310SOL    HW1 4214   1.529   4.217   0.687
 1310SOL    HW2 4215   1.654   4.239   0.790
 1311SOL     OW 4216   0.231   5.437   0.483
 1311SOL    HW1 4217   0.265   5.514   0.537
 1311SOL    HW2 4218   0.275   5.437   0.393
 1312SOL     OW 4219   1.127   5.065   1.690
 1312SOL    HW1 4220   1.174   5.065   1.778
 1312SOL    HW2 4221   1.079   4.978   1.679
 1313SOL     OW 4222   0.230   5.158   0.538
 1313SOL    HW1 4223   0.204   5.254   0.538
 1313SOL    HW2 4224   0.159   5.104   0.583
 1314SOL     OW 4225   0.240   4.815   0.886
 1314SOL    HW1 4226   0.254   4.731   0.938
 1314SOL    HW2 4227   0.185   4.879   0.941
 1315SOL     OW 4228   0.620   5.510   1.439
 1315SOL    HW1 4229   0.528   5.493   1.474
 1315SOL    HW2 4230   0.648   5.602   1.465
 1316SOL     OW 4231   0.606   4.688   0.123
 1316SOL    HW1 4232   0.613   4.772   0.069
 1316SOL    HW2 4233   0.652   4.701   0.211
 1317SOL     OW 4234   1.594   3.838   1.480
 1317SOL    HW1 4235   1.576   3.905   1.408
 1317SOL    HW2 4236   1.591   3.884   1.569
 1318SOL     OW 4237   0.122   4.367   0.563
 1318SOL    HW1 4238   0.077   4.279   0.580
 1318SOL    HW2 4239   0.121   4.421   0.647
 1319SOL     OW 4240   1.842   5.491   0.359
 1319SOL    HW1 4241   1.896   5.462   0.439
 1319SOL    HW2 4242   1.872   5.581   0.330
 1320SOL     OW 4243   0.027   5.320   0.117
 1320SOL    HW1 4244   0.008   5.224   0.138
 1320SOL    HW2 4245  -0.006   5.378   0.192
 1321SOL     OW 4246   1.689   4.646   0.612
 1321SOL    HW1 4247   1.784   4.617   0.620
 1321SOL    HW2 4248   1.681   4.711   0.537
 1322SOL     OW 4249   1.641   4.832   0.432
 1322SOL    HW1 4250   1.727   4.834   0.380
 1322SOL    HW2 4251   1.655   4.879   0.520
 1323SOL     OW 4252   0.113   4.461   1.597
 1323SOL    HW1 4253   0.201   4.448   1.642
 1323SOL    HW2 4254   0.100   4.558   1.575
 1324SOL     OW 4255   0.613   5.089   0.726
 1324SOL    HW1 4256   0.564   5.002   0.735
 1324SOL    HW2 4257   0.590   5.132   0.639
 1325SOL     OW 4258   1.293   4.952   1.423
 1325SOL    HW1 4259   1.330   4.879   1.365
 1325SOL    HW2 4260   1.345   4.957   1.508
 1326SOL     OW 4261   0.809   3.728   0.502
 1326SOL    HW1 4262   0.849   3.819   0.493
 1326SOL    HW2 4263   0.709   3.736   0.508
 1327SOL     OW 4264   0.197   4.700   1.264
 1327SOL    HW1 4265   0.286   4.655   1.250
 1327SOL    HW2 4266   0.124   4.635   1.245
 1328SOL     OW 4267   1.525   4.723   0.190
 1328SOL    HW1 4268   1.462   4.647   0.203
 1328SOL    HW2 4269   1.573   4.741   0.276
 1329SOL     OW 4270   1.187   5.516   1.616
 1329SOL    HW1 4271   1.211   5.576   1.540
 1329SOL    HW2 4272   1.194   5.421   1.586
 1330SOL     OW 4273   0.317   3.975   1.801
 1330SOL    HW1 4274   0.388   4.046   1.807
 1330SOL    HW2 4275   0.229   4.014   1.829
 1331SOL     OW 4276   1.466   5.141   0.953
 1331SOL    HW1 4277   1.407   5.147   1.033
 1331SOL    HW2 4278   1.451   5.053   0.907
 1332SOL     OW 4279   1.667   5.438   0.572
 1332SOL    HW1 4280   1.626   5.415   0.484
 1332SOL    HW2 4281   1.649   5.364   0.637
 1333SOL     OW 4282   0.598   4.453   0.270
 1333SOL    HW1 4283   0.622   4.522   0.202
 1333SOL    HW2 4284   0.520   4.486   0.324
 1334SOL     OW 4285   1.281   4.069   0.944
 1334SOL    HW1 4286   1.195   4.019   0.931
 1334SOL    HW2 4287   1.343   4.015   1.000
 1335SOL     OW 4288   1.576   5.386   0.307
 1335SOL    HW1 4289   1.665   5.432   0.310
 1335SOL    HW2 4290   1.555   5.362   0.212
 1336SOL     OW 4291   0.807   4.329   1.465
 1336SOL    HW1 4292   0.760   4.326   1.554
 1336SOL    HW2 4293   0.756   4.274   1.399
 1337SOL     OW 4294   1.394   4.193   1.674
 1337SOL    HW1 4295   1.374   4.236   1.762
 1337SOL    HW2 4296   1.472   4.131   1.683
 1338SOL     OW 4297   0.973   4.614   1.572
 1338SOL    HW1 4298   1.019   4.530   1.543
 1338SOL    HW2 4299   0.917   4.648   1.497
 1339SOL     OW 4300   0.991   4.134   1.242
 1339SOL    HW1 4301   0.914   4.168   1.296
 1339SOL    HW2 4302   0.957   4.083   1.163
 1340SOL     OW 4303   1.041   4.425   0.429
 1340SOL    HW1 4304   1.067   4.421   0.525
 1340SOL    HW2 4305   0.956   4.374   0.415
 1341SOL     OW 4306   0.076   4.535   0.789
 1341SOL    HW1 4307   0.175   4.523   0.798
 1341SOL    HW2 4308   0.052   4.630   0.810
 1342SOL     OW 4309   0.130   5.545   1.571
 1342SOL    HW1 4310   0.120   5.530   1.670
 1342SOL    HW2 4311   0.044   5.581   1.535
 1343SOL     OW 4312   0.865   4.072   0.195
 1343SOL    HW1 4313   0.924   4.135   0.146
 1343SOL    HW2 4314   0.884   3.978   0.166
 1344SOL     OW 4315   1.719   4.309   1.831
 1344SOL    HW1 4316   1.693   4.398   1.795
 1344SOL    HW2 4317   1.717   4.241   1.758
 1345SOL     OW 4318   1.362   4.868   0.545
 1345SOL    HW1 4319   1.445   4.839   0.497
 1345SOL    HW2 4320   1.313   4.935   0.489
 1346SOL     OW 4321   0.550   3.920   0.885
 1346SOL    HW1 4322   0.545   3.915   0.985
 1346SOL    HW2 4323   0.552   4.016   0.856
 1347SOL     OW 4324   1.008   5.180   0.477
 1347SOL    HW1 4325   0.962   5.252   0.425
 1347SOL    HW2 4326   1.004   5.200   0.575
 1348SOL     OW 4327   0.351   5.525   0.853
 1348SOL    HW1 4328   0.401   5.439   0.859
 1348SOL    HW2 4329   0.416   5.602   0.850
 1349SOL     OW 4330   1.795   4.790   0.873
 1349SOL    HW1 4331   1.733   4.775   0.797
 1349SOL    HW2 4332   1.743   4.801   0.958
 1350SOL     OW 4333   1.227   5.274   1.506
 1350SOL    HW1 4334   1.233   5.197   1.570
 1350SOL    HW2 4335   1.175   5.248   1.426
 1351SOL     OW 4336   0.321   4.667   0.242
 1351SOL    HW1 4337   0.403   4.706   0.200
 1351SOL    HW2 4338   0.294   4.585   0.193
 1352SOL     OW 4339   1.458   4.459   0.728
 1352SOL    HW1 4340   1.453   4.394   0.803
 1352SOL    HW2 4341   1.538   4.518   0.741
 1353SOL     OW 4342   0.461   4.990   1.727
 1353SOL    HW1 4343   0.411   4.991   1.641
 1353SOL    HW2 4344   0.398   4.972   1.803
 1354SOL     OW 4345   1.111   5.500   0.237
 1354SOL    HW1 4346   1.051   5.438   0.287
 1354SOL    HW2 4347   1.142   5.456   0.152
 1355SOL     OW 4348   0.202   4.009   1.498
 1355SOL    HW1 4349   0.122   4.069   1.485
 1355SOL    HW2 4350   0.192   3.960   1.584
 1356SOL     OW 4351   1.632   5.101   0.081
 1356SOL    HW1 4352   1.600   5.195   0.071
 1356SOL    HW2 4353   1.556   5.038   0.069
 1357SOL     OW 4354   0.464   5.467   0.323
 1357SOL    HW1 4355   0.497   5.506   0.409
 1357SOL    HW2 4356   0.540   5.460   0.258
 1358SOL     OW 4357   1.400   3.831   0.426
 1358SOL    HW1 4358   1.376   3.794   0.336
 1358SOL    HW2 4359   1.499   3.847   0.430
 1359SOL     OW 4360   0.249   5.509   1.241
 1359SOL    HW1 4361   0.306   5.444   1.291
 1359SOL    HW2 4362   0.233   5.476   1.148
 1360SOL     OW 4363   0.940   5.422   0.904
 1360SOL    HW1 4364   1.020   5.365   0.925
 1360SOL    HW2 4365   0.891   5.382   0.827
 1361SOL     OW 4366   0.382   4.424   0.480
 1361SOL    HW1 4367   0.427   4.334   0.477
 1361SOL    HW2 4368   0.288   4.413   0.513
 1362SOL     OW 4369   1.547   3.946   1.729
 1362SOL    HW1 4370   1.542   3.983   1.821
 1362SOL    HW2 4371   1.475   3.877   1.717
 1363SOL     OW 4372   0.614   3.846   0.117
 1363SOL    HW1 4373   0.712   3.824   0.124
 1363SOL    HW2 4374   0.583   3.829   0.024
 1364SOL     OW 4375   0.781   3.988   1.749
 1364SOL    HW1 4376   0.848   3.927   1.792
 1364SOL    HW2 4377   0.708   4.007   1.814
 1365SOL     OW 4378   0.888   5.238   1.195
 1365SOL    HW1 4379   0.865   5.213   1.101
 1365SOL    HW2 4380   0.949   5.169   1.234
 1366SOL     OW 4381   1.351   4.314   1.433
 1366SOL    HW1 4382   1.379   4.271   1.518
 1366SOL    HW2 4383   1.376   4.410   1.434
 1367SOL     OW 4384   0.803   5.126   0.924
 1367SOL    HW1 4385   0.893   5.140   0.882
 1367SOL    HW2 4386   0.732   5.128   0.853
 1368SOL     OW 4387   0.922   4.227   0.899
 1368SOL    HW1 4388   0.897   4.218   0.803
 1368SOL    HW2 4389   0.970   4.145   0.930
 1369SOL     OW 4390   0.539   3.788   0.512
 1369SOL    HW1 4391   0.458   3.789   0.570
 1369SOL    HW2 4392   0.542   3.871   0.457
 1370SOL     OW 4393   1.434   4.912   0.041
 1370SOL    HW1 4394   1.466   4.836   0.098
 1370SOL    HW2 4395   1.342   4.939   0.071
 1371SOL     OW 4396   0.297   3.759   0.171
 1371SOL    HW1 4397   0.346   3.843   0.150
 1371SOL    HW2 4398   0.359   3.694   0.216
 1372SOL     OW 4399   0.935   3.960   0.480
 1372SOL    HW1 4400   0.887   4.001   0.402
 1372SOL    HW2 4401   1.034   3.958   0.461
 1373SOL     OW 4402   1.076   4.407   1.464
 1373SOL    HW1 4403   0.996   4.346   1.467
 1373SOL    HW2 4404   1.157   4.354   1.440
 1374SOL     OW 4405   1.227   5.294   0.793
 1374SOL    HW1 4406   1.248   5.368   0.728
 1374SOL    HW2 4407   1.295   5.294   0.866
 1375SOL     OW 4408   0.459   4.876   0.741
 1375SOL    HW1 4409   0.388   4.849   0.806
 1375SOL    HW2 4410   0.433   4.848   0.648
 1376SOL     OW 4411   1.271   5.521   0.591
 1376SOL    HW1 4412   1.315   5.585   0.527
 1376SOL    HW2 4413   1.221   5.573   0.661
 1377SOL     OW 4414   1.032   4.273   0.016
 1377SOL    HW1 4415   0.991   4.355  -0.023
 1377SOL    HW2 4416   1.096   4.299   0.089
 1378SOL     OW 4417   0.078   4.280   1.386
 1378SOL    HW1 4418   0.170   4.279   1.345
 1378SOL    HW2 4419   0.072   4.354   1.453
 1379SOL     OW 4420   0.561   3.946   1.147
 1379SOL    HW1 4421   0.599   3.862   1.184
 1379SOL    HW2 4422   0.473   3.965   1.191
 1380SOL     OW 4423   0.866   4.178   0.642
 1380SOL    HW1 4424   0.834   4.250   0.580
 1380SOL    HW2 4425   0.890   4.097   0.589
 1381SOL     OW 4426   1.017   3.763   0.753
 1381SOL    HW1 4427   0.945   3.768   0.684
 1381SOL    HW2 4428   0.993   3.694   0.822
 1382SOL     OW 4429   1.429   4.897   0.867
 1382SOL    HW1 4430   1.374   4.813   0.860
 1382SOL    HW2 4431   1.455   4.926   0.775
 1383SOL     OW 4432   1.466   4.314   0.992
 1383SOL    HW1 4433   1.436   4.219   0.999
 1383SOL    HW2 4434   1.539   4.330   1.058
 1384SOL     OW 4435   1.857   4.557   0.377
 1384SOL    HW1 4436   1.899   4.493   0.441
 1384SOL    HW2 4437   1.819   4.506   0.299
 1385SOL     OW 4438   0.488   5.109   0.174
 1385SOL    HW1 4439   0.401   5.094   0.221
 1385SOL    HW2 4440   0.471   5.135   0.079
 1386SOL     OW 4441   1.664   5.004   0.657
 1386SOL    HW1 4442   1.763   5.012   0.671
 1386SOL    HW2 4443   1.619   5.088   0.688
 1387SOL     OW 4444   1.390   4.299   0.078
 1387SOL    HW1 4445   1.336   4.278   0.159
 1387SOL    HW2 4446   1.481   4.258   0.087
 1388SOL     OW 4447   0.527   3.980   0.328
 1388SOL    HW1 4448   0.554   3.921   0.253
 1388SOL    HW2 4449   0.527   4.075   0.297
 1389SOL     OW 4450   1.754   4.947   1.588
 1389SOL    HW1 4451   1.845   4.908   1.575
 1389SOL    HW2 4452   1.762   5.043   1.612
 1390SOL     OW 4453   1.064   5.071   1.340
 1390SOL    HW1 4454   0.984   5.048   1.395
 1390SOL    HW2 4455   1.147   5.045   1.389
 1391SOL     OW 4456   1.592   5.353   1.625
 1391SOL    HW1 4457   1.619   5.387   1.535
 1391SOL    HW2 4458   1.671   5.315   1.671
 1392SOL     OW 4459   1.111   4.919   1.100
 1392SOL    HW1 4460   1.071   4.963   1.181
 1392SOL    HW2 4461   1.070   4.956   1.017
 1393SOL     OW 4462   1.638   4.823   1.079
 1393SOL    HW1 4463   1.643   4.904   1.138
 1393SOL    HW2 4464   1.552   4.825   1.028
 1394SOL     OW 4465   0.915   3.813   1.402
 1394SOL    HW1 4466   0.940   3.793   1.307
 1394SOL    HW2 4467   0.987   3.869   1.444
 1395SOL     OW 4468   0.980   4.840   1.719
 1395SOL    HW1 4469   0.881   4.846   1.729
 1395SOL    HW2 4470   1.003   4.760   1.663
 1396SOL     OW 4471   0.705   4.774   0.368
 1396SOL    HW1 4472   0.691   4.781   0.467
 1396SOL    HW2 4473   0.789   4.723   0.350
 1397SOL     OW 4474   0.410   4.537   1.251
 1397SOL    HW1 4475   0.496   4.549   1.301
 1397SOL    HW2 4476   0.368   4.450   1.278
 1398SOL     OW 4477   1.274   4.110   1.262
 1398SOL    HW1 4478   1.295   4.184   1.326
 1398SOL    HW2 4479   1.185   4.127   1.219
 1399SOL     OW 4480   0.064   5.288   1.331
 1399SOL    HW1 4481   0.018   5.370   1.297
 1399SOL    HW2 4482   0.162   5.307   1.340
 1400SOL     OW 4483   0.367   4.824   0.501
 1400SOL    HW1 4484   0.360   4.907   0.445
 1400SOL    HW2 4485   0.371   4.744   0.441
 1401SOL     OW 4486   0.566   4.261   0.865
 1401SOL    HW1 4487   0.578   4.327   0.791
 1401SOL    HW2 4488   0.612   4.295   0.948
 1402SOL     OW 4489   1.252   5.072   0.388
 1402SOL    HW1 4490   1.302   5.149   0.428
 1402SOL    HW2 4491   1.157   5.074   0.420
 1403SOL     OW 4492   1.272   5.169   1.142
 1403SOL    HW1 4493   1.319   5.182   1.229
 1403SOL    HW2 4494   1.206   5.095   1.151
 1404SOL     OW 4495   1.582   4.363   0.472
 1404SOL    HW1 4496   1.551   4.424   0.545
 1404SOL    HW2 4497   1.632   4.415   0.403
 1405SOL     OW 4498   0.354   5.234   1.329
 1405SOL    HW1 4499   0.333   5.190   1.242
 1405SOL    HW2 4500   0.451   5.260   1.332
 1406SOL     OW 4501   0.402   4.475   1.598
 1406SOL    HW1 4502   0.470   4.530   1.551
 1406SOL    HW2 4503   0.442   4.387   1.625
 1407SOL     OW 4504   1.587   4.503   1.670
 1407SOL    HW1 4505   1.495   4.541   1.665
 1407SOL    HW2 4506   1.647   4.550   1.605
 1408SOL     OW 4507   1.013   3.829   1.770
 1408SOL    HW1 4508   1.019   3.914   1.718
 1408SOL    HW2 4509   1.045   3.753   1.713
 1409SOL     OW 4510   0.504   3.774   1.740
 1409SOL    HW1 4511   0.462   3.717   1.670
 1409SOL    HW2 4512   0.438   3.843   1.772
 1410SOL     OW 4513   0.573   4.594   1.029
 1410SOL    HW1 4514   0.617   4.683   1.020
 1410SOL    HW2 4515   0.510   4.594   1.106
 1411SOL     OW 4516   1.360   4.586   1.045
 1411SOL    HW1 4517   1.285   4.586   0.979
 1411SOL    HW2 4518   1.397   4.494   1.054
 1412SOL     OW 4519   1.209   4.249   0.275
 1412SOL    HW1 4520   1.222   4.165   0.329
 1412SOL    HW2 4521   1.180   4.323   0.335
 1413SOL     OW 4522   0.307   3.937   1.231
 1413SOL    HW1 4523   0.284   3.974   1.321
 1413SOL    HW2 4524   0.277   3.842   1.225
 1414SOL     OW 4525   0.037   5.034   1.282
 1414SOL    HW1 4526   0.090   4.985   1.350
 1414SOL    HW2 4527   0.059   5.132   1.287
 1415SOL     OW 4528   0.732   4.358   1.064
 1415SOL    HW1 4529   0.791   4.332   0.988
 1415SOL    HW2 4530   0.704   4.454   1.053
 1416SOL     OW 4531   1.728   4.659   1.854
 1416SOL    HW1 4532   1.682   4.652   1.765
 1416SOL    HW2 4533   1.666   4.703   1.920
 1417SOL     OW 4534   0.307   3.787   0.618
 1417SOL    HW1 4535   0.296   3.881   0.651
 1417SOL    HW2 4536   0.302   3.724   0.695
 1418SOL     OW 4537   1.622   4.091   0.374
 1418SOL    HW1 4538   1.624   4.015   0.438
 1418SOL    HW2 4539   1.574   4.168   0.414
 1419SOL     OW 4540   1.023   4.490   0.966
 1419SOL    HW1 4541   1.038   4.511   1.062
 1419SOL    HW2 4542   0.993   4.395   0.957
 1420SOL     OW 4543   0.980   5.297   1.700
 1420SOL    HW1 4544   0.960   5.341   1.612
 1420SOL    HW2 4545   1.019   5.206   1.684
 1421SOL     OW 4546   1.859   5.242   1.605
 1421SOL    HW1 4547   1.873   5.269   1.510
 1421SOL    HW2 4548   1.942   5.264   1.658
 1422SOL     OW 4549   0.350   4.622   1.804
 1422SOL    HW1 4550   0.426   4.666   1.852
 1422SOL    HW2 4551   0.385   4.575   1.722
 1423SOL     OW 4552   1.540   3.998   0.125
 1423SOL    HW1 4553   1.479   3.923   0.148
 1423SOL    HW2 4554   1.562   4.050   0.208
 1424SOL     OW 4555   1.303   4.562   0.042
 1424SOL    HW1 4556   1.337   4.469   0.057
 1424SOL    HW2 4557   1.321   4.589  -0.053
 1425SOL     OW 4558   1.068   5.057   0.849
 1425SOL    HW1 4559   1.075   4.973   0.794
 1425SOL    HW2 4560   1.130   5.126   0.813
 1426SOL     OW 4561   0.319   4.534   0.949
 1426SOL    HW1 4562   0.412   4.570   0.954
 1426SOL    HW2 4563   0.313   4.449   1.001
 1427SOL     OW 4564   0.339   4.233   1.006
 1427SOL    HW1 4565   0.287   4.150   0.989
 1427SOL    HW2 4566   0.416   4.238   0.942
 1428SOL     OW 4567   1.138   4.104   1.678
 1428SOL    HW1 4568   1.093   4.167   1.742
 1428SOL    HW2 4569   1.231   4.135   1.661
 1429SOL     OW 4570   1.160   3.931   1.477
 1429SOL    HW1 4571   1.160   3.995   1.554
 1429SOL    HW2 4572   1.188   3.979   1.394
 1430SOL     OW 4573   0.008   5.050   0.200
 1430SOL    HW1 4574  -0.085   5.071   0.169
 1430SOL    HW2 4575   0.018   4.951   0.213
 1431SOL     OW 4576   0.088   5.525   0.927
 1431SOL    HW1 4577   0.046   5.439   0.900
 1431SOL    HW2 4578   0.182   5.528   0.893
 1432SOL     OW 4579   0.504   5.292   0.910
 1432SOL    HW1 4580   0.570   5.366   0.919
 1432SOL    HW2 4581   0.548   5.213   0.868
 1433SOL     OW 4582   1.002   4.520   1.238
 1433SOL    HW1 4583   1.043   4.488   1.324
 1433SOL    HW2 4584   0.906   4.493   1.235
 1434SOL     OW 4585   0.040   4.268   1.114
 1434SOL    HW1 4586   0.125   4.235   1.073
 1434SOL    HW2 4587   0.053   4.283   1.212
 1435SOL     OW 4588   0.189   4.244   1.722
 1435SOL    HW1 4589   0.248   4.204   1.652
 1435SOL    HW2 4590   0.131   4.315   1.681
 1436SOL     OW 4591   1.369   4.674   1.660
 1436SOL    HW1 4592   1.408   4.763   1.680
 1436SOL    HW2 4593   1.379   4.654   1.563
 1437SOL     OW 4594   0.815   4.296   0.325
 1437SOL    HW1 4595   0.822   4.207   0.279
 1437SOL    HW2 4596   0.721   4.330   0.317
 1438SOL     OW 4597   1.657   4.328   1.206
 1438SOL    HW1 4598   1.619   4.259   1.268
 1438SOL    HW2 4599   1.739   4.292   1.162
 1439SOL     OW 4600   0.252   5.288   1.744
 1439SOL    HW1 4601   0.222   5.345   1.820
 1439SOL    HW2 4602   0.245   5.191   1.770
 1440SOL     OW 4603   0.671   4.188   1.269
 1440SOL    HW1 4604   0.637   4.099   1.239
 1440SOL    HW2 4605   0.697   4.242   1.189
 1441SOL     OW 4606   0.930   5.402   1.465
 1441SOL    HW1 4607   0.906   5.384   1.370
 1441SOL    HW2 4608   0.960   5.496   1.475
 1442SOL     OW 4609   0.473   4.224   0.191
 1442SOL    HW1 4610   0.534   4.304   0.195
 1442SOL    HW2 4611   0.378   4.255   0.198
 1443SOL     OW 4612   0.159   4.861   1.466
 1443SOL    HW1 4613   0.181   4.800   1.542
 1443SOL    HW2 4614   0.169   4.812   1.380
 1444SOL     OW 4615   1.347   4.783   1.234
 1444SOL    HW1 4616   1.371   4.720   1.160
 1444SOL    HW2 4617   1.257   4.823   1.216
 1445SOL     OW 4618   1.302   4.579   0.309
 1445SOL    HW1 4619   1.216   4.548   0.351
 1445SOL    HW2 4620   1.298   4.565   0.210
 1446SOL     OW 4621   1.759   5.471   1.154
 1446SOL    HW1 4622   1.820   5.501   1.081
 1446SOL    HW2 4623   1.721   5.382   1.132
 1447SOL     OW 4624   1.252   5.455   1.128
 1447SOL    HW1 4625   1.336   5.460   1.074
 1447SOL    HW2 4626   1.229   5.359   1.146
 1448SOL     OW 4627   0.083   4.982   1.022
 1448SOL    HW1 4628   0.078   4.981   1.122
 1448SOL    HW2 4629   0.000   4.941   0.984
 1449SOL     OW 4630   0.688   5.386   1.716
 1449SOL    HW1 4631   0.632   5.467   1.725
 1449SOL    HW2 4632   0.740   5.390   1.630
 1450SOL     OW 4633   0.903   3.810   0.133
 1450SOL    HW1 4634   0.954   3.811   0.047
 1450SOL    HW2 4635   0.959   3.768   0.204
 1451SOL     OW 4636   1.726   3.859   0.523
 1451SOL    HW1 4637   1.799   3.842   0.456
 1451SOL    HW2 4638   1.695   3.772   0.561
 1452SOL     OW 4639   1.388   5.297   0.477
 1452SOL    HW1 4640   1.455   5.309   0.403
 1452SOL    HW2 4641   1.348   5.386   0.500
 1453SOL     OW 4642   0.130   5.518   1.851
 1453SOL    HW1 4643   0.089   5.444   1.904
 1453SOL    HW2 4644   0.194   5.569   1.909
 1454SOL     OW 4645   1.280   4.651   0.672
 1454SOL    HW1 4646   1.340   4.570   0.674
 1454SOL    HW2 4647   1.320   4.720   0.612
 1455SOL     OW 4648   0.830   4.997   1.422
 1455SOL    HW1 4649   0.825   5.030   1.517
 1455SOL    HW2 4650   0.744   5.016   1.376
 1456SOL     OW 4651   0.672   5.340   0.154
 1456SOL    HW1 4652   0.681   5.350   0.055
 1456SOL    HW2 4653   0.632   5.251   0.175
 1457SOL     OW 4654   1.650   5.444   1.394
 1457SOL    HW1 4655   1.703   5.454   1.310
 1457SOL    HW2 4656   1.623   5.534   1.428
 1458SOL     OW 4657   1.841   3.899   0.963
 1458SOL    HW1 4658   1.880   3.814   0.927
 1458SOL    HW2 4659   1.743   3.901   0.944
 1459SOL     OW 4660   0.263   4.050   0.720
 1459SOL    HW1 4661   0.184   4.101   0.686
 1459SOL    HW2 4662   0.254   4.035   0.818
 1460SOL     OW 4663   1.194   5.336   0.031
 1460SOL    HW1 4664   1.200   5.243   0.068
 1460SOL    HW2 4665   1.135   5.336  -0.049
 1461SOL     OW 4666   0.822   4.726   1.372
 1461SOL    HW1 4667   0.862   4.725   1.280
 1461SOL    HW2 4668   0.832   4.818   1.412
 1462SOL     OW 4669   0.916   4.634   0.291
 1462SOL    HW1 4670   0.979   4.672   0.223
 1462SOL    HW2 4671   0.956   4.551   0.330
 1463SOL     OW 4672   1.504   5.331   0.044
 1463SOL    HW1 4673   1.412   5.368   0.051
 1463SOL    HW2 4674   1.542   5.351  -0.046
 1464SOL     OW 4675   0.372   5.012   1.490
 1464SOL    HW1 4676   0.359   5.105   1.456
 1464SOL    HW2 4677   0.288   4.960   1.477
 1465SOL     OW 4678   1.614   5.016   1.289
 1465SOL    HW1 4679   1.674   5.019   1.369
 1465SOL    HW2 4680   1.539   5.080   1.302
 1466SOL     OW 4681   1.039   4.822   0.696
 1466SOL    HW1 4682   0.969   4.775   0.750
 1466SOL    HW2 4683   1.098   4.754   0.653
 1467SOL     OW 4684   1.014   3.960   0.971
 1467SOL    HW1 4685   1.006   3.924   0.878
 1467SOL    HW2 4686   1.012   3.884   1.036
 1468SOL     OW 4687   0.590   5.211   0.491
 1468SOL    HW1 4688   0.632   5.153   0.421
 1468SOL    HW2 4689   0.546   5.290   0.447
 1469SOL     OW 4690   1.709   4.109   1.381
 1469SOL    HW1 4691   1.782   4.178   1.385
 1469SOL    HW2 4692   1.737   4.034   1.322
 1470SOL     OW 4693   0.255   5.072   0.290
 1470SOL    HW1 4694   0.159   5.073   0.263
 1470SOL    HW2 4695   0.267   5.125   0.374
 1471SOL     OW 4696   0.105   4.737   1.726
 1471SOL    HW1 4697   0.028   4.704   1.780
 1471SOL    HW2 4698   0.190   4.707   1.768
 1472SOL     OW 4699   0.672   3.927   1.489
 1472SOL    HW1 4700   0.762   3.911   1.449
 1472SOL    HW2 4701   0.680   3.932   1.588
 1473SOL     OW 4702   0.075   4.069   0.033
 1473SOL    HW1 4703  -0.017   4.041   0.004
 1473SOL    HW2 4704   0.106   4.146  -0.023
 1474SOL     OW 4705   1.440   4.580   1.398
 1474SOL    HW1 4706   1.383   4.632   1.335
 1474SOL    HW2 4707   1.536   4.592   1.374
 1475SOL     OW 4708   0.072   3.890   0.318
 1475SOL    HW1 4709   0.055   3.973   0.264
 1475SOL    HW2 4710   0.162   3.853   0.296
 1476SOL     OW 4711   1.183   5.059   0.119
 1476SOL    HW1 4712   1.084   5.048   0.121
 1476SOL    HW2 4713   1.217   5.074   0.212
 1477SOL     OW 4714   0.613   4.566   1.431
 1477SOL    HW1 4715   0.669   4.647   1.414
 1477SOL    HW2 4716   0.672   4.486   1.434
 1478SOL     OW 4717   1.493   5.491   0.959
 1478SOL    HW1 4718   1.526   5.555   0.890
 1478SOL    HW2 4719   1.559   5.485   1.034
 1479SOL     OW 4720   0.716   4.289   1.708
 1479SOL    HW1 4721   0.735   4.354   1.782
 1479SOL    HW2 4722   0.776   4.209   1.717
 1480SOL     OW 4723   1.450   4.944   1.633
 1480SOL    HW1 4724   1.441   4.934   1.732
 1480SOL    HW2 4725   1.546   4.937   1.607
 1481SOL     OW 4726   0.390   5.465   1.560
 1481SOL    HW1 4727   0.299   5.506   1.558
 1481SOL    HW2 4728   0.383   5.371   1.592
 1482SOL     OW 4729   1.674   4.607   1.254
 1482SOL    HW1 4730   1.647   4.518   1.217
 1482SOL    HW2 4731   1.675   4.675   1.181
 1483SOL     OW 4732   1.225   4.049   0.449
 1483SOL    HW1 4733   1.290   3.975   0.438
 1483SOL    HW2 4734   1.245   4.099   0.533
 1484SOL     OW 4735   0.594   4.469   0.652
 1484SOL    HW1 4736   0.644   4.554   0.633
 1484SOL    HW2 4737   0.506   4.471   0.604
 1485SOL     OW 4738   1.777   4.066   1.642
 1485SOL    HW1 4739   1.760   4.097   1.548
 1485SOL    HW2 4740   1.693   4.029   1.680
 1486SOL     OW 4741   1.730   4.658   1.517
 1486SOL    HW1 4742   1.768   4.749   1.532
 1486SOL    HW2 4743   1.722   4.641   1.418
 1487SOL     OW 4744   0.859   5.098   0.016
 1487SOL    HW1 4745   0.813   5.113   0.104
 1487SOL    HW2 4746   0.903   5.183  -0.014
 1488SOL     OW 4747   0.661   5.514   0.953
 1488SOL    HW1 4748   0.615   5.602   0.940
 1488SOL    HW2 4749   0.760   5.526   0.946
 1489SOL     OW 4750   0.859   4.680   0.861
 1489SOL    HW1 4751   0.913   4.611   0.909
 1489SOL    HW2 4752   0.827   4.749   0.927
 1490SOL     OW 4753   1.083   4.708   0.087
 1490SOL    HW1 4754   1.060   4.761   0.005
 1490SOL    HW2 4755   1.164   4.652   0.068
 1491SOL     OW 4756   1.861   5.293   0.851
 1491SOL    HW1 4757   1.790   5.281   0.781
 1491SOL    HW2 4758   1.862   5.214   0.911
 1492SOL     OW 4759   0.221   5.038   1.844
 1492SOL    HW1 4760   0.156   4.965   1.823
 1492SOL    HW2 4761   0.225   5.052   1.942
 1493SOL     OW 4762   0.079   4.964   0.653
 1493SOL    HW1 4763   0.078   4.917   0.741
 1493SOL    HW2 4764   0.161   4.936   0.602
 1494SOL     OW 4765   0.672   5.115   1.624
 1494SOL    HW1 4766   0.594   5.065   1.662
 1494SOL    HW2 4767   0.669   5.210   1.655
 1495SOL     OW 4768   1.824   3.916   1.227
 1495SOL    HW1 4769   1.820   3.826   1.271
 1495SOL    HW2 4770   1.827   3.905   1.128
 1496SOL     OW 4771   0.428   4.148   0.520
 1496SOL    HW1 4772   0.458   4.076   0.458
 1496SOL    HW2 4773   0.389   4.108   0.603
 1497SOL     OW 4774   1.705   5.211   1.104
 1497SOL    HW1 4775   1.612   5.186   1.077
 1497SOL    HW2 4776   1.731   5.161   1.186
 1498SOL     OW 4777   0.317   4.271   1.280
 1498SOL    HW1 4778   0.355   4.212   1.352
 1498SOL    HW2 4779   0.357   4.245   1.192
 1499SOL     OW 4780   0.812   5.310   0.687
 1499SOL    HW1 4781   0.844   5.320   0.593
 1499SOL    HW2 4782   0.733   5.248   0.689
 1500SOL     OW 4783   1.424   3.938   1.112
 1500SOL    HW1 4784   1.476   3.873   1.167
 1500SOL    HW2 4785   1.375   4.001   1.173
 1501SOL     OW 4786   1.001   3.758   1.154
 1501SOL    HW1 4787   0.938   3.686   1.123
 1501SOL    HW2 4788   1.094   3.722   1.154
 1502SOL     OW 4789   0.770   5.054   0.301
 1502SOL    HW1 4790   0.724   4.967   0.318
 1502SOL    HW2 4791   0.861   5.051   0.342
 1503SOL     OW 4792   0.618   5.291   1.284
 1503SOL    HW1 4793   0.613   5.373   1.341
 1503SOL    HW2 4794   0.707   5.288   1.239
 1504SOL     OW 4795   1.352   3.776   0.168
 1504SOL    HW1 4796   1.387   3.735   0.084
 1504SOL    HW2 4797   1.262   3.738   0.188
 1505SOL     OW 4798   1.300   4.177   0.691
 1505SOL    HW1 4799   1.241   4.257   0.695
 1505SOL    HW2 4800   1.315   4.142   0.784
 1506SOL     OW 4801   1.593   3.945   0.882
 1506SOL    HW1 4802   1.509   3.944   0.936
 1506SOL    HW2 4803   1.595   4.028   0.826
 1507SOL     OW 4804   0.039   4.801   0.300
 1507SOL    HW1 4805   0.138   4.790   0.291
 1507SOL    HW2 4806  -0.001   4.715   0.332
 1508SOL     OW 4807   0.875   5.370   0.337
 1508SOL    HW1 4808   0.798   5.335   0.283
 1508SOL    HW2 4809   0.843   5.441   0.399
 1509SOL     OW 4810   0.230   4.352   1.975
 1509SOL    HW1 4811   0.137   4.350   2.012
 1509SOL    HW2 4812   0.231   4.313   1.883
 1510SOL     OW 4813   0.225   3.999   2.858
 1510SOL    HW1 4814   0.260   3.982   2.950
 1510SOL    HW2 4815   0.137   3.954   2.846
 1511SOL     OW 4816   0.019   4.092   2.509
 1511SOL    HW1 4817  -0.063   4.135   2.548
 1511SOL    HW2 4818  -0.009   4.019   2.446
 1512SOL     OW 4819   0.569   4.999   3.027
 1512SOL    HW1 4820   0.476   4.992   2.990
 1512SOL    HW2 4821   0.580   5.088   3.071
 1513SOL     OW 4822   1.555   5.235   2.565
 1513SOL    HW1 4823   1.498   5.219   2.646
 1513SOL    HW2 4824   1.496   5.245   2.485
 1514SOL     OW 4825   1.135   4.427   2.579
 1514SOL    HW1 4826   1.192   4.505   2.554
 1514SOL    HW2 4827   1.075   4.453   2.655
 1515SOL     OW 4828   1.755   4.331   2.093
 1515SOL    HW1 4829   1.743   4.318   1.994
 1515SOL    HW2 4830   1.725   4.250   2.142
 1516SOL     OW 4831   0.768   4.868   2.885
 1516SOL    HW1 4832   0.690   4.885   2.945
 1516SOL    HW2 4833   0.802   4.955   2.849
 1517SOL     OW 4834   0.850   4.522   3.685
 1517SOL    HW1 4835   0.846   4.598   3.750
 1517SOL    HW2 4836   0.872   4.558   3.594
 1518SOL     OW 4837   0.685   4.736   2.527
 1518SOL    HW1 4838   0.754   4.720   2.597
 1518SOL    HW2 4839   0.612   4.793   2.565
 1519SOL     OW 4840   0.686   4.885   3.665
 1519SOL    HW1 4841   0.746   4.964   3.679
 1519SOL    HW2 4842   0.600   4.916   3.624
 1520SOL     OW 4843   0.335   5.159   2.923
 1520SOL    HW1 4844   0.257   5.128   2.870
 1520SOL    HW2 4845   0.393   5.217   2.866
 1521SOL     OW 4846   1.460   5.229   3.201
 1521SOL    HW1 4847   1.484   5.323   3.227
 1521SOL    HW2 4848   1.444   5.175   3.283
 1522SOL     OW 4849   0.438   4.116   3.361
 1522SOL    HW1 4850   0.520   4.060   3.370
 1522SOL    HW2 4851   0.357   4.058   3.365
 1523SOL     OW 4852   1.603   4.171   2.599
 1523SOL    HW1 4853   1.529   4.217   2.549
 1523SOL    HW2 4854   1.654   4.239   2.652
 1524SOL     OW 4855   0.231   5.437   2.345
 1524SOL    HW1 4856   0.265   5.514   2.399
 1524SOL    HW2 4857   0.275   5.437   2.255
 1525SOL     OW 4858   1.127   5.065   3.552
 1525SOL    HW1 4859   1.174   5.065   3.640
 1525SOL    HW2 4860   1.079   4.978   3.541
 1526SOL     OW 4861   0.230   5.158   2.400
 1526SOL    HW1 4862   0.204   5.254   2.400
 1526SOL    HW2 4863   0.159   5.104   2.445
 1527SOL     OW 4864   0.240   4.815   2.748
 1527SOL    HW1 4865   0.254   4.731   2.800
 1527SOL    HW2 4866   0.185   4.879   2.803
 1528SOL     OW 4867   0.620   5.510   3.301
 1528SOL    HW1 4868   0.528   5.493   3.336
 1528SOL    HW2 4869   0.648   5.602   3.327
 1529SOL     OW 4870   0.606   4.688   1.985
 1529SOL    HW1 4871   0.613   4.772   1.931
 1529SOL    HW2 4872   0.652   4.701   2.073
 1530SOL     OW 4873   1.594   3.838   3.342
 1530SOL    HW1 4874   1.576   3.905   3.270
 1530SOL    HW2 4875   1.591   3.884   3.431
 1531SOL     OW 4876   0.122   4.367   2.425
 1531SOL    HW1 4877   0.077   4.279   2.442
 1531SOL    HW2 4878   0.121   4.421   2.509
 1532SOL     OW 4879   1.842   5.491   2.221
 1532SOL    HW1 4880   1.896   5.462   2.301
 1532SOL    HW2 4881   1.872   5.581   2.192
 1533SOL     OW 4882   0.027   5.320   1.979
 1533SOL    HW1 4883   0.008   5.224   2.000
 1533SOL    HW2 4884  -0.006   5.378   2.054
 1534SOL     OW 4885   1.689   4.646   2.474
 1534SOL    HW1 4886   1.784   4.617   2.482
 1534SOL    HW2 4887   1.681   4.711   2.399
 1535SOL     OW 4888   1.641   4.832   2.294
 1535SOL    HW1 4889   1.727   4.834   2.242
 1535SOL    HW2 4890   1.655   4.879   2.382
 1536SOL     OW 4891   0.113   4.461   3.459
 1536SOL    HW1 4892   0.201   4.448   3.504
 1536SOL    HW2 4893   0.100   4.558   3.437
 1537SOL     OW 4894   0.613   5.089   2.588
 1537SOL    HW1 4895   0.564   5.002   2.597
 1537SOL    HW2 4896   0.590   5.132   2.501
 1538SOL     OW 4897   1.293   4.952   3.285
 1538SOL    HW1 4898   1.330   4.879   3.227
 1538SOL    HW2 4899   1.345   4.957   3.370
 1539SOL     OW 4900   0.809   3.728   2.364
 1539SOL    HW1 4901   0.849   3.819   2.355
 1539SOL    HW2 4902   0.709   3.736   2.370
 1540SOL     OW 4903   0.197   4.700   3.126
 1540SOL    HW1 4904   0.286   4.655   3.112
 1540SOL    HW2 4905   0.124   4.635   3.107
 1541SOL     OW 4906   1.525   4.723   2.052
 1541SOL    HW1 4907   1.462   4.647   2.065
 1541SOL    HW2 4908   1.573   4.741   2.138
 1542SOL     OW 4909   1.187   5.516   3.478
 1542SOL    HW1 4910   1.211   5.576   3.402
 1542SOL    HW2 4911   1.194   5.421   3.448
 1543SOL     OW 4912   0.317   3.975   3.663
 1543SOL    HW1 4913   0.388   4.046   3.669
 1543SOL    HW2 4914   0.229   4.014   3.691
 1544SOL     OW 4915   1.466   5.141   2.815
 1544SOL    HW1 4916   1.407   5.147   2.895
 1544SOL    HW2 4917   1.451   5.053   2.769
 1545SOL     OW 4918   1.667   5.438   2.434
 1545SOL    HW1 4919   1.626   5.415   2.346
 1545SOL    HW2 4920   1.649   5.364   2.499
 1546SOL     OW 4921   0.598   4.453   2.132
 1546SOL    HW1 4922   0.622   4.522   2.064
 1546SOL    HW2 4923   0.520   4.486   2.186
 1547SOL     OW 4924   1.281   4.069   2.806
 1547SOL    HW1 4925   1.195   4.019   2.793
 1547SOL    HW2 4926   1.343   4.015   2.862
 1548SOL     OW 4927   1.576   5.386   2.169
 1548SOL    HW1 4928   1.665   5.432   2.172
 1548SOL    HW2 4929   1.555   5.362   2.074
 1549SOL     OW 4930   0.807   4.329   3.327
 1549SOL    HW1 4931   0.760   4.326   3.416
 1549SOL    HW2 4932   0.756   4.274   3.261
 1550SOL     OW 4933   1.394   4.193   3.536
 1550SOL    HW1 4934   1.374   4.236   3.624
 1550SOL    HW2 4935   1.472   4.131   3.545
 1551SOL     OW 4936   0.973   4.614   3.434
 1551SOL    HW1 4937   1.019   4.530   3.405
 1551SOL    HW2 4938   0.917   4.648   3.359
 1552SOL     OW 4939   0.991   4.134   3.104
 1552SOL    HW1 4940   0.914   4.168   3.158
 1552SOL    HW2 4941   0.957   4.083   3.025
 1553SOL     OW 4942   1.041   4.425   2.291
 1553SOL    HW1 4943   1.067   4.421   2.387
 1553SOL    HW2 4944   0.956   4.374   2.277
 1554SOL     OW 4945   0.076   4.535   2.651
 1554SOL    HW1 4946   0.175   4.523   2.660
 1554SOL    HW2 4947   0.052   4.630   2.672
 1555SOL     OW 4948   0.130   5.545   3.433
 1555SOL    HW1 4949   0.120   5.530   3.532
 1555SOL    HW2 4950   0.044   5.581   3.397
 1556SOL     OW 4951   0.865   4.072   2.057
 1556SOL    HW1 4952   0.924   4.135   2.008
 1556SOL    HW2 4953   0.884   3.978   2.028
 1557SOL     OW 4954   1.719   4.309   3.693
 1557SOL    HW1 4955   1.693   4.398   3.657
 1557SOL    HW2 4956   1.717   4.241   3.620
 1558SOL     OW 4957   1.362   4.868   2.407
 1558SOL    HW1 4958   1.445   4.839   2.359
 1558SOL    HW2 4959   1.313   4.935   2.351
 1559SOL     OW 4960   0.550   3.920   2.747
 1559SOL    HW1 4961   0.545   3.915   2.847
 1559SOL    HW2 4962   0.552   4.016   2.718
 1560SOL     OW 4963   1.008   5.180   2.339
 1560SOL    HW1 4964   0.962   5.252   2.287
 1560SOL    HW2 4965   1.004   5.200   2.437
 1561SOL     OW 4966   0.351   5.525   2.715
 1561SOL    HW1 4967   0.401   5.439   2.721
 1561SOL    HW2 4968   0.416   5.602   2.712
 1562SOL     OW 4969   1.795   4.790   2.735
 1562SOL    HW1 4970   1.733   4.775   2.659
 1562SOL    HW2 4971   1.743   4.801   2.820
 1563SOL     OW 4972   1.227   5.274   3.368
 1563SOL    HW1 4973   1.233   5.197   3.432
 1563SOL    HW2 4974   1.175   5.248   3.288
 1564SOL     OW 4975   0.321   4.667   2.104
 1564SOL    HW1 4976   0.403   4.706   2.062
 1564SOL    HW2 4977   0.294   4.585   2.055
 1565SOL     OW 4978   1.458   4.459   2.590
 1565SOL    HW1 4979   1.453   4.394   2.665
 1565SOL    HW2 4980   1.538   4.518   2.603
 1566SOL     OW 4981   0.461   4.990   3.589
 1566SOL    HW1 4982   0.411   4.991   3.503
 1566SOL    HW2 4983   0.398   4.972   3.665
 1567SOL     OW 4984   1.111   5.500   2.099
 1567SOL    HW1 4985   1.051   5.438   2.149
 1567SOL    HW2 4986   1.142   5.456   2.014
 1568SOL     OW 4987   0.202   4.009   3.360
 1568SOL    HW1 4988   0.122   4.069   3.347
 1568SOL    HW2 4989   0.192   3.960   3.446
 1569SOL     OW 4990   1.632   5.101   1.943
 1569SOL    HW1 4991   1.600   5.195   1.933
 1569SOL    HW2 4992   1.556   5.038   1.931
 1570SOL     OW 4993   0.464   5.467   2.185
 1570SOL    HW1 4994   0.497   5.506   2.271
 1570SOL    HW2 4995   0.540   5.460   2.120
 1571SOL     OW 4996   1.400   3.831   2.288
 1571SOL    HW1 4997   1.376   3.794   2.198
 1571SOL    HW2 4998   1.499   3.847   2.292
 1572SOL     OW 4999   0.249   5.509   3.103
 1572SOL    HW1 5000   0.306   5.444   3.153
 1572SOL    HW2 5001   0.233   5.476   3.010
 1573SOL     OW 5002   0.940   5.422   2.766
 1573SOL    HW1 5003   1.020   5.365   2.787
 1573SOL    HW2 5004   0.891   5.382   2.689
 1574SOL     OW 5005   0.382   4.424   2.342
 1574SOL    HW1 5006   0.427   4.334   2.339
 1574SOL    HW2 5007   0.288   4.413   2.375
 1575SOL     OW 5008   1.547   3.946   3.591
 1575SOL    HW1 5009   1.542   3.983   3.683
 1575SOL    HW2 5010   1.475   3.877   3.579
 1576SOL     OW 5011   0.614   3.846   1.979
 1576SOL    HW1 5012   0.712   3.824   1.986
 1576SOL    HW2 5013   0.583   3.829   1.886
 1577SOL     OW 5014   0.781   3.988   3.611
 1577SOL    HW1 5015   0.848   3.927   3.654
 1577SOL    HW2 5016   0.708   4.007   3.676
 1578SOL     OW 5017   0.888   5.238   3.057
 1578SOL    HW1 5018   0.865   5.213   2.963
 1578SOL    HW2 5019   0.949   5.169   3.096
 1579SOL     OW 5020   1.351   4.314   3.295
 1579SOL    HW1 5021   1.379   4.271   3.380
 1579SOL    HW2 5022   1.376   4.410   3.296
 1580SOL     OW 5023   0.803   5.126   2.786
 1580SOL    HW1 5024   0.893   5.140   2.744
 1580SOL    HW2 5025   0.732   5.128   2.715
 1581SOL     OW 5026   0.922   4.227   2.761
 1581SOL    HW1 5027   0.897   4.218   2.665
 1581SOL    HW2 5028   0.970   4.145   2.792
 1582SOL     OW 5029   0.539   3.788   2.374
 1582SOL    HW1 5030   0.458   3.789   2.432
 1582SOL    HW2 5031   0.542   3.871   2.319
 1583SOL     OW 5032   1.434   4.912   1.903
 1583SOL    HW1 5033   1.466   4.836   1.960
 1583SOL    HW2 5034   1.342   4.939   1.933
 1584SOL     OW 5035   0.297   3.759   2.033
 1584SOL    HW1 5036   0.346   3.843   2.012
 1584SOL    HW2 5037   0.359   3.694   2.078
 1585SOL     OW 5038   0.935   3.960   2.342
 1585SOL    HW1 5039   0.887   4.001   2.264
 1585SOL    HW2 5040   1.034   3.958   2.323
 1586SOL     OW 5041   1.076   4.407   3.326
 1586SOL    HW1 5042   0.996   4.346   3.329
 1586SOL    HW2 5043   1.157   4.354   3.302
 1587SOL     OW 5044   1.227   5.294   2.655
 1587SOL    HW1 5045   1.248   5.368   2.590
 1587SOL    HW2 5046   1.295   5.294   2.728
 1588SOL     OW 5047   0.459   4.876   2.603
 1588SOL    HW1 5048   0.388   4.849   2.668
 1588SOL    HW2 5049   0.433   4.848   2.510
 1589SOL     OW 5050   1.271   5.521   2.453
 1589SOL    HW1 5051   1.315   5.585   2.389
 1589SOL    HW2 5052   1.221   5.573   2.523
 1590SOL     OW 5053   1.032   4.273   1.878
 1590SOL    HW1 5054   0.991   4.355   1.839
 1590SOL    HW2 5055   1.096   4.299   1.951
 1591SOL     OW 5056   0.078   4.280   3.248
 1591SOL    HW1 5057   0.170   4.279   3.207
 1591SOL    HW2 5058   0.072   4.354   3.315
 1592SOL     OW 5059   0.561   3.946   3.009
 1592SOL    HW1 5060   0.599   3.862   3.046
 1592SOL    HW2 5061   0.473   3.965   3.053
 1593SOL     OW 5062   0.866   4.178   2.504
 1593SOL    HW1 5063   0.834   4.250   2.442
 1593SOL    HW2 5064   0.890   4.097   2.451
 1594SOL     OW 5065   1.017   3.763   2.615
 1594SOL    HW1 5066   0.945   3.768   2.546
 1594SOL    HW2 5067   0.993   3.694   2.684
 1595SOL     OW 5068   1.429   4.897   2.729
 1595SOL    HW1 5069   1.374   4.813   2.722
 1595SOL    HW2 5070   1.455   4.926   2.637
 1596SOL     OW 5071   1.466   4.314   2.854
 1596SOL    HW1 5072   1.436   4.219   2.861
 1596SOL    HW2 5073   1.539   4.330   2.920
 1597SOL     OW 5074   1.857   4.557   2.239
 1597SOL    HW1 5075   1.899   4.493   2.303
 1597SOL    HW2 5076   1.819   4.506   2.161
 1598SOL     OW 5077   0.488   5.109   2.036
 1598SOL    HW1 5078   0.401   5.094   2.083
 1598SOL    HW2 5079   0.471   5.135   1.941
 1599SOL     OW 5080   1.664   5.004   2.519
 1599SOL    HW1 5081   1.763   5.012   2.533
 1599SOL    HW2 5082   1.619   5.088   2.550
 1600SOL     OW 5083   1.390   4.299   1.940
 1600SOL    HW1 5084   1.336   4.278   2.021
 1600SOL    HW2 5085   1.481   4.258   1.949
 1601SOL     OW 5086   0.527   3.980   2.190
 1601SOL    HW1 5087   0.554   3.921   2.115
 1601SOL    HW2 5088   0.527   4.075   2.159
 1602SOL     OW 5089   1.754   4.947   3.450
 1602SOL    HW1 5090   1.845   4.908   3.437
 1602SOL    HW2 5091   1.762   5.043   3.474
 1603SOL     OW 5092   1.064   5.071   3.202
 1603SOL    HW1 5093   0.984   5.048   3.257
 1603SOL    HW2 5094   1.147   5.045   3.251
 1604SOL     OW 5095   1.592   5.353   3.487
 1604SOL    HW1 5096   1.619   5.387   3.397
 1604SOL    HW2 5097   1.671   5.315   3.533
 1605SOL     OW 5098   1.111   4.919   2.962
 1605SOL    HW1 5099   1.071   4.963   3.043
 1605SOL    HW2 5100   1.070   4.956   2.879
 1606SOL     OW 5101   1.638   4.823   2.941
 1606SOL    HW1 5102   1.643   4.904   3.000
 1606SOL    HW2 5103   1.552   4.825   2.890
 1607SOL     OW 5104   0.915   3.813   3.264
 1607SOL    HW1 5105   0.940   3.793   3.169
 1607SOL    HW2 5106   0.987   3.869   3.306
 1608SOL     OW 5107   0.980   4.840   3.581
 1608SOL    HW1 5108   0.881   4.846   3.591
 1608SOL    HW2 5109   1.003   4.760   3.525
 1609SOL     OW 5110   0.705   4.774   2.230
 1609SOL    HW1 5111   0.691   4.781   2.329
 1609SOL    HW2 5112   0.789   4.723   2.212
 1610SOL     OW 5113   0.410   4.537   3.113
 1610SOL    HW1 5114   0.496   4.549   3.163
 1610SOL    HW2 5115   0.368   4.450   3.140
 1611SOL     OW 5116   1.274   4.110   3.124
 1611SOL    HW1 5117   1.295   4.184   3.188
 1611SOL    HW2 5118   1.185   4.127   3.081
 1612SOL     OW 5119   0.064   5.288   3.193
 1612SOL    HW1 5120   0.018   5.370   3.159
 1612SOL    HW2 5121   0.162   5.307   3.202
 1613SOL     OW 5122   0.367   4.824   2.363
 1613SOL    HW1 5123   0.360   4.907   2.307
 1613SOL    HW2 5124   0.371   4.744   2.303
 1614SOL     OW 5125   0.566   4.261   2.727
 1614SOL    HW1 5126   0.578   4.327   2.653
 1614SOL    HW2 5127   0.612   4.295   2.810
 1615SOL     OW 5128   1.252   5.072   2.250
 1615SOL    HW1 5129   1.302   5.149   2.290
 1615SOL    HW2 5130   1.157   5.074   2.282
 1616SOL     OW 5131   1.272   5.169   3.004
 1616SOL    HW1 5132   1.319   5.182   3.091
 1616SOL    HW2 5133   1.206   5.095   3.013
 1617SOL     OW 5134   1.582   4.363   2.334
 1617SOL    HW1 5135   1.551   4.424   2.407
 1617SOL    HW2 5136   1.632   4.415   2.265
 1618SOL     OW 5137   0.354   5.234   3.191
 1618SOL    HW1 5138   0.333   5.190   3.104
 1618SOL    HW2 5139   0.451   5.260   3.194
 1619SOL     OW 5140   0.402   4.475   3.460
 1619SOL    HW1 5141   0.470   4.530   3.413
 1619SOL    HW2 5142   0.442   4.387   3.487
 1620SOL     OW 5143   1.587   4.503   3.532
 1620SOL    HW1 5144   1.495   4.541   3.527
 1620SOL    HW2 5145   1.647   4.550   3.467
 1621SOL     OW 5146   1.013   3.829   3.632
 1621SOL    HW1 5147   1.019   3.914   3.580
 1621SOL    HW2 5148   1.045   3.753   3.575
 1622SOL     OW 5149   0.504   3.774   3.602
 1622SOL    HW1 5150   0.462   3.717   3.532
 1622SOL    HW2 5151   0.438   3.843   3.634
 1623SOL     OW 5152   0.573   4.594   2.891
 1623SOL    HW1 5153   0.617   4.683   2.882
 1623SOL    HW2 5154   0.510   4.594   2.968
 1624SOL     OW 5155   1.360   4.586   2.907
 1624SOL    HW1 5156   1.285   4.586   2.841
 1624SOL    HW2 5157   1.397   4.494   2.916
 1625SOL     OW 5158   1.209   4.249   2.137
 1625SOL    HW1 5159   1.222   4.165   2.191
 1625SOL    HW2 5160   1.180   4.323   2.197
 1626SOL     OW 5161   0.307   3.937   3.093
 1626SOL    HW1 5162   0.284   3.974   3.183
 1626SOL    HW2 5163   0.277   3.842   3.087
 1627SOL     OW 5164   0.037   5.034   3.144
 1627SOL    HW1 5165   0.090   4.985   3.212
 1627SOL    HW2 5166   0.059   5.132   3.149
 1628SOL     OW 5167   0.732   4.358   2.926
 1628SOL    HW1 5168   0.791   4.332   2.850
 1628SOL    HW2 5169   0.704   4.454   2.915
 1629SOL     OW 5170   1.728   4.659   3.716
 1629SOL    HW1 5171   1.682   4.652   3.627
 1629SOL    HW2 5172   1.666   4.703   3.782
 1630SOL     OW 5173   0.307   3.787   2.480
 1630SOL    HW1 5174   0.296   3.881   2.513
 1630SOL    HW2 5175   0.302   3.724   2.557
 1631SOL     OW 5176   1.622   4.091   2.236
 1631SOL    HW1 5177   1.624   4.015   2.300
 1631SOL    HW2 5178   1.574   4.168   2.276
 1632SOL     OW 5179   1.023   4.490   2.828
 1632SOL    HW1 5180   1.038   4.511   2.924
 1632SOL    HW2 5181   0.993   4.395   2.819
 1633SOL     OW 5182   0.980   5.297   3.562
 1633SOL    HW1 5183   0.960   5.341   3.474
 1633SOL    HW2 5184   1.019   5.206   3.546
 1634SOL     OW 5185   1.859   5.242   3.467
 1634SOL    HW1 5186   1.873   5.269   3.372
 1634SOL    HW2 5187   1.942   5.264   3.520
 1635SOL     OW 5188   0.350   4.622   3.666
 1635SOL    HW1 5189   0.426   4.666   3.714
 1635SOL    HW2 5190   0.385   4.575   3.584
 1636SOL     OW 5191   1.540   3.998   1.987
 1636SOL    HW1 5192   1.479   3.923   2.010
 1636SOL    HW2 5193   1.562   4.050   2.070
 1637SOL     OW 5194   1.303   4.562   1.904
 1637SOL    HW1 5195   1.337   4.469   1.919
 1637SOL    HW2 5196   1.321   4.589   1.809
 1638SOL     OW 5197   1.068   5.057   2.711
 1638SOL    HW1 5198   1.075   4.973   2.656
 1638SOL    HW2 5199   1.130   5.126   2.675
 1639SOL     OW 5200   0.319   4.534   2.811
 1639SOL    HW1 5201   0.412   4.570   2.816
 1639SOL    HW2 5202   0.313   4.449   2.863
 1640SOL     OW 5203   0.339   4.233   2.868
 1640SOL    HW1 5204   0.287   4.150   2.851
 1640SOL    HW2 5205   0.416   4.238   2.804
 1641SOL     OW 5206   1.138   4.104   3.540
 1641SOL    HW1 5207   1.093   4.167   3.604
 1641SOL    HW2 5208   1.231   4.135   3.523
 1642SOL     OW 5209   1.160   3.931   3.339
 1642SOL    HW1 5210   1.160   3.995   3.416
 1642SOL    HW2 5211   1.188   3.979   3.256
 1643SOL     OW 5212   0.008   5.050   2.062
 1643SOL    HW1 5213  -0.085   5.071   2.031
 1643SOL    HW2 5214   0.018   4.951   2.075
 1644SOL     OW 5215   0.088   5.525   2.789
 1644SOL    HW1 5216   0.046   5.439   2.762
 1644SOL    HW2 5217   0.182   5.528   2.755
 1645SOL     OW 5218   0.504   5.292   2.772
 1645SOL    HW1 5219   0.570   5.366   2.781
 1645SOL    HW2 5220   0.548   5.213   2.730
 1646SOL     OW 5221   1.002   4.520   3.100
 1646SOL    HW1 5222   1.043   4.488   3.186
 1646SOL    HW2 5223   0.906   4.493   3.097
 1647SOL     OW 5224   0.040   4.268   2.976
 1647SOL    HW1 5225   0.125   4.235   2.935
 1647SOL    HW2 5226   0.053   4.283   3.074
 1648SOL     OW 5227   0.189   4.244   3.584
 1648SOL    HW1 5228   0.248   4.204   3.514
 1648SOL    HW2 5229   0.131   4.315   3.543
 1649SOL     OW 5230   1.369   4.674   3.522
 1649SOL    HW1 5231   1.408   4.763   3.542
 1649SOL    HW2 5232   1.379   4.654   3.425
 1650SOL     OW 5233   0.815   4.296   2.187
 1650SOL    HW1 5234   0.822   4.207   2.141
 1650SOL    HW2 5235   0.721   4.330   2.179
 1651SOL     OW 5236   1.657   4.328   3.068
 1651SOL    HW1 5237   1.619   4.259   3.130
 1651SOL    HW2 5238   1.739   4.292   3.024
 1652SOL     OW 5239   0.252   5.288   3.606
 1652SOL    HW1 5240   0.222   5.345   3.682
 1652SOL    HW2 5241   0.245   5.191   3.632
 1653SOL     OW 5242   0.671   4.188   3.131
 1653SOL    HW1 5243   0.637   4.099   3.101
 1653SOL    HW2 5244   0.697   4.242   3.051
 1654SOL     OW 5245   0.930   5.402   3.327
 1654SOL    HW1 5246   0.906   5.384   3.232
 1654SOL    HW2 5247   0.960   5.496   3.337
 1655SOL     OW 5248   0.473   4.224   2.053
 1655SOL    HW1 5249   0.534   4.304   2.057
 1655SOL    HW2 5250   0.378   4.255   2.060
 1656SOL     OW 5251   0.159   4.861   3.328
 1656SOL    HW1 5252   0.181   4.800   3.404
 1656SOL    HW2 5253   0.169   4.812   3.242
 1657SOL     OW 5254   1.347   4.783   3.096
 1657SOL    HW1 5255   1.371   4.720   3.022
 1657SOL    HW2 5256   1.257   4.823   3.078
 1658SOL     OW 5257   1.302   4.579   2.171
 1658SOL    HW1 5258   1.216   4.548   2.213
 1658SOL    HW2 5259   1.298   4.565   2.072
 1659SOL     OW 5260   1.759   5.471   3.016
 1659SOL    HW1 5261   1.820   5.501   2.943
 1659SOL    HW2 5262   1.721   5.382   2.994
 1660SOL     OW 5263   1.252   5.455   2.990
 1660SOL    HW1 5264   1.336   5.460   2.936
 1660SOL    HW2 5265   1.229   5.359   3.008
 1661SOL     OW 5266   0.083   4.982   2.884
 1661SOL    HW1 5267   0.078   4.981   2.984
 1661SOL    HW2 5268   0.000   4.941   2.846
 1662SOL     OW 5269   0.688   5.386   3.578
 1662SOL    HW1 5270   0.632   5.467   3.587
 1662SOL    HW2 5271   0.740   5.390   3.492
 1663SOL     OW 5272   1.726   3.859   2.385
 1663SOL    HW1 5273   1.799   3.842   2.318
 1663SOL    HW2 5274   1.695   3.772   2.423
 1664SOL     OW 5275   1.388   5.297   2.339
 1664SOL    HW1 5276   1.455   5.309   2.265
 1664SOL    HW2 5277   1.348   5.386   2.362
 1665SOL     OW 5278   0.130   5.518   3.713
 1665SOL    HW1 5279   0.089   5.444   3.766
 1665SOL    HW2 5280   0.194   5.569   3.771
 1666SOL     OW 5281   1.280   4.651   2.534
 1666SOL    HW1 5282   1.340   4.570   2.536
 1666SOL    HW2 5283   1.320   4.720   2.474
 1667SOL     OW 5284   0.830   4.997   3.284
 1667SOL    HW1 5285   0.825   5.030   3.379
 1667SOL    HW2 5286   0.744   5.016   3.238
 1668SOL     OW 5287   0.672   5.340   2.016
 1668SOL    HW1 5288   0.681   5.350   1.917
 1668SOL    HW2 5289   0.632   5.251   2.037
 1669SOL     OW 5290   1.650   5.444   3.256
 1669SOL    HW1 5291   1.703   5.454   3.172
 1669SOL    HW2 5292   1.623   5.534   3.290
 1670SOL     OW 5293   1.841   3.899   2.825
 1670SOL    HW1 5294   1.880   3.814   2.789
 1670SOL    HW2 5295   1.743   3.901   2.806
 1671SOL     OW 5296   0.263   4.050   2.582
 1671SOL    HW1 5297   0.184   4.101   2.548
 1671SOL    HW2 5298   0.254   4.035   2.680
 1672SOL     OW 5299   1.194   5.336   1.893
 1672SOL    HW1 5300   1.200   5.243   1.930
 1672SOL    HW2 5301   1.135   5.336   1.813
 1673SOL     OW 5302   0.822   4.726   3.234
 1673SOL    HW1 5303   0.862   4.725   3.142
 1673SOL    HW2 5304   0.832   4.818   3.274
 1674SOL     OW 5305   0.916   4.634   2.153
 1674SOL    HW1 5306   0.979   4.672   2.085
 1674SOL    HW2 5307   0.956   4.551   2.192
 1675SOL     OW 5308   1.504   5.331   1.906
 1675SOL    HW1 5309   1.412   5.368   1.913
 1675SOL    HW2 5310   1.542   5.351   1.816
 1676SOL     OW 5311   0.372   5.012   3.352
 1676SOL    HW1 5312   0.359   5.105   3.318
 1676SOL    HW2 5313   0.288   4.960   3.339
 1677SOL     OW 5314   1.614   5.016   3.151
 1677SOL    HW1 5315   1.674   5.019   3.231
 1677SOL    HW2 5316   1.539   5.080   3.164
 1678SOL     OW 5317   1.039   4.822   2.558
 1678SOL    HW1 5318   0.969   4.775   2.612
 1678SOL    HW2 5319   1.098   4.754   2.515
 1679SOL     OW 5320   1.014   3.960   2.833
 1679SOL    HW1 5321   1.006   3.924   2.740
 1679SOL    HW2 5322   1.012   3.884   2.898
 1680SOL     OW 5323   0.590   5.211   2.353
 1680SOL    HW1 5324   0.632   5.153   2.283
 1680SOL    HW2 5325   0.546   5.290   2.309
 1681SOL     OW 5326   1.709   4.109   3.243
 1681SOL    HW1 5327   1.782   4.178   3.247
 1681SOL    HW2 5328   1.737   4.034   3.184
 1682SOL     OW 5329   0.255   5.072   2.152
 1682SOL    HW1 5330   0.159   5.073   2.125
 1682SOL    HW2 5331   0.267   5.125   2.236
 1683SOL     OW 5332   0.105   4.737   3.588
 1683SOL    HW1 5333   0.028   4.704   3.642
 1683SOL    HW2 5334   0.190   4.707   3.630
 1684SOL     OW 5335   0.672   3.927   3.351
 1684SOL    HW1 5336   0.762   3.911   3.311
 1684SOL    HW2 5337   0.680   3.932   3.450
 1685SOL     OW 5338   0.075   4.069   1.895
 1685SOL    HW1 5339  -0.017   4.041   1.866
 1685SOL    HW2 5340   0.106   4.146   1.839
 1686SOL     OW 5341   1.440   4.580   3.260
 1686SOL    HW1 5342   1.383   4.632   3.197
 1686SOL    HW2 5343   1.536   4.592   3.236
 1687SOL     OW 5344   0.072   3.890   2.180
 1687SOL    HW1 5345   0.055   3.973   2.126
 1687SOL    HW2 5346   0.162   3.853   2.158
 1688SOL     OW 5347   1.183   5.059   1.981
 1688SOL    HW1 5348   1.084   5.048   1.983
 1688SOL    HW2 5349   1.217   5.074   2.074
 1689SOL     OW 5350   0.613   4.566   3.293
 1689SOL    HW1 5351   0.669   4.647   3.276
 1689SOL    HW2 5352   0.672   4.486   3.296
 1690SOL     OW 5353   1.493   5.491   2.821
 1690SOL    HW1 5354   1.526   5.555   2.752
 1690SOL    HW2 5355   1.559   5.485   2.896
 1691SOL     OW 5356   0.716   4.289   3.570
 1691SOL    HW1 5357   0.735   4.354   3.644
 1691SOL    HW2 5358   0.776   4.209   3.579
 1692SOL     OW 5359   1.450   4.944   3.495
 1692SOL    HW1 5360   1.441   4.934   3.594
 1692SOL    HW2 5361   1.546   4.937   3.469
 1693SOL     OW 5362   0.390   5.465   3.422
 1693SOL    HW1 5363   0.299   5.506   3.420
 1693SOL    HW2 5364   0.383   5.371   3.454
 1694SOL     OW 5365   1.674   4.607   3.116
 1694SOL    HW1 5366   1.647   4.518   3.079
 1694SOL    HW2 5367   1.675   4.675   3.043
 1695SOL     OW 5368   1.225   4.049   2.311
 1695SOL    HW1 5369   1.290   3.975   2.300
 1695SOL    HW2 5370   1.245   4.099   2.395
 1696SOL     OW 5371   0.594   4.469   2.514
 1696SOL    HW1 5372   0.644   4.554   2.495
 1696SOL    HW2 5373   0.506   4.471   2.466
 1697SOL     OW 5374   1.777   4.066   3.504
 1697SOL    HW1 5375   1.760   4.097   3.410
 1697SOL    HW2 5376   1.693   4.029   3.542
 1698SOL     OW 5377   1.730   4.658   3.379
 1698SOL    HW1 5378   1.768   4.749   3.394
 1698SOL    HW2 5379   1.722   4.641   3.280
 1699SOL     OW 5380   0.859   5.098   1.878
 1699SOL    HW1 5381   0.813   5.113   1.966
 1699SOL    HW2 5382   0.903   5.183   1.848
 1700SOL     OW 5383   0.661   5.514   2.815
 1700SOL    HW1 5384   0.615   5.602   2.802
 1700SOL    HW2 5385   0.760   5.526   2.808
 1701SOL     OW 5386   0.859   4.680   2.723
 1701SOL    HW1 5387   0.913   4.611   2.771
 1701SOL    HW2 5388   0.827   4.749   2.789
 1702SOL     OW 5389   1.083   4.708   1.949
 1702SOL    HW1 5390   1.060   4.761   1.867
 1702SOL    HW2 5391   1.164   4.652   1.930
 1703SOL     OW 5392   1.861   5.293   2.713
 1703SOL    HW1 5393   1.790   5.281   2.643
 1703SOL    HW2 5394   1.862   5.214   2.773
 1704SOL     OW 5395   0.221   5.038   3.706
 1704SOL    HW1 5396   0.156   4.965   3.685
 1704SOL    HW2 5397   0.225   5.052   3.804
 1705SOL     OW 5398   0.079   4.964   2.515
 1705SOL    HW1 5399   0.078   4.917   2.603
 1705SOL    HW2 5400   0.161   4.936   2.464
 1706SOL     OW 5401   0.672   5.115   3.486
 1706SOL    HW1 5402   0.594   5.065   3.524
 1706SOL    HW2 5403   0.669   5.210   3.517
 1707SOL     OW 5404   1.824   3.916   3.089
 1707SOL    HW1 5405   1.820   3.826   3.133
 1707SOL    HW2 5406   1.827   3.905   2.990
 1708SOL     OW 5407   0.428   4.148   2.382
 1708SOL    HW1 5408   0.458   4.076   2.320
 1708SOL    HW2 5409   0.389   4.108   2.465
 1709SOL     OW 5410   1.705   5.211   2.966
 1709SOL    HW1 5411   1.612   5.186   2.939
 1709SOL    HW2 5412   1.731   5.161   3.048
 1710SOL     OW 5413   0.317   4.271   3.142
 1710SOL    HW1 5414   0.355   4.212   3.214
 1710SOL    HW2 5415   0.357   4.245   3.054
 1711SOL     OW 5416   0.812   5.310   2.549
 1711SOL    HW1 5417   0.844   5.320   2.455
 1711SOL    HW2 5418   0.733   5.248   2.551
 1712SOL     OW 5419   1.424   3.938   2.974
 1712SOL    HW1 5420   1.476   3.873   3.029
 1712SOL    HW2 5421   1.375   4.001   3.035
 1713SOL     OW 5422   1.001   3.758   3.016
 1713SOL    HW1 5423   0.938   3.686   2.985
 1713SOL    HW2 5424   1.094   3.722   3.016
 1714SOL     OW 5425   0.770   5.054   2.163
 1714SOL    HW1 5426   0.724   4.967   2.180
 1714SOL    HW2 5427   0.861   5.051   2.204
 1715SOL     OW 5428   0.618   5.291   3.146
 1715SOL    HW1 5429   0.613   5.373   3.203
 1715SOL    HW2 5430   0.707   5.288   3.101
 1716SOL     OW 5431   1.352   3.776   2.030
 1716SOL    HW1 5432   1.387   3.735   1.946
 1716SOL    HW2 5433   1.262   3.738   2.050
 1717SOL     OW 5434   1.300   4.177   2.553
 1717SOL    HW1 5435   1.241   4.257   2.557
 1717SOL    HW2 5436   1.315   4.142   2.646
 1718SOL     OW 5437   1.593   3.945   2.744
 1718SOL    HW1 5438   1.509   3.944   2.798
 1718SOL    HW2 5439   1.595   4.028   2.688
 1719SOL     OW 5440   0.039   4.801   2.162
 1719SOL    HW1 5441   0.138   4.790   2.153
 1719SOL    HW2 5442  -0.001   4.715   2.194
 1720SOL     OW 5443   0.875   5.370   2.199
 1720SOL    HW1 5444   0.798   5.335   2.145
 1720SOL    HW2 5445   0.843   5.441   2.261
 1721SOL     OW 5446   0.230   4.352   3.837
 1721SOL    HW1 5447   0.137   4.350   3.874
 1721SOL    HW2 5448   0.231   4.313   3.745
 1722SOL     OW 5449   0.225   3.999   4.720
 1722SOL    HW1 5450   0.260   3.982   4.812
 1722SOL    HW2 5451   0.137   3.954   4.708
 1723SOL     OW 5452   0.019   4.092   4.371
 1723SOL    HW1 5453  -0.063   4.135   4.410
 1723SOL    HW2 5454  -0.009   4.019   4.308
 1724SOL     OW 5455   0.569   4.999   4.889
 1724SOL    HW1 5456   0.476   4.992   4.852
 1724SOL    HW2 5457   0.580   5.088   4.933
 1725SOL     OW 5458   1.555   5.235   4.427
 1725SOL    HW1 5459   1.498   5.219   4.508
 1725SOL    HW2 5460   1.496   5.245   4.347
 1726SOL     OW 5461   1.135   4.427   4.441
 1726SOL    HW1 5462   1.192   4.505   4.416
 1726SOL    HW2 5463   1.075   4.453   4.517
 1727SOL     OW 5464   1.755   4.331   3.955
 1727SOL    HW1 5465   1.743   4.318   3.856
 1727SOL    HW2 5466   1.725   4.250   4.004
 1728SOL     OW 5467   0.768   4.868   4.747
 1728SOL    HW1 5468   0.690   4.885   4.807
 1728SOL    HW2 5469   0.802   4.955   4.711
 1729SOL     OW 5470   0.850   4.522   5.547
 1729SOL    HW1 5471   0.846   4.598   5.612
 1729SOL    HW2 5472   0.872   4.558   5.456
 1730SOL     OW 5473   0.685   4.736   4.389
 1730SOL    HW1 5474   0.754   4.720   4.459
 1730SOL    HW2 5475   0.612   4.793   4.427
 1731SOL     OW 5476   0.686   4.885   5.527
 1731SOL    HW1 5477   0.746   4.964   5.541
 1731SOL    HW2 5478   0.600   4.916   5.486
 1732SOL     OW 5479   0.335   5.159   4.785
 1732SOL    HW1 5480   0.257   5.128   4.732
 1732SOL    HW2 5481   0.393   5.217   4.728
 1733SOL     OW 5482   1.460   5.229   5.063
 1733SOL    HW1 5483   1.484   5.323   5.089
 1733SOL    HW2 5484   1.444   5.175   5.145
 1734SOL     OW 5485   0.438   4.116   5.223
 1734SOL    HW1 5486   0.520   4.060   5.232
 1734SOL    HW2 5487   0.357   4.058   5.227
 1735SOL     OW 5488   1.603   4.171   4.461
 1735SOL    HW1 5489   1.529   4.217   4.411
 1735SOL    HW2 5490   1.654   4.239   4.514
 1736SOL     OW 5491   0.231   5.437   4.207
 1736SOL    HW1 5492   0.265   5.514   4.261
 1736SOL    HW2 5493   0.275   5.437   4.117
 1737SOL     OW 5494   1.127   5.065   5.414
 1737SOL    HW1 5495   1.174   5.065   5.502
 1737SOL    HW2 5496   1.079   4.978   5.403
 1738SOL     OW 5497   0.230   5.158   4.262
 1738SOL    HW1 5498   0.204   5.254   4.262
 1738SOL    HW2 5499   0.159   5.104   4.307
 1739SOL     OW 5500   0.240   4.815   4.610
 1739SOL    HW1 5501   0.254   4.731   4.662
 1739SOL    HW2 5502   0.185   4.879   4.665
 1740SOL     OW 5503   0.620   5.510   5.163
 1740SOL    HW1 5504   0.528   5.493   5.198
 1740SOL    HW2 5505   0.648   5.602   5.189
 1741SOL     OW 5506   0.606   4.688   3.847
 1741SOL    HW1 5507   0.613   4.772   3.793
 1741SOL    HW2 5508   0.652   4.701   3.935
 1742SOL     OW 5509   1.594   3.838   5.204
 1742SOL    HW1 5510   1.576   3.905   5.132
 1742SOL    HW2 5511   1.591   3.884   5.293
 1743SOL     OW 5512   0.122   4.367   4.287
 1743SOL    HW1 5513   0.077   4.279   4.304
 1743SOL    HW2 5514   0.121   4.421   4.371
 1744SOL     OW 5515   1.842   5.491   4.083
 1744SOL    HW1 5516   1.896   5.462   4.163
 1744SOL    HW2 5517   1.872   5.581   4.054
 1745SOL     OW 5518   0.027   5.320   3.841
 1745SOL    HW1 5519   0.008   5.224   3.862
 1745SOL    HW2 5520  -0.006   5.378   3.916
 1746SOL     OW 5521   1.689   4.646   4.336
 1746SOL    HW1 5522   1.784   4.617   4.344
 1746SOL    HW2 5523   1.681   4.711   4.261
 1747SOL     OW 5524   1.641   4.832   4.156
 1747SOL    HW1 5525   1.727   4.834   4.104
 1747SOL    HW2 5526   1.655   4.879   4.244
 1748SOL     OW 5527   0.113   4.461   5.321
 1748SOL    HW1 5528   0.201   4.448   5.366
 1748SOL    HW2 5529   0.100   4.558   5.299
 1749SOL     OW 5530   0.613   5.089   4.450
 1749SOL    HW1 5531   0.564   5.002   4.459
 1749SOL    HW2 5532   0.590   5.132   4.363
 1750SOL     OW 5533   1.293   4.952   5.147
 1750SOL    HW1 5534   1.330   4.879   5.089
 1750SOL    HW2 5535   1.345   4.957   5.232
 1751SOL     OW 5536   0.809   3.728   4.226
 1751SOL    HW1 5537   0.849   3.819   4.217
 1751SOL    HW2 5538   0.709   3.736   4.232
 1752SOL     OW 5539   0.197   4.700   4.988
 1752SOL    HW1 5540   0.286   4.655   4.974
 1752SOL    HW2 5541   0.124   4.635   4.969
 1753SOL     OW 5542   1.525   4.723   3.914
 1753SOL    HW1 5543   1.462   4.647   3.927
 1753SOL    HW2 5544   1.573   4.741   4.000
 1754SOL     OW 5545   1.187   5.516   5.340
 1754SOL    HW1 5546   1.211   5.576   5.264
 1754SOL    HW2 5547   1.194   5.421   5.310
 1755SOL     OW 5548   0.317   3.975   5.525
 1755SOL    HW1 5549   0.388   4.046   5.531
 1755SOL    HW2 5550   0.229   4.014   5.553
 1756SOL     OW 5551   1.466   5.141   4.677
 1756SOL    HW1 5552   1.407   5.147   4.757
 1756SOL    HW2 5553   1.451   5.053   4.631
 1757SOL     OW 5554   1.667   5.438   4.296
 1757SOL    HW1 5555   1.626   5.415   4.208
 1757SOL    HW2 5556   1.649   5.364   4.361
 1758SOL     OW 5557   0.598   4.453   3.994
 1758SOL    HW1 5558   0.622   4.522   3.926
 1758SOL    HW2 5559   0.520   4.486   4.048
 1759SOL     OW 5560   1.281   4.069   4.668
 1759SOL    HW1 5561   1.195   4.019   4.655
 1759SOL    HW2 5562   1.343   4.015   4.724
 1760SOL     OW 5563   1.576   5.386   4.031
 1760SOL    HW1 5564   1.665   5.432   4.034
 1760SOL    HW2 5565   1.555   5.362   3.936
 1761SOL     OW 5566   0.807   4.329   5.189
 1761SOL    HW1 5567   0.760   4.326   5.278
 1761SOL    HW2 5568   0.756   4.274   5.123
 1762SOL     OW 5569   1.394   4.193   5.398
 1762SOL    HW1 5570   1.374   4.236   5.486
 1762SOL    HW2 5571   1.472   4.131   5.407
 1763SOL     OW 5572   0.973   4.614   5.296
 1763SOL    HW1 5573   1.019   4.530   5.267
 1763SOL    HW2 5574   0.917   4.648   5.221
 1764SOL     OW 5575   0.991   4.134   4.966
 1764SOL    HW1 5576   0.914   4.168   5.020
 1764SOL    HW2 5577   0.957   4.083   4.887
 1765SOL     OW 5578   1.041   4.425   4.153
 1765SOL    HW1 5579   1.067   4.421   4.249
 1765SOL    HW2 5580   0.956   4.374   4.139
 1766SOL     OW 5581   0.076   4.535   4.513
 1766SOL    HW1 5582   0.175   4.523   4.522
 1766SOL    HW2 5583   0.052   4.630   4.534
 1767SOL     OW 5584   0.130   5.545   5.295
 1767SOL    HW1 5585   0.120   5.530   5.394
 1767SOL    HW2 5586   0.044   5.581   5.259
 1768SOL     OW 5587   0.865   4.072   3.919
 1768SOL    HW1 5588   0.924   4.135   3.870
 1768SOL    HW2 5589   0.884   3.978   3.890
 1769SOL     OW 5590   1.719   4.309   5.555
 1769SOL    HW1 5591   1.693   4.398   5.519
 1769SOL    HW2 5592   1.717   4.241   5.482
 1770SOL     OW 5593   1.362   4.868   4.269
 1770SOL    HW1 5594   1.445   4.839   4.221
 1770SOL    HW2 5595   1.313   4.935   4.213
 1771SOL     OW 5596   0.550   3.920   4.609
 1771SOL    HW1 5597   0.545   3.915   4.709
 1771SOL    HW2 5598   0.552   4.016   4.580
 1772SOL     OW 5599   1.008   5.180   4.201
 1772SOL    HW1 5600   0.962   5.252   4.149
 1772SOL    HW2 5601   1.004   5.200   4.299
 1773SOL     OW 5602   0.351   5.525   4.577
 1773SOL    HW1 5603   0.401   5.439   4.583
 1773SOL    HW2 5604   0.416   5.602   4.574
 1774SOL     OW 5605   1.795   4.790   4.597
 1774SOL    HW1 5606   1.733   4.775   4.521
 1774SOL    HW2 5607   1.743   4.801   4.682
 1775SOL     OW 5608   1.227   5.274   5.230
 1775SOL    HW1 5609   1.233   5.197   5.294
 1775SOL    HW2 5610   1.175   5.248   5.150
 1776SOL     OW 5611   0.321   4.667   3.966
 1776SOL    HW1 5612   0.403   4.706   3.924
 1776SOL    HW2 5613   0.294   4.585   3.917
 1777SOL     OW 5614   1.458   4.459   4.452
 1777SOL    HW1 5615   1.453   4.394   4.527
 1777SOL    HW2 5616   1.538   4.518   4.465
 1778SOL     OW 5617   0.461   4.990   5.451
 1778SOL    HW1 5618   0.411   4.991   5.365
 1778SOL    HW2 5619   0.398   4.972   5.527
 1779SOL     OW 5620   1.111   5.500   3.961
 1779SOL    HW1 5621   1.051   5.438   4.011
 1779SOL    HW2 5622   1.142   5.456   3.876
 1780SOL     OW 5623   0.202   4.009   5.222
 1780SOL    HW1 5624   0.122   4.069   5.209
 1780SOL    HW2 5625   0.192   3.960   5.308
 1781SOL     OW 5626   1.632   5.101   3.805
 1781SOL    HW1 5627   1.600   5.195   3.795
 1781SOL    HW2 5628   1.556   5.038   3.793
 1782SOL     OW 5629   0.464   5.467   4.047
 1782SOL    HW1 5630   0.497   5.506   4.133
 1782SOL    HW2 5631   0.540   5.460   3.982
 1783SOL     OW 5632   1.400   3.831   4.150
 1783SOL    HW1 5633   1.376   3.794   4.060
 1783SOL    HW2 5634   1.499   3.847   4.154
 1784SOL     OW 5635   0.249   5.509   4.965
 1784SOL    HW1 5636   0.306   5.444   5.015
 1784SOL    HW2 5637   0.233   5.476   4.872
 1785SOL     OW 5638   0.940   5.422   4.628
 1785SOL    HW1 5639   1.020   5.365   4.649
 1785SOL    HW2 5640   0.891   5.382   4.551
 1786SOL     OW 5641   0.382   4.424   4.204
 1786SOL    HW1 5642   0.427   4.334   4.201
 1786SOL    HW2 5643   0.288   4.413   4.237
 1787SOL     OW 5644   1.547   3.946   5.453
 1787SOL    HW1 5645   1.542   3.983   5.545
 1787SOL    HW2 5646   1.475   3.877   5.441
 1788SOL     OW 5647   0.614   3.846   3.841
 1788SOL    HW1 5648   0.712   3.824   3.848
 1788SOL    HW2 5649   0.583   3.829   3.748
 1789SOL     OW 5650   0.781   3.988   5.473
 1789SOL    HW1 5651   0.848   3.927   5.516
 1789SOL    HW2 5652   0.708   4.007   5.538
 1790SOL     OW 5653   0.888   5.238   4.919
 1790SOL    HW1 5654   0.865   5.213   4.825
 1790SOL    HW2 5655   0.949   5.169   4.958
 1791SOL     OW 5656   1.351   4.314   5.157
 1791SOL    HW1 5657   1.379   4.271   5.242
 1791SOL    HW2 5658   1.376   4.410   5.158
 1792SOL     OW 5659   0.803   5.126   4.648
 1792SOL    HW1 5660   0.893   5.140   4.606
 1792SOL    HW2 5661   0.732   5.128   4.577
 1793SOL     OW 5662   0.922   4.227   4.623
 1793SOL    HW1 5663   0.897   4.218   4.527
 1793SOL    HW2 5664   0.970   4.145   4.654
 1794SOL     OW 5665   0.539   3.788   4.236
 1794SOL    HW1 5666   0.458   3.789   4.294
 1794SOL    HW2 5667   0.542   3.871   4.181
 1795SOL     OW 5668   1.434   4.912   3.765
 1795SOL    HW1 5669   1.466   4.836   3.822
 1795SOL    HW2 5670   1.342   4.939   3.795
 1796SOL     OW 5671   0.297   3.759   3.895
 1796SOL    HW1 5672   0.346   3.843   3.874
 1796SOL    HW2 5673   0.359   3.694   3.940
 1797SOL     OW 5674   0.935   3.960   4.204
 1797SOL    HW1 5675   0.887   4.001   4.126
 1797SOL    HW2 5676   1.034   3.958   4.185
 1798SOL     OW 5677   1.076   4.407   5.188
 1798SOL    HW1 5678   0.996   4.346   5.191
 1798SOL    HW2 5679   1.157   4.354   5.164
 1799SOL     OW 5680   1.227   5.294   4.517
 1799SOL    HW1 5681   1.248   5.368   4.452
 1799SOL    HW2 5682   1.295   5.294   4.590
 1800SOL     OW 5683   0.459   4.876   4.465
 1800SOL    HW1 5684   0.388   4.849   4.530
 1800SOL    HW2 5685   0.433   4.848   4.372
 1801SOL     OW 5686   1.271   5.521   4.315
 1801SOL    HW1 5687   1.315   5.585   4.251
 1801SOL    HW2 5688   1.221   5.573   4.385
 1802SOL     OW 5689   1.032   4.273   3.740
 1802SOL    HW1 5690   0.991   4.355   3.701
 1802SOL    HW2 5691   1.096   4.299   3.813
 1803SOL     OW 5692   0.078   4.280   5.110
 1803SOL    HW1 5693   0.170   4.279   5.069
 1803SOL    HW2 5694   0.072   4.354   5.177
 1804SOL     OW 5695   0.561   3.946   4.871
 1804SOL    HW1 5696   0.599   3.862   4.908
 1804SOL    HW2 5697   0.473   3.965   4.915
 1805SOL     OW 5698   0.866   4.178   4.366
 1805SOL    HW1 5699   0.834   4.250   4.304
 1805SOL    HW2 5700   0.890   4.097   4.313
 1806SOL     OW 5701   1.017   3.763   4.477
 1806SOL    HW1 5702   0.945   3.768   4.408
 1806SOL    HW2 5703   0.993   3.694   4.546
 1807SOL     OW 5704   1.429   4.897   4.591
 1807SOL    HW1 5705   1.374   4.813   4.584
 1807SOL    HW2 5706   1.455   4.926   4.499
 1808SOL     OW 5707   1.466   4.314   4.716
 1808SOL    HW1 5708   1.436   4.219   4.723
 1808SOL    HW2 5709   1.539   4.330   4.782
 1809SOL     OW 5710   1.857   4.557   4.101
 1809SOL    HW1 5711   1.899   4.493   4.165
 1809SOL    HW2 5712   1.819   4.506   4.023
 1810SOL     OW 5713   0.488   5.109   3.898
 1810SOL    HW1 5714   0.401   5.094   3.945
 1810SOL    HW2 5715   0.471   5.135   3.803
 1811SOL     OW 5716   1.664   5.004   4.381
 1811SOL    HW1 5717   1.763   5.012   4.395
 1811SOL    HW2 5718   1.619   5.088   4.412
 1812SOL     OW 5719   1.390   4.299   3.802
 1812SOL    HW1 5720   1.336   4.278   3.883
 1812SOL    HW2 5721   1.481   4.258   3.811
 1813SOL     OW 5722   0.527   3.980   4.052
 1813SOL    HW1 5723   0.554   3.921   3.977
 1813SOL    HW2 5724   0.527   4.075   4.021
 1814SOL     OW 5725   1.754   4.947   5.312
 1814SOL    HW1 5726   1.845   4.908   5.299
 1814SOL    HW2 5727   1.762   5.043   5.336
 1815SOL     OW 5728   1.064   5.071   5.064
 1815SOL    HW1 5729   0.984   5.048   5.119
 1815SOL    HW2 5730   1.147   5.045   5.113
 1816SOL     OW 5731   1.592   5.353   5.349
 1816SOL    HW1 5732   1.619   5.387   5.259
 1816SOL    HW2 5733   1.671   5.315   5.395
 1817SOL     OW 5734   1.111   4.919   4.824
 1817SOL    HW1 5735   1.071   4.963   4.905
 1817SOL    HW2 5736   1.070   4.956   4.741
 1818SOL     OW 5737   1.638   4.823   4.803
 1818SOL    HW1 5738   1.643   4.904   4.862
 1818SOL    HW2 5739   1.552   4.825   4.752
 1819SOL     OW 5740   0.915   3.813   5.126
 1819SOL    HW1 5741   0.940   3.793   5.031
 1819SOL    HW2 5742   0.987   3.869   5.168
 1820SOL     OW 5743   0.980   4.840   5.443
 1820SOL    HW1 5744   0.881   4.846   5.453
 1820SOL    HW2 5745   1.003   4.760   5.387
 1821SOL     OW 5746   0.705   4.774   4.092
 1821SOL    HW1 5747   0.691   4.781   4.191
 1821SOL    HW2 5748   0.789   4.723   4.074
 1822SOL     OW 5749   0.410   4.537   4.975
 1822SOL    HW1 5750   0.496   4.549   5.025
 1822SOL    HW2 5751   0.368   4.450   5.002
 1823SOL     OW 5752   1.274   4.110   4.986
 1823SOL    HW1 5753   1.295   4.184   5.050
 1823SOL    HW2 5754   1.185   4.127   4.943
 1824SOL     OW 5755   0.064   5.288   5.055
 1824SOL    HW1 5756   0.018   5.370   5.021
 1824SOL    HW2 5757   0.162   5.307   5.064
 1825SOL     OW 5758   0.367   4.824   4.225
 1825SOL    HW1 5759   0.360   4.907   4.169
 1825SOL    HW2 5760   0.371   4.744   4.165
 1826SOL     OW 5761   0.566   4.261   4.589
 1826SOL    HW1 5762   0.578   4.327   4.515
 1826SOL    HW2 5763   0.612   4.295   4.672
 1827SOL     OW 5764   1.252   5.072   4.112
 1827SOL    HW1 5765   1.302   5.149   4.152
 1827SOL    HW2 5766   1.157   5.074   4.144
 1828SOL     OW 5767   1.272   5.169   4.866
 1828SOL    HW1 5768   1.319   5.182   4.953
 1828SOL    HW2 5769   1.206   5.095   4.875
 1829SOL     OW 5770   1.582   4.363   4.196
 1829SOL    HW1 5771   1.551   4.424   4.269
 1829SOL    HW2 5772   1.632   4.415   4.127
 1830SOL     OW 5773   0.354   5.234   5.053
 1830SOL    HW1 5774   0.333   5.190   4.966
 1830SOL    HW2 5775   0.451   5.260   5.056
 1831SOL     OW 5776   0.402   4.475   5.322
 1831SOL    HW1 5777   0.470   4.530   5.275
 1831SOL    HW2 5778   0.442   4.387   5.349
 1832SOL     OW 5779   1.587   4.503   5.394
 1832SOL    HW1 5780   1.495   4.541   5.389
 1832SOL    HW2 5781   1.647   4.550   5.329
 1833SOL     OW 5782   1.013   3.829   5.494
 1833SOL    HW1 5783   1.019   3.914   5.442
 1833SOL    HW2 5784   1.045   3.753   5.437
 1834SOL     OW 5785   0.504   3.774   5.464
 1834SOL    HW1 5786   0.462   3.717   5.394
 1834SOL    HW2 5787   0.438   3.843   5.496
 1835SOL     OW 5788   0.573   4.594   4.753
 1835SOL    HW1 5789   0.617   4.683   4.744
 1835SOL    HW2 5790   0.510   4.594   4.830
 1836SOL     OW 5791   1.360   4.586   4.769
 1836SOL    HW1 5792   1.285   4.586   4.703
 1836SOL    HW2 5793   1.397   4.494   4.778
 1837SOL     OW 5794   1.209   4.249   3.999
 1837SOL    HW1 5795   1.222   4.165   4.053
 1837SOL    HW2 5796   1.180   4.323   4.059
 1838SOL     OW 5797   0.307   3.937   4.955
 1838SOL    HW1 5798   0.284   3.974   5.045
 1838SOL    HW2 5799   0.277   3.842   4.949
 1839SOL     OW 5800   0.037   5.034   5.006
 1839SOL    HW1 5801   0.090   4.985   5.074
 1839SOL    HW2 5802   0.059   5.132   5.011
 1840SOL     OW 5803   0.732   4.358   4.788
 1840SOL    HW1 5804   0.791   4.332   4.712
 1840SOL    HW2 5805   0.704   4.454   4.777
 1841SOL     OW 5806   1.728   4.659   5.578
 1841SOL    HW1 5807   1.682   4.652   5.489
 1841SOL    HW2 5808   1.666   4.703   5.644
 1842SOL     OW 5809   0.307   3.787   4.342
 1842SOL    HW1 5810   0.296   3.881   4.375
 1842SOL    HW2 5811   0.302   3.724   4.419
 1843SOL     OW 5812   1.622   4.091   4.098
 1843SOL    HW1 5813   1.624   4.015   4.162
 1843SOL    HW2 5814   1.574   4.168   4.138
 1844SOL     OW 5815   1.023   4.490   4.690
 1844SOL    HW1 5816   1.038   4.511   4.786
 1844SOL    HW2 5817   0.993   4.395   4.681
 1845SOL     OW 5818   0.980   5.297   5.424
 1845SOL    HW1 5819   0.960   5.341   5.336
 1845SOL    HW2 5820   1.019   5.206   5.408
 1846SOL     OW 5821   1.859   5.242   5.329
 1846SOL    HW1 5822   1.873   5.269   5.234
 1846SOL    HW2 5823   1.942   5.264   5.382
 1847SOL     OW 5824   0.350   4.622   5.528
 1847SOL    HW1 5825   0.426   4.666   5.576
 1847SOL    HW2 5826   0.385   4.575   5.446
 1848SOL     OW 5827   1.540   3.998   3.849
 1848SOL    HW1 5828   1.479   3.923   3.872
 1848SOL    HW2 5829   1.562   4.050   3.932
 1849SOL     OW 5830   1.303   4.562   3.766
 1849SOL    HW1 5831   1.337   4.469   3.781
 1849SOL    HW2 5832   1.321   4.589   3.671
 1850SOL     OW 5833   1.068   5.057   4.573
 1850SOL    HW1 5834   1.075   4.973   4.518
 1850SOL    HW2 5835   1.130   5.126   4.537
 1851SOL     OW 5836   0.319   4.534   4.673
 1851SOL    HW1 5837   0.412   4.570   4.678
 1851SOL    HW2 5838   0.313   4.449   4.725
 1852SOL     OW 5839   0.339   4.233   4.730
 1852SOL    HW1 5840   0.287   4.150   4.713
 1852SOL    HW2 5841   0.416   4.238   4.666
 1853SOL     OW 5842   1.138   4.104   5.402
 1853SOL    HW1 5843   1.093   4.167   5.466
 1853SOL    HW2 5844   1.231   4.135   5.385
 1854SOL     OW 5845   1.160   3.931   5.201
 1854SOL    HW1 5846   1.160   3.995   5.278
 1854SOL    HW2 5847   1.188   3.979   5.118
 1855SOL     OW 5848   0.008   5.050   3.924
 1855SOL    HW1 5849  -0.085   5.071   3.893
 1855SOL    HW2 5850   0.018   4.951   3.937
 1856SOL     OW 5851   0.088   5.525   4.651
 1856SOL    HW1 5852   0.046   5.439   4.624
 1856SOL    HW2 5853   0.182   5.528   4.617
 1857SOL     OW 5854   0.504   5.292   4.634
 1857SOL    HW1 5855   0.570   5.366   4.643
 1857SOL    HW2 5856   0.548   5.213   4.592
 1858SOL     OW 5857   1.002   4.520   4.962
 1858SOL    HW1 5858   1.043   4.488   5.048
 1858SOL    HW2 5859   0.906   4.493   4.959
 1859SOL     OW 5860   0.040   4.268   4.838
 1859SOL    HW1 5861   0.125   4.235   4.797
 1859SOL    HW2 5862   0.053   4.283   4.936
 1860SOL     OW 5863   0.189   4.244   5.446
 1860SOL    HW1 5864   0.248   4.204   5.376
 1860SOL    HW2 5865   0.131   4.315   5.405
 1861SOL     OW 5866   1.369   4.674   5.384
 1861SOL    HW1 5867   1.408   4.763   5.404
 1861SOL    HW2 5868   1.379   4.654   5.287
 1862SOL     OW 5869   0.815   4.296   4.049
 1862SOL    HW1 5870   0.822   4.207   4.003
 1862SOL    HW2 5871   0.721   4.330   4.041
 1863SOL     OW 5872   1.657   4.328   4.930
 1863SOL    HW1 5873   1.619   4.259   4.992
 1863SOL    HW2 5874   1.739   4.292   4.886
 1864SOL     OW 5875   0.252   5.288   5.468
 1864SOL    HW1 5876   0.222   5.345   5.544
 1864SOL    HW2 5877   0.245   5.191   5.494
 1865SOL     OW 5878   0.671   4.188   4.993
 1865SOL    HW1 5879   0.637   4.099   4.963
 1865SOL    HW2 5880   0.697   4.242   4.913
 1866SOL     OW 5881   0.930   5.402   5.189
 1866SOL    HW1 5882   0.906   5.384   5.094
 1866SOL    HW2 5883   0.960   5.496   5.199
 1867SOL     OW 5884   0.473   4.224   3.915
 1867SOL    HW1 5885   0.534   4.304   3.919
 1867SOL    HW2 5886   0.378   4.255   3.922
 1868SOL     OW 5887   0.159   4.861   5.190
 1868SOL    HW1 5888   0.181   4.800   5.266
 1868SOL    HW2 5889   0.169   4.812   5.104
 1869SOL     OW 5890   1.347   4.783   4.958
 1869SOL    HW1 5891   1.371   4.720   4.884
 1869SOL    HW2 5892   1.257   4.823   4.940
 1870SOL     OW 5893   1.302   4.579   4.033
 1870SOL    HW1 5894   1.216   4.548   4.075
 1870SOL    HW2 5895   1.298   4.565   3.934
 1871SOL     OW 5896   1.759   5.471   4.878
 1871SOL    HW1 5897   1.820   5.501   4.805
 1871SOL    HW2 5898   1.721   5.382   4.856
 1872SOL     OW 5899   1.252   5.455   4.852
 1872SOL    HW1 5900   1.336   5.460   4.798
 1872SOL    HW2 5901   1.229   5.359   4.870
 1873SOL     OW 5902   0.083   4.982   4.746
 1873SOL    HW1 5903   0.078   4.981   4.846
 1873SOL    HW2 5904   0.000   4.941   4.708
 1874SOL     OW 5905   0.688   5.386   5.440
 1874SOL    HW1 5906   0.632   5.467   5.449
 1874SOL    HW2 5907   0.740   5.390   5.354
 1875SOL     OW 5908   1.726   3.859   4.247
 1875SOL    HW1 5909   1.799   3.842   4.180
 1875SOL    HW2 5910   1.695   3.772   4.285
 1876SOL     OW 5911   1.388   5.297   4.201
 1876SOL    HW1 5912   1.455   5.309   4.127
 1876SOL    HW2 5913   1.348   5.386   4.224
 1877SOL     OW 5914   0.130   5.518   5.575
 1877SOL    HW1 5915   0.089   5.444   5.628
 1877SOL    HW2 5916   0.194   5.569   5.633
 1878SOL     OW 5917   1.280   4.651   4.396
 1878SOL    HW1 5918   1.340   4.570   4.398
 1878SOL    HW2 5919   1.320   4.720   4.336
 1879SOL     OW 5920   0.830   4.997   5.146
 1879SOL    HW1 5921   0.825   5.030   5.241
 1879SOL    HW2 5922   0.744   5.016   5.100
 1880SOL     OW 5923   0.672   5.340   3.878
 1880SOL    HW1 5924   0.681   5.350   3.779
 1880SOL    HW2 5925   0.632   5.251   3.899
 1881SOL     OW 5926   1.650   5.444   5.118
 1881SOL    HW1 5927   1.703   5.454   5.034
 1881SOL    HW2 5928   1.623   5.534   5.152
 1882SOL     OW 5929   1.841   3.899   4.687
 1882SOL    HW1 5930   1.880   3.814   4.651
 1882SOL    HW2 5931   1.743   3.901   4.668
 1883SOL     OW 5932   0.263   4.050   4.444
 1883SOL    HW1 5933   0.184   4.101   4.410
 1883SOL    HW2 5934   0.254   4.035   4.542
 1884SOL     OW 5935   1.194   5.336   3.755
 1884SOL    HW1 5936   1.200   5.243   3.792
 1884SOL    HW2 5937   1.135   5.336   3.675
 1885SOL     OW 5938   0.822   4.726   5.096
 1885SOL    HW1 5939   0.862   4.725   5.004
 1885SOL    HW2 5940   0.832   4.818   5.136
 1886SOL     OW 5941   0.916   4.634   4.015
 1886SOL    HW1 5942   0.979   4.672   3.947
 1886SOL    HW2 5943   0.956   4.551   4.054
 1887SOL     OW 5944   1.504   5.331   3.768
 1887SOL    HW1 5945   1.412   5.368   3.775
 1887SOL    HW2 5946   1.542   5.351   3.678
 1888SOL     OW 5947   0.372   5.012   5.214
 1888SOL    HW1 5948   0.359   5.105   5.180
 1888SOL    HW2 5949   0.288   4.960   5.201
 1889SOL     OW 5950   1.614   5.016   5.013
 1889SOL    HW1 5951   1.674   5.019   5.093
 1889SOL    HW2 5952   1.539   5.080   5.026
 1890SOL     OW 5953   1.039   4.822   4.420
 1890SOL    HW1 5954   0.969   4.775   4.474
 1890SOL    HW2 5955   1.098   4.754   4.377
 1891SOL     OW 5956   1.014   3.960   4.695
 1891SOL    HW1 5957   1.006   3.924   4.602
 1891SOL    HW2 5958   1.012   3.884   4.760
 1892SOL     OW 5959   0.590   5.211   4.215
 1892SOL    HW1 5960   0.632   5.153   4.145
 1892SOL    HW2 5961   0.546   5.290   4.171
 1893SOL     OW 5962   1.709   4.109   5.105
 1893SOL    HW1 5963   1.782   4.178   5.109
 1893SOL    HW2 5964   1.737   4.034   5.046
 1894SOL     OW 5965   0.255   5.072   4.014
 1894SOL    HW1 5966   0.159   5.073   3.987
 1894SOL    HW2 5967   0.267   5.125   4.098
 1895SOL     OW 5968   0.105   4.737   5.450
 1895SOL    HW1 5969   0.028   4.704   5.504
 1895SOL    HW2 5970   0.190   4.707   5.492
 1896SOL     OW 5971   0.672   3.927   5.213
 1896SOL    HW1 5972   0.762   3.911   5.173
 1896SOL    HW2 5973   0.680   3.932   5.312
 1897SOL     OW 5974   0.075   4.069   3.757
 1897SOL    HW1 5975  -0.017   4.041   3.728
 1897SOL    HW2 5976   0.106   4.146   3.701
 1898SOL     OW 5977   1.440   4.580   5.122
 1898SOL    HW1 5978   1.383   4.632   5.059
 1898SOL    HW2 5979   1.536   4.592   5.098
 1899SOL     OW 5980   0.072   3.890   4.042
 1899SOL    HW1 5981   0.055   3.973   3.988
 1899SOL    HW2 5982   0.162   3.853   4.020
 1900SOL     OW 5983   1.183   5.059   3.843
 1900SOL    HW1 5984   1.084   5.048   3.845
 1900SOL    HW2 5985   1.217   5.074   3.936
 1901SOL     OW 5986   0.613   4.566   5.155
 1901SOL    HW1 5987   0.669   4.647   5.138
 1901SOL    HW2 5988   0.672   4.486   5.158
 1902SOL     OW 5989   1.493   5.491   4.683
 1902SOL    HW1 5990   1.526   5.555   4.614
 1902SOL    HW2 5991   1.559   5.485   4.758
 1903SOL     OW 5992   0.716   4.289   5.432
 1903SOL    HW1 5993   0.735   4.354   5.506
 1903SOL    HW2 5994   0.776   4.209   5.441
 1904SOL     OW 5995   1.450   4.944   5.357
 1904SOL    HW1 5996   1.441   4.934   5.456
 1904SOL    HW2 5997   1.546   4.937   5.331
 1905SOL     OW 5998   0.390   5.465   5.284
 1905SOL    HW1 5999   0.299   5.506   5.282
 1905SOL    HW2 6000   0.383   5.371   5.316
 1906SOL     OW 6001   1.674   4.607   4.978
 1906SOL    HW1 6002   1.647   4.518   4.941
 1906SOL    HW2 6003   1.675   4.675   4.905
 1907SOL     OW 6004   1.225   4.049   4.173
 1907SOL    HW1 6005   1.290   3.975   4.162
 1907SOL    HW2 6006   1.245   4.099   4.257
 1908SOL     OW 6007   0.594   4.469   4.376
 1908SOL    HW1 6008   0.644   4.554   4.357
 1908SOL    HW2 6009   0.506   4.471   4.328
 1909SOL     OW 6010   1.777   4.066   5.366
 1909SOL    HW1 6011   1.760   4.097   5.272
 1909SOL    HW2 6012   1.693   4.029   5.404
 1910SOL     OW 6013   1.730   4.658   5.241
 1910SOL    HW1 6014   1.768   4.749   5.256
 1910SOL    HW2 6015   1.722   4.641   5.142
 1911SOL     OW 6016   0.859   5.098   3.740
 1911SOL    HW1 6017   0.813   5.113   3.828
 1911SOL    HW2 6018   0.903   5.183   3.710
 1912SOL     OW 6019   0.661   5.514   4.677
 1912SOL    HW1 6020   0.615   5.602   4.664
 1912SOL    HW2 6021   0.760   5.526   4.670
 1913SOL     OW 6022   0.859   4.680   4.585
 1913SOL    HW1 6023   0.913   4.611   4.633
 1913SOL    HW2 6024   0.827   4.749   4.651
 1914SOL     OW 6025   1.083   4.708   3.811
 1914SOL    HW1 6026   1.060   4.761   3.729
 1914SOL    HW2 6027   1.164   4.652   3.792
 1915SOL     OW 6028   1.861   5.293   4.575
 1915SOL    HW1 6029   1.790   5.281   4.505
 1915SOL    HW2 6030   1.862   5.214   4.635
 1916SOL     OW 6031   0.221   5.038   5.568
 1916SOL    HW1 6032   0.156   4.965   5.547
 1916SOL    HW2 6033   0.225   5.052   5.666
 1917SOL     OW 6034   0.079   4.964   4.377
 1917SOL    HW1 6035   0.078   4.917   4.465
 1917SOL    HW2 6036   0.161   4.936   4.326
 1918SOL     OW 6037   0.672   5.115   5.348
 1918SOL    HW1 6038   0.594   5.065   5.386
 1918SOL    HW2 6039   0.669   5.210   5.379
 1919SOL     OW 6040   1.824   3.916   4.951
 1919SOL    HW1 6041   1.820   3.826   4.995
 1919SOL    HW2 6042   1.827   3.905   4.852
 1920SOL     OW 6043   0.428   4.148   4.244
 1920SOL    HW1 6044   0.458   4.076   4.182
 1920SOL    HW2 6045   0.389   4.108   4.327
 1921SOL     OW 6046   1.705   5.211   4.828
 1921SOL    HW1 6047   1.612   5.186   4.801
 1921SOL    HW2 6048   1.731   5.161   4.910
 1922SOL     OW 6049   0.317   4.271   5.004
 1922SOL    HW1 6050   0.355   4.212   5.076
 1922SOL    HW2 6051   0.357   4.245   4.916
 1923SOL     OW 6052   0.812   5.310   4.411
 1923SOL    HW1 6053   0.844   5.320   4.317
 1923SOL    HW2 6054   0.733   5.248   4.413
 1924SOL     OW 6055   1.424   3.938   4.836
 1924SOL    HW1 6056   1.476   3.873   4.891
 1924SOL    HW2 6057   1.375   4.001   4.897
 1925SOL     OW 6058   1.001   3.758   4.878
 1925SOL    HW1 6059   0.938   3.686   4.847
 1925SOL    HW2 6060   1.094   3.722   4.878
 1926SOL     OW 6061   0.770   5.054   4.025
 1926SOL    HW1 6062   0.724   4.967   4.042
 1926SOL    HW2 6063   0.861   5.051   4.066
 1927SOL     OW 6064   0.618   5.291   5.008
 1927SOL    HW1 6065   0.613   5.373   5.065
 1927SOL    HW2 6066   0.707   5.288   4.963
 1928SOL     OW 6067   1.352   3.776   3.892
 1928SOL    HW1 6068   1.387   3.735   3.808
 1928SOL    HW2 6069   1.262   3.738   3.912
 1929SOL     OW 6070   1.300   4.177   4.415
 1929SOL    HW1 6071   1.241   4.257   4.419
 1929SOL    HW2 6072   1.315   4.142   4.508
 1930SOL     OW 6073   1.593   3.945   4.606
 1930SOL    HW1 6074   1.509   3.944   4.660
 1930SOL    HW2 6075   1.595   4.028   4.550
 1931SOL     OW 6076   0.039   4.801   4.024
 1931SOL    HW1 6077   0.138   4.790   4.015
 1931SOL    HW2 6078  -0.001   4.715   4.056
 1932SOL     OW 6079   0.875   5.370   4.061
 1932SOL    HW1 6080   0.798   5.335   4.007
 1932SOL    HW2 6081   0.843   5.441   4.123
 1933SOL     OW 6082   0.903   5.672   1.995
 1933SOL    HW1 6083   0.954   5.673   1.909
 1933SOL    HW2 6084   0.959   5.630   2.066
 1934SOL     OW 6085   0.903   5.672   3.857
 1934SOL    HW1 6086   0.954   5.673   3.771
 1934SOL    HW2 6087   0.959   5.630   3.928
 1935SOL     OW 6088   0.614   5.708   5.703
 1935SOL    HW1 6089   0.712   5.686   5.710
 1935SOL    HW2 6090   0.583   5.691   5.610
 1936SOL     OW 6091   0.297   5.621   5.757
 1936SOL    HW1 6092   0.346   5.705   5.736
 1936SOL    HW2 6093   0.359   5.556   5.802
 1937SOL     OW 6094   0.903   5.672   5.719
 1937SOL    HW1 6095   0.954   5.673   5.633
 1937SOL    HW2 6096   0.959   5.630   5.790
 1938SOL     OW 6097   0.072   5.752   5.904
 1938SOL    HW1 6098   0.055   5.835   5.850
 1938SOL    HW2 6099   0.162   5.715   5.882
 1939SOL     OW 6100   2.092   0.628   0.113
 1939SOL    HW1 6101   1.999   0.626   0.150
 1939SOL    HW2 6102   2.093   0.589   0.021
 1940SOL     OW 6103   2.087   0.275   0.996
 1940SOL    HW1 6104   2.122   0.258   1.088
 1940SOL    HW2 6105   1.999   0.230   0.984
 1941SOL     OW 6106   1.881   0.368   0.647
 1941SOL    HW1 6107   1.799   0.411   0.686
 1941SOL    HW2 6108   1.853   0.295   0.584
 1942SOL     OW 6109   2.431   1.275   1.165
 1942SOL    HW1 6110   2.338   1.268   1.128
 1942SOL    HW2 6111   2.442   1.364   1.209
 1943SOL     OW 6112   3.417   1.511   0.703
 1943SOL    HW1 6113   3.360   1.495   0.784
 1943SOL    HW2 6114   3.358   1.521   0.623
 1944SOL     OW 6115   2.997   0.703   0.717
 1944SOL    HW1 6116   3.054   0.781   0.692
 1944SOL    HW2 6117   2.937   0.729   0.793
 1945SOL     OW 6118   3.617   0.607   0.231
 1945SOL    HW1 6119   3.605   0.594   0.132
 1945SOL    HW2 6120   3.587   0.526   0.280
 1946SOL     OW 6121   2.630   1.144   1.023
 1946SOL    HW1 6122   2.552   1.161   1.083
 1946SOL    HW2 6123   2.664   1.231   0.987
 1947SOL     OW 6124   2.712   0.798   1.823
 1947SOL    HW1 6125   2.708   0.874   1.888
 1947SOL    HW2 6126   2.734   0.834   1.732
 1948SOL     OW 6127   2.547   1.012   0.665
 1948SOL    HW1 6128   2.616   0.996   0.735
 1948SOL    HW2 6129   2.474   1.069   0.703
 1949SOL     OW 6130   2.548   1.161   1.803
 1949SOL    HW1 6131   2.608   1.240   1.817
 1949SOL    HW2 6132   2.462   1.192   1.762
 1950SOL     OW 6133   2.197   1.435   1.061
 1950SOL    HW1 6134   2.119   1.404   1.008
 1950SOL    HW2 6135   2.255   1.493   1.004
 1951SOL     OW 6136   3.322   1.505   1.339
 1951SOL    HW1 6137   3.346   1.599   1.365
 1951SOL    HW2 6138   3.306   1.451   1.421
 1952SOL     OW 6139   2.300   0.392   1.499
 1952SOL    HW1 6140   2.382   0.336   1.508
 1952SOL    HW2 6141   2.219   0.334   1.503
 1953SOL     OW 6142   3.465   0.447   0.737
 1953SOL    HW1 6143   3.391   0.493   0.687
 1953SOL    HW2 6144   3.516   0.515   0.790
 1954SOL     OW 6145   2.093   1.713   0.483
 1954SOL    HW1 6146   2.127   1.790   0.537
 1954SOL    HW2 6147   2.137   1.713   0.393
 1955SOL     OW 6148   2.989   1.341   1.690
 1955SOL    HW1 6149   3.036   1.341   1.778
 1955SOL    HW2 6150   2.941   1.254   1.679
 1956SOL     OW 6151   2.092   1.434   0.538
 1956SOL    HW1 6152   2.066   1.530   0.538
 1956SOL    HW2 6153   2.021   1.380   0.583
 1957SOL     OW 6154   2.102   1.091   0.886
 1957SOL    HW1 6155   2.116   1.007   0.938
 1957SOL    HW2 6156   2.047   1.155   0.941
 1958SOL     OW 6157   2.482   1.786   1.439
 1958SOL    HW1 6158   2.390   1.769   1.474
 1958SOL    HW2 6159   2.510   1.878   1.465
 1959SOL     OW 6160   2.468   0.964   0.123
 1959SOL    HW1 6161   2.475   1.048   0.069
 1959SOL    HW2 6162   2.514   0.977   0.211
 1960SOL     OW 6163   3.456   0.114   1.480
 1960SOL    HW1 6164   3.438   0.181   1.408
 1960SOL    HW2 6165   3.453   0.160   1.569
 1961SOL     OW 6166   1.984   0.643   0.563
 1961SOL    HW1 6167   1.939   0.555   0.580
 1961SOL    HW2 6168   1.983   0.697   0.647
 1962SOL     OW 6169   3.704   1.767   0.359
 1962SOL    HW1 6170   3.758   1.738   0.439
 1962SOL    HW2 6171   3.734   1.857   0.330
 1963SOL     OW 6172   1.889   1.596   0.117
 1963SOL    HW1 6173   1.870   1.500   0.138
 1963SOL    HW2 6174   1.856   1.654   0.192
 1964SOL     OW 6175   3.551   0.922   0.612
 1964SOL    HW1 6176   3.646   0.893   0.620
 1964SOL    HW2 6177   3.543   0.987   0.537
 1965SOL     OW 6178   3.503   1.108   0.432
 1965SOL    HW1 6179   3.589   1.110   0.380
 1965SOL    HW2 6180   3.517   1.155   0.520
 1966SOL     OW 6181   1.975   0.737   1.597
 1966SOL    HW1 6182   2.063   0.724   1.642
 1966SOL    HW2 6183   1.962   0.834   1.575
 1967SOL     OW 6184   2.475   1.365   0.726
 1967SOL    HW1 6185   2.426   1.278   0.735
 1967SOL    HW2 6186   2.452   1.408   0.639
 1968SOL     OW 6187   3.155   1.228   1.423
 1968SOL    HW1 6188   3.192   1.155   1.365
 1968SOL    HW2 6189   3.207   1.233   1.508
 1969SOL     OW 6190   2.671   0.004   0.502
 1969SOL    HW1 6191   2.711   0.095   0.493
 1969SOL    HW2 6192   2.571   0.012   0.508
 1970SOL     OW 6193   2.059   0.976   1.264
 1970SOL    HW1 6194   2.148   0.931   1.250
 1970SOL    HW2 6195   1.986   0.911   1.245
 1971SOL     OW 6196   3.387   0.999   0.190
 1971SOL    HW1 6197   3.324   0.923   0.203
 1971SOL    HW2 6198   3.435   1.017   0.276
 1972SOL     OW 6199   3.049   1.792   1.616
 1972SOL    HW1 6200   3.073   1.852   1.540
 1972SOL    HW2 6201   3.056   1.697   1.586
 1973SOL     OW 6202   2.179   0.251   1.801
 1973SOL    HW1 6203   2.250   0.322   1.807
 1973SOL    HW2 6204   2.091   0.290   1.829
 1974SOL     OW 6205   3.328   1.417   0.953
 1974SOL    HW1 6206   3.269   1.423   1.033
 1974SOL    HW2 6207   3.313   1.329   0.907
 1975SOL     OW 6208   3.529   1.714   0.572
 1975SOL    HW1 6209   3.488   1.691   0.484
 1975SOL    HW2 6210   3.511   1.640   0.637
 1976SOL     OW 6211   2.460   0.729   0.270
 1976SOL    HW1 6212   2.484   0.798   0.202
 1976SOL    HW2 6213   2.382   0.762   0.324
 1977SOL     OW 6214   3.143   0.345   0.944
 1977SOL    HW1 6215   3.057   0.295   0.931
 1977SOL    HW2 6216   3.205   0.291   1.000
 1978SOL     OW 6217   3.438   1.662   0.307
 1978SOL    HW1 6218   3.527   1.708   0.310
 1978SOL    HW2 6219   3.417   1.638   0.212
 1979SOL     OW 6220   2.669   0.605   1.465
 1979SOL    HW1 6221   2.622   0.602   1.554
 1979SOL    HW2 6222   2.618   0.550   1.399
 1980SOL     OW 6223   3.256   0.469   1.674
 1980SOL    HW1 6224   3.236   0.512   1.762
 1980SOL    HW2 6225   3.334   0.407   1.683
 1981SOL     OW 6226   2.835   0.890   1.572
 1981SOL    HW1 6227   2.881   0.806   1.543
 1981SOL    HW2 6228   2.779   0.924   1.497
 1982SOL     OW 6229   2.853   0.410   1.242
 1982SOL    HW1 6230   2.776   0.444   1.296
 1982SOL    HW2 6231   2.819   0.359   1.163
 1983SOL     OW 6232   2.903   0.701   0.429
 1983SOL    HW1 6233   2.929   0.697   0.525
 1983SOL    HW2 6234   2.818   0.650   0.415
 1984SOL     OW 6235   1.938   0.811   0.789
 1984SOL    HW1 6236   2.037   0.799   0.798
 1984SOL    HW2 6237   1.914   0.906   0.810
 1985SOL     OW 6238   1.992   1.821   1.571
 1985SOL    HW1 6239   1.982   1.806   1.670
 1985SOL    HW2 6240   1.906   1.857   1.535
 1986SOL     OW 6241   2.727   0.348   0.195
 1986SOL    HW1 6242   2.786   0.411   0.146
 1986SOL    HW2 6243   2.746   0.254   0.166
 1987SOL     OW 6244   3.581   0.585   1.831
 1987SOL    HW1 6245   3.555   0.674   1.795
 1987SOL    HW2 6246   3.579   0.517   1.758
 1988SOL     OW 6247   3.224   1.144   0.545
 1988SOL    HW1 6248   3.307   1.115   0.497
 1988SOL    HW2 6249   3.175   1.211   0.489
 1989SOL     OW 6250   2.412   0.196   0.885
 1989SOL    HW1 6251   2.407   0.191   0.985
 1989SOL    HW2 6252   2.414   0.292   0.856
 1990SOL     OW 6253   2.870   1.456   0.477
 1990SOL    HW1 6254   2.824   1.528   0.425
 1990SOL    HW2 6255   2.866   1.476   0.575
 1991SOL     OW 6256   2.213   1.801   0.853
 1991SOL    HW1 6257   2.263   1.715   0.859
 1991SOL    HW2 6258   2.278   1.878   0.850
 1992SOL     OW 6259   3.657   1.066   0.873
 1992SOL    HW1 6260   3.595   1.051   0.797
 1992SOL    HW2 6261   3.605   1.077   0.958
 1993SOL     OW 6262   3.089   1.550   1.506
 1993SOL    HW1 6263   3.095   1.473   1.570
 1993SOL    HW2 6264   3.037   1.524   1.426
 1994SOL     OW 6265   2.183   0.943   0.242
 1994SOL    HW1 6266   2.265   0.982   0.200
 1994SOL    HW2 6267   2.156   0.861   0.193
 1995SOL     OW 6268   3.320   0.735   0.728
 1995SOL    HW1 6269   3.315   0.670   0.803
 1995SOL    HW2 6270   3.400   0.794   0.741
 1996SOL     OW 6271   2.323   1.266   1.727
 1996SOL    HW1 6272   2.273   1.267   1.641
 1996SOL    HW2 6273   2.260   1.248   1.803
 1997SOL     OW 6274   2.973   1.776   0.237
 1997SOL    HW1 6275   2.913   1.714   0.287
 1997SOL    HW2 6276   3.004   1.732   0.152
 1998SOL     OW 6277   2.064   0.285   1.498
 1998SOL    HW1 6278   1.984   0.345   1.485
 1998SOL    HW2 6279   2.054   0.236   1.584
 1999SOL     OW 6280   3.494   1.377   0.081
 1999SOL    HW1 6281   3.462   1.471   0.071
 1999SOL    HW2 6282   3.418   1.314   0.069
 2000SOL     OW 6283   2.326   1.743   0.323
 2000SOL    HW1 6284   2.359   1.782   0.409
 2000SOL    HW2 6285   2.402   1.736   0.258
 2001SOL     OW 6286   3.262   0.107   0.426
 2001SOL    HW1 6287   3.238   0.070   0.336
 2001SOL    HW2 6288   3.361   0.123   0.430
 2002SOL     OW 6289   2.111   1.785   1.241
 2002SOL    HW1 6290   2.168   1.720   1.291
 2002SOL    HW2 6291   2.095   1.752   1.148
 2003SOL     OW 6292   2.802   1.698   0.904
 2003SOL    HW1 6293   2.882   1.641   0.925
 2003SOL    HW2 6294   2.753   1.658   0.827
 2004SOL     OW 6295   2.244   0.700   0.480
 2004SOL    HW1 6296   2.289   0.610   0.477
 2004SOL    HW2 6297   2.150   0.689   0.513
 2005SOL     OW 6298   3.409   0.222   1.729
 2005SOL    HW1 6299   3.404   0.259   1.821
 2005SOL    HW2 6300   3.337   0.153   1.717
 2006SOL     OW 6301   2.476   0.122   0.117
 2006SOL    HW1 6302   2.574   0.100   0.124
 2006SOL    HW2 6303   2.445   0.105   0.024
 2007SOL     OW 6304   2.643   0.264   1.749
 2007SOL    HW1 6305   2.710   0.203   1.792
 2007SOL    HW2 6306   2.570   0.283   1.814
 2008SOL     OW 6307   2.750   1.514   1.195
 2008SOL    HW1 6308   2.727   1.489   1.101
 2008SOL    HW2 6309   2.811   1.445   1.234
 2009SOL     OW 6310   3.213   0.590   1.433
 2009SOL    HW1 6311   3.241   0.547   1.518
 2009SOL    HW2 6312   3.238   0.686   1.434
 2010SOL     OW 6313   2.665   1.402   0.924
 2010SOL    HW1 6314   2.755   1.416   0.882
 2010SOL    HW2 6315   2.594   1.404   0.853
 2011SOL     OW 6316   2.784   0.503   0.899
 2011SOL    HW1 6317   2.759   0.494   0.803
 2011SOL    HW2 6318   2.832   0.421   0.930
 2012SOL     OW 6319   2.401   0.064   0.512
 2012SOL    HW1 6320   2.320   0.065   0.570
 2012SOL    HW2 6321   2.404   0.147   0.457
 2013SOL     OW 6322   3.296   1.188   0.041
 2013SOL    HW1 6323   3.328   1.112   0.098
 2013SOL    HW2 6324   3.204   1.215   0.071
 2014SOL     OW 6325   2.159   0.035   0.171
 2014SOL    HW1 6326   2.208   0.119   0.150
 2014SOL    HW2 6327   2.221  -0.030   0.216
 2015SOL     OW 6328   2.797   0.236   0.480
 2015SOL    HW1 6329   2.749   0.277   0.402
 2015SOL    HW2 6330   2.896   0.234   0.461
 2016SOL     OW 6331   2.938   0.683   1.464
 2016SOL    HW1 6332   2.858   0.622   1.467
 2016SOL    HW2 6333   3.019   0.630   1.440
 2017SOL     OW 6334   3.089   1.570   0.793
 2017SOL    HW1 6335   3.110   1.644   0.728
 2017SOL    HW2 6336   3.157   1.570   0.866
 2018SOL     OW 6337   2.321   1.152   0.741
 2018SOL    HW1 6338   2.250   1.125   0.806
 2018SOL    HW2 6339   2.295   1.124   0.648
 2019SOL     OW 6340   3.133   1.797   0.591
 2019SOL    HW1 6341   3.177   1.861   0.527
 2019SOL    HW2 6342   3.083   1.849   0.661
 2020SOL     OW 6343   2.894   0.549   0.016
 2020SOL    HW1 6344   2.853   0.631  -0.023
 2020SOL    HW2 6345   2.958   0.575   0.089
 2021SOL     OW 6346   1.940   0.556   1.386
 2021SOL    HW1 6347   2.032   0.555   1.345
 2021SOL    HW2 6348   1.934   0.630   1.453
 2022SOL     OW 6349   2.423   0.222   1.147
 2022SOL    HW1 6350   2.461   0.138   1.184
 2022SOL    HW2 6351   2.335   0.241   1.191
 2023SOL     OW 6352   2.728   0.454   0.642
 2023SOL    HW1 6353   2.696   0.526   0.580
 2023SOL    HW2 6354   2.752   0.373   0.589
 2024SOL     OW 6355   2.879   0.039   0.753
 2024SOL    HW1 6356   2.807   0.044   0.684
 2024SOL    HW2 6357   2.855  -0.030   0.822
 2025SOL     OW 6358   3.291   1.173   0.867
 2025SOL    HW1 6359   3.236   1.089   0.860
 2025SOL    HW2 6360   3.317   1.202   0.775
 2026SOL     OW 6361   3.328   0.590   0.992
 2026SOL    HW1 6362   3.298   0.495   0.999
 2026SOL    HW2 6363   3.401   0.606   1.058
 2027SOL     OW 6364   3.719   0.833   0.377
 2027SOL    HW1 6365   3.761   0.769   0.441
 2027SOL    HW2 6366   3.681   0.782   0.299
 2028SOL     OW 6367   2.350   1.385   0.174
 2028SOL    HW1 6368   2.263   1.370   0.221
 2028SOL    HW2 6369   2.333   1.411   0.079
 2029SOL     OW 6370   3.526   1.280   0.657
 2029SOL    HW1 6371   3.625   1.288   0.671
 2029SOL    HW2 6372   3.481   1.364   0.688
 2030SOL     OW 6373   3.252   0.575   0.078
 2030SOL    HW1 6374   3.198   0.554   0.159
 2030SOL    HW2 6375   3.343   0.534   0.087
 2031SOL     OW 6376   2.389   0.256   0.328
 2031SOL    HW1 6377   2.416   0.197   0.253
 2031SOL    HW2 6378   2.389   0.351   0.297
 2032SOL     OW 6379   3.616   1.223   1.588
 2032SOL    HW1 6380   3.707   1.184   1.575
 2032SOL    HW2 6381   3.624   1.319   1.612
 2033SOL     OW 6382   2.926   1.347   1.340
 2033SOL    HW1 6383   2.846   1.324   1.395
 2033SOL    HW2 6384   3.009   1.321   1.389
 2034SOL     OW 6385   3.454   1.629   1.625
 2034SOL    HW1 6386   3.481   1.663   1.535
 2034SOL    HW2 6387   3.533   1.591   1.671
 2035SOL     OW 6388   2.973   1.195   1.100
 2035SOL    HW1 6389   2.933   1.239   1.181
 2035SOL    HW2 6390   2.932   1.232   1.017
 2036SOL     OW 6391   3.500   1.099   1.079
 2036SOL    HW1 6392   3.505   1.180   1.138
 2036SOL    HW2 6393   3.414   1.101   1.028
 2037SOL     OW 6394   2.777   0.089   1.402
 2037SOL    HW1 6395   2.802   0.069   1.307
 2037SOL    HW2 6396   2.849   0.145   1.444
 2038SOL     OW 6397   2.842   1.116   1.719
 2038SOL    HW1 6398   2.743   1.122   1.729
 2038SOL    HW2 6399   2.865   1.036   1.663
 2039SOL     OW 6400   2.567   1.050   0.368
 2039SOL    HW1 6401   2.553   1.057   0.467
 2039SOL    HW2 6402   2.651   0.999   0.350
 2040SOL     OW 6403   2.272   0.813   1.251
 2040SOL    HW1 6404   2.358   0.825   1.301
 2040SOL    HW2 6405   2.230   0.726   1.278
 2041SOL     OW 6406   3.136   0.386   1.262
 2041SOL    HW1 6407   3.157   0.460   1.326
 2041SOL    HW2 6408   3.047   0.403   1.219
 2042SOL     OW 6409   1.926   1.564   1.331
 2042SOL    HW1 6410   1.880   1.646   1.297
 2042SOL    HW2 6411   2.024   1.583   1.340
 2043SOL     OW 6412   2.229   1.100   0.501
 2043SOL    HW1 6413   2.222   1.183   0.445
 2043SOL    HW2 6414   2.233   1.020   0.441
 2044SOL     OW 6415   2.428   0.537   0.865
 2044SOL    HW1 6416   2.440   0.603   0.791
 2044SOL    HW2 6417   2.474   0.571   0.948
 2045SOL     OW 6418   3.114   1.348   0.388
 2045SOL    HW1 6419   3.164   1.425   0.428
 2045SOL    HW2 6420   3.019   1.350   0.420
 2046SOL     OW 6421   3.134   1.445   1.142
 2046SOL    HW1 6422   3.181   1.458   1.229
 2046SOL    HW2 6423   3.068   1.371   1.151
 2047SOL     OW 6424   3.444   0.639   0.472
 2047SOL    HW1 6425   3.413   0.700   0.545
 2047SOL    HW2 6426   3.494   0.691   0.403
 2048SOL     OW 6427   2.216   1.510   1.329
 2048SOL    HW1 6428   2.195   1.466   1.242
 2048SOL    HW2 6429   2.313   1.536   1.332
 2049SOL     OW 6430   2.264   0.751   1.598
 2049SOL    HW1 6431   2.332   0.806   1.551
 2049SOL    HW2 6432   2.304   0.663   1.625
 2050SOL     OW 6433   3.449   0.779   1.670
 2050SOL    HW1 6434   3.357   0.817   1.665
 2050SOL    HW2 6435   3.509   0.826   1.605
 2051SOL     OW 6436   2.875   0.105   1.770
 2051SOL    HW1 6437   2.881   0.190   1.718
 2051SOL    HW2 6438   2.907   0.029   1.713
 2052SOL     OW 6439   2.366   0.050   1.740
 2052SOL    HW1 6440   2.324  -0.007   1.670
 2052SOL    HW2 6441   2.300   0.119   1.772
 2053SOL     OW 6442   2.435   0.870   1.029
 2053SOL    HW1 6443   2.479   0.959   1.020
 2053SOL    HW2 6444   2.372   0.870   1.106
 2054SOL     OW 6445   3.222   0.862   1.045
 2054SOL    HW1 6446   3.147   0.862   0.979
 2054SOL    HW2 6447   3.259   0.770   1.054
 2055SOL     OW 6448   3.071   0.525   0.275
 2055SOL    HW1 6449   3.084   0.441   0.329
 2055SOL    HW2 6450   3.042   0.599   0.335
 2056SOL     OW 6451   2.169   0.213   1.231
 2056SOL    HW1 6452   2.146   0.250   1.321
 2056SOL    HW2 6453   2.139   0.118   1.225
 2057SOL     OW 6454   1.899   1.310   1.282
 2057SOL    HW1 6455   1.952   1.261   1.350
 2057SOL    HW2 6456   1.921   1.408   1.287
 2058SOL     OW 6457   2.594   0.634   1.064
 2058SOL    HW1 6458   2.653   0.608   0.988
 2058SOL    HW2 6459   2.566   0.730   1.053
 2059SOL     OW 6460   3.590   0.935   1.854
 2059SOL    HW1 6461   3.544   0.928   1.765
 2059SOL    HW2 6462   3.528   0.979   1.920
 2060SOL     OW 6463   2.169   0.063   0.618
 2060SOL    HW1 6464   2.158   0.157   0.651
 2060SOL    HW2 6465   2.164   0.000   0.695
 2061SOL     OW 6466   3.484   0.367   0.374
 2061SOL    HW1 6467   3.486   0.291   0.438
 2061SOL    HW2 6468   3.436   0.444   0.414
 2062SOL     OW 6469   2.885   0.766   0.966
 2062SOL    HW1 6470   2.900   0.787   1.062
 2062SOL    HW2 6471   2.855   0.671   0.957
 2063SOL     OW 6472   2.842   1.573   1.700
 2063SOL    HW1 6473   2.822   1.617   1.612
 2063SOL    HW2 6474   2.881   1.482   1.684
 2064SOL     OW 6475   3.721   1.518   1.605
 2064SOL    HW1 6476   3.735   1.545   1.510
 2064SOL    HW2 6477   3.804   1.540   1.658
 2065SOL     OW 6478   2.212   0.898   1.804
 2065SOL    HW1 6479   2.288   0.942   1.852
 2065SOL    HW2 6480   2.247   0.851   1.722
 2066SOL     OW 6481   3.402   0.274   0.125
 2066SOL    HW1 6482   3.341   0.199   0.148
 2066SOL    HW2 6483   3.424   0.326   0.208
 2067SOL     OW 6484   3.165   0.838   0.042
 2067SOL    HW1 6485   3.199   0.745   0.057
 2067SOL    HW2 6486   3.183   0.865  -0.053
 2068SOL     OW 6487   2.930   1.333   0.849
 2068SOL    HW1 6488   2.937   1.249   0.794
 2068SOL    HW2 6489   2.992   1.402   0.813
 2069SOL     OW 6490   2.181   0.810   0.949
 2069SOL    HW1 6491   2.274   0.846   0.954
 2069SOL    HW2 6492   2.175   0.725   1.001
 2070SOL     OW 6493   2.201   0.509   1.006
 2070SOL    HW1 6494   2.149   0.426   0.989
 2070SOL    HW2 6495   2.278   0.514   0.942
 2071SOL     OW 6496   3.000   0.380   1.678
 2071SOL    HW1 6497   2.955   0.443   1.742
 2071SOL    HW2 6498   3.093   0.411   1.661
 2072SOL     OW 6499   3.022   0.207   1.477
 2072SOL    HW1 6500   3.022   0.271   1.554
 2072SOL    HW2 6501   3.050   0.255   1.394
 2073SOL     OW 6502   1.870   1.326   0.200
 2073SOL    HW1 6503   1.777   1.347   0.169
 2073SOL    HW2 6504   1.880   1.227   0.213
 2074SOL     OW 6505   1.950   1.801   0.927
 2074SOL    HW1 6506   1.908   1.715   0.900
 2074SOL    HW2 6507   2.044   1.804   0.893
 2075SOL     OW 6508   2.366   1.568   0.910
 2075SOL    HW1 6509   2.432   1.642   0.919
 2075SOL    HW2 6510   2.410   1.489   0.868
 2076SOL     OW 6511   2.864   0.796   1.238
 2076SOL    HW1 6512   2.905   0.764   1.324
 2076SOL    HW2 6513   2.768   0.769   1.235
 2077SOL     OW 6514   1.902   0.544   1.114
 2077SOL    HW1 6515   1.987   0.511   1.073
 2077SOL    HW2 6516   1.915   0.559   1.212
 2078SOL     OW 6517   2.051   0.520   1.722
 2078SOL    HW1 6518   2.110   0.480   1.652
 2078SOL    HW2 6519   1.993   0.591   1.681
 2079SOL     OW 6520   3.231   0.950   1.660
 2079SOL    HW1 6521   3.270   1.039   1.680
 2079SOL    HW2 6522   3.241   0.930   1.563
 2080SOL     OW 6523   2.677   0.572   0.325
 2080SOL    HW1 6524   2.684   0.483   0.279
 2080SOL    HW2 6525   2.583   0.606   0.317
 2081SOL     OW 6526   3.519   0.604   1.206
 2081SOL    HW1 6527   3.481   0.535   1.268
 2081SOL    HW2 6528   3.601   0.568   1.162
 2082SOL     OW 6529   2.114   1.564   1.744
 2082SOL    HW1 6530   2.084   1.621   1.820
 2082SOL    HW2 6531   2.107   1.467   1.770
 2083SOL     OW 6532   2.533   0.464   1.269
 2083SOL    HW1 6533   2.499   0.375   1.239
 2083SOL    HW2 6534   2.559   0.518   1.189
 2084SOL     OW 6535   2.792   1.678   1.465
 2084SOL    HW1 6536   2.768   1.660   1.370
 2084SOL    HW2 6537   2.822   1.772   1.475
 2085SOL     OW 6538   2.335   0.500   0.191
 2085SOL    HW1 6539   2.396   0.580   0.195
 2085SOL    HW2 6540   2.240   0.531   0.198
 2086SOL     OW 6541   2.021   1.137   1.466
 2086SOL    HW1 6542   2.043   1.076   1.542
 2086SOL    HW2 6543   2.031   1.088   1.380
 2087SOL     OW 6544   3.209   1.059   1.234
 2087SOL    HW1 6545   3.233   0.996   1.160
 2087SOL    HW2 6546   3.119   1.099   1.216
 2088SOL     OW 6547   3.164   0.855   0.309
 2088SOL    HW1 6548   3.078   0.824   0.351
 2088SOL    HW2 6549   3.160   0.841   0.210
 2089SOL     OW 6550   3.621   1.747   1.154
 2089SOL    HW1 6551   3.682   1.777   1.081
 2089SOL    HW2 6552   3.583   1.658   1.132
 2090SOL     OW 6553   3.114   1.731   1.128
 2090SOL    HW1 6554   3.198   1.736   1.074
 2090SOL    HW2 6555   3.091   1.635   1.146
 2091SOL     OW 6556   1.945   1.258   1.022
 2091SOL    HW1 6557   1.940   1.257   1.122
 2091SOL    HW2 6558   1.862   1.217   0.984
 2092SOL     OW 6559   2.550   1.662   1.716
 2092SOL    HW1 6560   2.494   1.743   1.725
 2092SOL    HW2 6561   2.602   1.666   1.630
 2093SOL     OW 6562   2.765   0.086   0.133
 2093SOL    HW1 6563   2.816   0.087   0.047
 2093SOL    HW2 6564   2.821   0.044   0.204
 2094SOL     OW 6565   3.588   0.135   0.523
 2094SOL    HW1 6566   3.661   0.118   0.456
 2094SOL    HW2 6567   3.557   0.048   0.561
 2095SOL     OW 6568   3.250   1.573   0.477
 2095SOL    HW1 6569   3.317   1.585   0.403
 2095SOL    HW2 6570   3.210   1.662   0.500
 2096SOL     OW 6571   1.992   1.794   1.851
 2096SOL    HW1 6572   1.951   1.720   1.904
 2096SOL    HW2 6573   2.056   1.845   1.909
 2097SOL     OW 6574   3.142   0.927   0.672
 2097SOL    HW1 6575   3.202   0.846   0.674
 2097SOL    HW2 6576   3.182   0.996   0.612
 2098SOL     OW 6577   2.692   1.273   1.422
 2098SOL    HW1 6578   2.687   1.306   1.517
 2098SOL    HW2 6579   2.606   1.292   1.376
 2099SOL     OW 6580   2.534   1.616   0.154
 2099SOL    HW1 6581   2.543   1.626   0.055
 2099SOL    HW2 6582   2.494   1.527   0.175
 2100SOL     OW 6583   3.512   1.720   1.394
 2100SOL    HW1 6584   3.565   1.730   1.310
 2100SOL    HW2 6585   3.485   1.810   1.428
 2101SOL     OW 6586   3.703   0.175   0.963
 2101SOL    HW1 6587   3.742   0.090   0.927
 2101SOL    HW2 6588   3.605   0.177   0.944
 2102SOL     OW 6589   2.125   0.326   0.720
 2102SOL    HW1 6590   2.046   0.377   0.686
 2102SOL    HW2 6591   2.116   0.311   0.818
 2103SOL     OW 6592   3.056   1.612   0.031
 2103SOL    HW1 6593   3.062   1.519   0.068
 2103SOL    HW2 6594   2.997   1.612  -0.049
 2104SOL     OW 6595   2.684   1.002   1.372
 2104SOL    HW1 6596   2.724   1.001   1.280
 2104SOL    HW2 6597   2.694   1.094   1.412
 2105SOL     OW 6598   2.778   0.910   0.291
 2105SOL    HW1 6599   2.841   0.948   0.223
 2105SOL    HW2 6600   2.818   0.827   0.330
 2106SOL     OW 6601   3.366   1.607   0.044
 2106SOL    HW1 6602   3.274   1.644   0.051
 2106SOL    HW2 6603   3.404   1.627  -0.046
 2107SOL     OW 6604   2.234   1.288   1.490
 2107SOL    HW1 6605   2.221   1.381   1.456
 2107SOL    HW2 6606   2.150   1.236   1.477
 2108SOL     OW 6607   3.476   1.292   1.289
 2108SOL    HW1 6608   3.536   1.295   1.369
 2108SOL    HW2 6609   3.401   1.356   1.302
 2109SOL     OW 6610   2.901   1.098   0.696
 2109SOL    HW1 6611   2.831   1.051   0.750
 2109SOL    HW2 6612   2.960   1.030   0.653
 2110SOL     OW 6613   2.876   0.236   0.971
 2110SOL    HW1 6614   2.868   0.200   0.878
 2110SOL    HW2 6615   2.874   0.160   1.036
 2111SOL     OW 6616   2.452   1.487   0.491
 2111SOL    HW1 6617   2.494   1.429   0.421
 2111SOL    HW2 6618   2.408   1.566   0.447
 2112SOL     OW 6619   3.571   0.385   1.381
 2112SOL    HW1 6620   3.644   0.454   1.385
 2112SOL    HW2 6621   3.599   0.310   1.322
 2113SOL     OW 6622   2.117   1.348   0.290
 2113SOL    HW1 6623   2.021   1.349   0.263
 2113SOL    HW2 6624   2.129   1.401   0.374
 2114SOL     OW 6625   1.967   1.013   1.726
 2114SOL    HW1 6626   1.890   0.980   1.780
 2114SOL    HW2 6627   2.052   0.983   1.768
 2115SOL     OW 6628   2.534   0.203   1.489
 2115SOL    HW1 6629   2.624   0.187   1.449
 2115SOL    HW2 6630   2.542   0.208   1.588
 2116SOL     OW 6631   1.937   0.345   0.033
 2116SOL    HW1 6632   1.845   0.317   0.004
 2116SOL    HW2 6633   1.968   0.422  -0.023
 2117SOL     OW 6634   3.302   0.856   1.398
 2117SOL    HW1 6635   3.245   0.908   1.335
 2117SOL    HW2 6636   3.398   0.868   1.374
 2118SOL     OW 6637   1.934   0.166   0.318
 2118SOL    HW1 6638   1.917   0.249   0.264
 2118SOL    HW2 6639   2.024   0.129   0.296
 2119SOL     OW 6640   3.045   1.335   0.119
 2119SOL    HW1 6641   2.946   1.324   0.121
 2119SOL    HW2 6642   3.079   1.350   0.212
 2120SOL     OW 6643   2.475   0.842   1.431
 2120SOL    HW1 6644   2.531   0.923   1.414
 2120SOL    HW2 6645   2.534   0.762   1.434
 2121SOL     OW 6646   3.355   1.767   0.959
 2121SOL    HW1 6647   3.388   1.831   0.890
 2121SOL    HW2 6648   3.421   1.761   1.034
 2122SOL     OW 6649   2.578   0.565   1.708
 2122SOL    HW1 6650   2.597   0.630   1.782
 2122SOL    HW2 6651   2.638   0.485   1.717
 2123SOL     OW 6652   3.312   1.220   1.633
 2123SOL    HW1 6653   3.303   1.210   1.732
 2123SOL    HW2 6654   3.408   1.213   1.607
 2124SOL     OW 6655   2.252   1.741   1.560
 2124SOL    HW1 6656   2.161   1.782   1.558
 2124SOL    HW2 6657   2.245   1.647   1.592
 2125SOL     OW 6658   3.536   0.883   1.254
 2125SOL    HW1 6659   3.509   0.794   1.217
 2125SOL    HW2 6660   3.537   0.951   1.181
 2126SOL     OW 6661   3.087   0.325   0.449
 2126SOL    HW1 6662   3.152   0.251   0.438
 2126SOL    HW2 6663   3.107   0.375   0.533
 2127SOL     OW 6664   2.456   0.745   0.652
 2127SOL    HW1 6665   2.506   0.830   0.633
 2127SOL    HW2 6666   2.368   0.747   0.604
 2128SOL     OW 6667   3.639   0.342   1.642
 2128SOL    HW1 6668   3.622   0.373   1.548
 2128SOL    HW2 6669   3.555   0.305   1.680
 2129SOL     OW 6670   3.592   0.934   1.517
 2129SOL    HW1 6671   3.630   1.025   1.532
 2129SOL    HW2 6672   3.584   0.917   1.418
 2130SOL     OW 6673   2.721   1.374   0.016
 2130SOL    HW1 6674   2.675   1.389   0.104
 2130SOL    HW2 6675   2.765   1.459  -0.014
 2131SOL     OW 6676   2.523   1.790   0.953
 2131SOL    HW1 6677   2.477   1.878   0.940
 2131SOL    HW2 6678   2.622   1.802   0.946
 2132SOL     OW 6679   2.721   0.956   0.861
 2132SOL    HW1 6680   2.775   0.887   0.909
 2132SOL    HW2 6681   2.689   1.025   0.927
 2133SOL     OW 6682   2.945   0.984   0.087
 2133SOL    HW1 6683   2.922   1.037   0.005
 2133SOL    HW2 6684   3.026   0.928   0.068
 2134SOL     OW 6685   3.723   1.569   0.851
 2134SOL    HW1 6686   3.652   1.557   0.781
 2134SOL    HW2 6687   3.724   1.490   0.911
 2135SOL     OW 6688   2.083   1.314   1.844
 2135SOL    HW1 6689   2.018   1.241   1.823
 2135SOL    HW2 6690   2.087   1.328   1.942
 2136SOL     OW 6691   1.941   1.240   0.653
 2136SOL    HW1 6692   1.940   1.193   0.741
 2136SOL    HW2 6693   2.023   1.212   0.602
 2137SOL     OW 6694   2.534   1.391   1.624
 2137SOL    HW1 6695   2.456   1.341   1.662
 2137SOL    HW2 6696   2.531   1.486   1.655
 2138SOL     OW 6697   3.686   0.192   1.227
 2138SOL    HW1 6698   3.682   0.102   1.271
 2138SOL    HW2 6699   3.689   0.181   1.128
 2139SOL     OW 6700   2.290   0.424   0.520
 2139SOL    HW1 6701   2.320   0.352   0.458
 2139SOL    HW2 6702   2.251   0.384   0.603
 2140SOL     OW 6703   3.567   1.487   1.104
 2140SOL    HW1 6704   3.474   1.462   1.077
 2140SOL    HW2 6705   3.593   1.437   1.186
 2141SOL     OW 6706   2.179   0.547   1.280
 2141SOL    HW1 6707   2.217   0.488   1.352
 2141SOL    HW2 6708   2.219   0.521   1.192
 2142SOL     OW 6709   2.674   1.586   0.687
 2142SOL    HW1 6710   2.706   1.596   0.593
 2142SOL    HW2 6711   2.595   1.524   0.689
 2143SOL     OW 6712   3.286   0.214   1.112
 2143SOL    HW1 6713   3.338   0.149   1.167
 2143SOL    HW2 6714   3.237   0.277   1.173
 2144SOL     OW 6715   2.863   0.034   1.154
 2144SOL    HW1 6716   2.800  -0.038   1.123
 2144SOL    HW2 6717   2.956  -0.002   1.154
 2145SOL     OW 6718   2.632   1.330   0.301
 2145SOL    HW1 6719   2.586   1.243   0.318
 2145SOL    HW2 6720   2.723   1.327   0.342
 2146SOL     OW 6721   2.480   1.567   1.284
 2146SOL    HW1 6722   2.475   1.649   1.341
 2146SOL    HW2 6723   2.569   1.564   1.239
 2147SOL     OW 6724   3.214   0.052   0.168
 2147SOL    HW1 6725   3.249   0.011   0.084
 2147SOL    HW2 6726   3.124   0.014   0.188
 2148SOL     OW 6727   3.162   0.453   0.691
 2148SOL    HW1 6728   3.103   0.533   0.695
 2148SOL    HW2 6729   3.177   0.418   0.784
 2149SOL     OW 6730   3.455   0.221   0.882
 2149SOL    HW1 6731   3.371   0.220   0.936
 2149SOL    HW2 6732   3.457   0.304   0.826
 2150SOL     OW 6733   1.901   1.077   0.300
 2150SOL    HW1 6734   2.000   1.066   0.291
 2150SOL    HW2 6735   1.861   0.991   0.332
 2151SOL     OW 6736   2.737   1.646   0.337
 2151SOL    HW1 6737   2.660   1.611   0.283
 2151SOL    HW2 6738   2.705   1.717   0.399
 2152SOL     OW 6739   2.092   0.628   1.975
 2152SOL    HW1 6740   1.999   0.626   2.012
 2152SOL    HW2 6741   2.093   0.589   1.883
 2153SOL     OW 6742   2.087   0.275   2.858
 2153SOL    HW1 6743   2.122   0.258   2.950
 2153SOL    HW2 6744   1.999   0.230   2.846
 2154SOL     OW 6745   1.881   0.368   2.509
 2154SOL    HW1 6746   1.799   0.411   2.548
 2154SOL    HW2 6747   1.853   0.295   2.446
 2155SOL     OW 6748   2.431   1.275   3.027
 2155SOL    HW1 6749   2.338   1.268   2.990
 2155SOL    HW2 6750   2.442   1.364   3.071
 2156SOL     OW 6751   3.417   1.511   2.565
 2156SOL    HW1 6752   3.360   1.495   2.646
 2156SOL    HW2 6753   3.358   1.521   2.485
 2157SOL     OW 6754   2.997   0.703   2.579
 2157SOL    HW1 6755   3.054   0.781   2.554
 2157SOL    HW2 6756   2.937   0.729   2.655
 2158SOL     OW 6757   3.617   0.607   2.093
 2158SOL    HW1 6758   3.605   0.594   1.994
 2158SOL    HW2 6759   3.587   0.526   2.142
 2159SOL     OW 6760   2.630   1.144   2.885
 2159SOL    HW1 6761   2.552   1.161   2.945
 2159SOL    HW2 6762   2.664   1.231   2.849
 2160SOL     OW 6763   2.712   0.798   3.685
 2160SOL    HW1 6764   2.708   0.874   3.750
 2160SOL    HW2 6765   2.734   0.834   3.594
 2161SOL     OW 6766   2.547   1.012   2.527
 2161SOL    HW1 6767   2.616   0.996   2.597
 2161SOL    HW2 6768   2.474   1.069   2.565
 2162SOL     OW 6769   2.548   1.161   3.665
 2162SOL    HW1 6770   2.608   1.240   3.679
 2162SOL    HW2 6771   2.462   1.192   3.624
 2163SOL     OW 6772   2.197   1.435   2.923
 2163SOL    HW1 6773   2.119   1.404   2.870
 2163SOL    HW2 6774   2.255   1.493   2.866
 2164SOL     OW 6775   3.322   1.505   3.201
 2164SOL    HW1 6776   3.346   1.599   3.227
 2164SOL    HW2 6777   3.306   1.451   3.283
 2165SOL     OW 6778   2.300   0.392   3.361
 2165SOL    HW1 6779   2.382   0.336   3.370
 2165SOL    HW2 6780   2.219   0.334   3.365
 2166SOL     OW 6781   3.465   0.447   2.599
 2166SOL    HW1 6782   3.391   0.493   2.549
 2166SOL    HW2 6783   3.516   0.515   2.652
 2167SOL     OW 6784   2.093   1.713   2.345
 2167SOL    HW1 6785   2.127   1.790   2.399
 2167SOL    HW2 6786   2.137   1.713   2.255
 2168SOL     OW 6787   2.989   1.341   3.552
 2168SOL    HW1 6788   3.036   1.341   3.640
 2168SOL    HW2 6789   2.941   1.254   3.541
 2169SOL     OW 6790   2.092   1.434   2.400
 2169SOL    HW1 6791   2.066   1.530   2.400
 2169SOL    HW2 6792   2.021   1.380   2.445
 2170SOL     OW 6793   2.102   1.091   2.748
 2170SOL    HW1 6794   2.116   1.007   2.800
 2170SOL    HW2 6795   2.047   1.155   2.803
 2171SOL     OW 6796   2.482   1.786   3.301
 2171SOL    HW1 6797   2.390   1.769   3.336
 2171SOL    HW2 6798   2.510   1.878   3.327
 2172SOL     OW 6799   2.468   0.964   1.985
 2172SOL    HW1 6800   2.475   1.048   1.931
 2172SOL    HW2 6801   2.514   0.977   2.073
 2173SOL     OW 6802   3.456   0.114   3.342
 2173SOL    HW1 6803   3.438   0.181   3.270
 2173SOL    HW2 6804   3.453   0.160   3.431
 2174SOL     OW 6805   1.984   0.643   2.425
 2174SOL    HW1 6806   1.939   0.555   2.442
 2174SOL    HW2 6807   1.983   0.697   2.509
 2175SOL     OW 6808   3.704   1.767   2.221
 2175SOL    HW1 6809   3.758   1.738   2.301
 2175SOL    HW2 6810   3.734   1.857   2.192
 2176SOL     OW 6811   1.889   1.596   1.979
 2176SOL    HW1 6812   1.870   1.500   2.000
 2176SOL    HW2 6813   1.856   1.654   2.054
 2177SOL     OW 6814   3.551   0.922   2.474
 2177SOL    HW1 6815   3.646   0.893   2.482
 2177SOL    HW2 6816   3.543   0.987   2.399
 2178SOL     OW 6817   3.503   1.108   2.294
 2178SOL    HW1 6818   3.589   1.110   2.242
 2178SOL    HW2 6819   3.517   1.155   2.382
 2179SOL     OW 6820   1.975   0.737   3.459
 2179SOL    HW1 6821   2.063   0.724   3.504
 2179SOL    HW2 6822   1.962   0.834   3.437
 2180SOL     OW 6823   2.475   1.365   2.588
 2180SOL    HW1 6824   2.426   1.278   2.597
 2180SOL    HW2 6825   2.452   1.408   2.501
 2181SOL     OW 6826   3.155   1.228   3.285
 2181SOL    HW1 6827   3.192   1.155   3.227
 2181SOL    HW2 6828   3.207   1.233   3.370
 2182SOL     OW 6829   2.671   0.004   2.364
 2182SOL    HW1 6830   2.711   0.095   2.355
 2182SOL    HW2 6831   2.571   0.012   2.370
 2183SOL     OW 6832   2.059   0.976   3.126
 2183SOL    HW1 6833   2.148   0.931   3.112
 2183SOL    HW2 6834   1.986   0.911   3.107
 2184SOL     OW 6835   3.387   0.999   2.052
 2184SOL    HW1 6836   3.324   0.923   2.065
 2184SOL    HW2 6837   3.435   1.017   2.138
 2185SOL     OW 6838   3.049   1.792   3.478
 2185SOL    HW1 6839   3.073   1.852   3.402
 2185SOL    HW2 6840   3.056   1.697   3.448
 2186SOL     OW 6841   2.179   0.251   3.663
 2186SOL    HW1 6842   2.250   0.322   3.669
 2186SOL    HW2 6843   2.091   0.290   3.691
 2187SOL     OW 6844   3.328   1.417   2.815
 2187SOL    HW1 6845   3.269   1.423   2.895
 2187SOL    HW2 6846   3.313   1.329   2.769
 2188SOL     OW 6847   3.529   1.714   2.434
 2188SOL    HW1 6848   3.488   1.691   2.346
 2188SOL    HW2 6849   3.511   1.640   2.499
 2189SOL     OW 6850   2.460   0.729   2.132
 2189SOL    HW1 6851   2.484   0.798   2.064
 2189SOL    HW2 6852   2.382   0.762   2.186
 2190SOL     OW 6853   3.143   0.345   2.806
 2190SOL    HW1 6854   3.057   0.295   2.793
 2190SOL    HW2 6855   3.205   0.291   2.862
 2191SOL     OW 6856   3.438   1.662   2.169
 2191SOL    HW1 6857   3.527   1.708   2.172
 2191SOL    HW2 6858   3.417   1.638   2.074
 2192SOL     OW 6859   2.669   0.605   3.327
 2192SOL    HW1 6860   2.622   0.602   3.416
 2192SOL    HW2 6861   2.618   0.550   3.261
 2193SOL     OW 6862   3.256   0.469   3.536
 2193SOL    HW1 6863   3.236   0.512   3.624
 2193SOL    HW2 6864   3.334   0.407   3.545
 2194SOL     OW 6865   2.835   0.890   3.434
 2194SOL    HW1 6866   2.881   0.806   3.405
 2194SOL    HW2 6867   2.779   0.924   3.359
 2195SOL     OW 6868   2.853   0.410   3.104
 2195SOL    HW1 6869   2.776   0.444   3.158
 2195SOL    HW2 6870   2.819   0.359   3.025
 2196SOL     OW 6871   2.903   0.701   2.291
 2196SOL    HW1 6872   2.929   0.697   2.387
 2196SOL    HW2 6873   2.818   0.650   2.277
 2197SOL     OW 6874   1.938   0.811   2.651
 2197SOL    HW1 6875   2.037   0.799   2.660
 2197SOL    HW2 6876   1.914   0.906   2.672
 2198SOL     OW 6877   1.992   1.821   3.433
 2198SOL    HW1 6878   1.982   1.806   3.532
 2198SOL    HW2 6879   1.906   1.857   3.397
 2199SOL     OW 6880   2.727   0.348   2.057
 2199SOL    HW1 6881   2.786   0.411   2.008
 2199SOL    HW2 6882   2.746   0.254   2.028
 2200SOL     OW 6883   3.581   0.585   3.693
 2200SOL    HW1 6884   3.555   0.674   3.657
 2200SOL    HW2 6885   3.579   0.517   3.620
 2201SOL     OW 6886   3.224   1.144   2.407
 2201SOL    HW1 6887   3.307   1.115   2.359
 2201SOL    HW2 6888   3.175   1.211   2.351
 2202SOL     OW 6889   2.412   0.196   2.747
 2202SOL    HW1 6890   2.407   0.191   2.847
 2202SOL    HW2 6891   2.414   0.292   2.718
 2203SOL     OW 6892   2.870   1.456   2.339
 2203SOL    HW1 6893   2.824   1.528   2.287
 2203SOL    HW2 6894   2.866   1.476   2.437
 2204SOL     OW 6895   2.213   1.801   2.715
 2204SOL    HW1 6896   2.263   1.715   2.721
 2204SOL    HW2 6897   2.278   1.878   2.712
 2205SOL     OW 6898   3.657   1.066   2.735
 2205SOL    HW1 6899   3.595   1.051   2.659
 2205SOL    HW2 6900   3.605   1.077   2.820
 2206SOL     OW 6901   3.089   1.550   3.368
 2206SOL    HW1 6902   3.095   1.473   3.432
 2206SOL    HW2 6903   3.037   1.524   3.288
 2207SOL     OW 6904   2.183   0.943   2.104
 2207SOL    HW1 6905   2.265   0.982   2.062
 2207SOL    HW2 6906   2.156   0.861   2.055
 2208SOL     OW 6907   3.320   0.735   2.590
 2208SOL    HW1 6908   3.315   0.670   2.665
 2208SOL    HW2 6909   3.400   0.794   2.603
 2209SOL     OW 6910   2.323   1.266   3.589
 2209SOL    HW1 6911   2.273   1.267   3.503
 2209SOL    HW2 6912   2.260   1.248   3.665
 2210SOL     OW 6913   2.973   1.776   2.099
 2210SOL    HW1 6914   2.913   1.714   2.149
 2210SOL    HW2 6915   3.004   1.732   2.014
 2211SOL     OW 6916   2.064   0.285   3.360
 2211SOL    HW1 6917   1.984   0.345   3.347
 2211SOL    HW2 6918   2.054   0.236   3.446
 2212SOL     OW 6919   3.494   1.377   1.943
 2212SOL    HW1 6920   3.462   1.471   1.933
 2212SOL    HW2 6921   3.418   1.314   1.931
 2213SOL     OW 6922   2.326   1.743   2.185
 2213SOL    HW1 6923   2.359   1.782   2.271
 2213SOL    HW2 6924   2.402   1.736   2.120
 2214SOL     OW 6925   3.262   0.107   2.288
 2214SOL    HW1 6926   3.238   0.070   2.198
 2214SOL    HW2 6927   3.361   0.123   2.292
 2215SOL     OW 6928   2.111   1.785   3.103
 2215SOL    HW1 6929   2.168   1.720   3.153
 2215SOL    HW2 6930   2.095   1.752   3.010
 2216SOL     OW 6931   2.802   1.698   2.766
 2216SOL    HW1 6932   2.882   1.641   2.787
 2216SOL    HW2 6933   2.753   1.658   2.689
 2217SOL     OW 6934   2.244   0.700   2.342
 2217SOL    HW1 6935   2.289   0.610   2.339
 2217SOL    HW2 6936   2.150   0.689   2.375
 2218SOL     OW 6937   3.409   0.222   3.591
 2218SOL    HW1 6938   3.404   0.259   3.683
 2218SOL    HW2 6939   3.337   0.153   3.579
 2219SOL     OW 6940   2.476   0.122   1.979
 2219SOL    HW1 6941   2.574   0.100   1.986
 2219SOL    HW2 6942   2.445   0.105   1.886
 2220SOL     OW 6943   2.643   0.264   3.611
 2220SOL    HW1 6944   2.710   0.203   3.654
 2220SOL    HW2 6945   2.570   0.283   3.676
 2221SOL     OW 6946   2.750   1.514   3.057
 2221SOL    HW1 6947   2.727   1.489   2.963
 2221SOL    HW2 6948   2.811   1.445   3.096
 2222SOL     OW 6949   3.213   0.590   3.295
 2222SOL    HW1 6950   3.241   0.547   3.380
 2222SOL    HW2 6951   3.238   0.686   3.296
 2223SOL     OW 6952   2.665   1.402   2.786
 2223SOL    HW1 6953   2.755   1.416   2.744
 2223SOL    HW2 6954   2.594   1.404   2.715
 2224SOL     OW 6955   2.784   0.503   2.761
 2224SOL    HW1 6956   2.759   0.494   2.665
 2224SOL    HW2 6957   2.832   0.421   2.792
 2225SOL     OW 6958   2.401   0.064   2.374
 2225SOL    HW1 6959   2.320   0.065   2.432
 2225SOL    HW2 6960   2.404   0.147   2.319
 2226SOL     OW 6961   3.296   1.188   1.903
 2226SOL    HW1 6962   3.328   1.112   1.960
 2226SOL    HW2 6963   3.204   1.215   1.933
 2227SOL     OW 6964   2.159   0.035   2.033
 2227SOL    HW1 6965   2.208   0.119   2.012
 2227SOL    HW2 6966   2.221  -0.030   2.078
 2228SOL     OW 6967   2.797   0.236   2.342
 2228SOL    HW1 6968   2.749   0.277   2.264
 2228SOL    HW2 6969   2.896   0.234   2.323
 2229SOL     OW 6970   2.938   0.683   3.326
 2229SOL    HW1 6971   2.858   0.622   3.329
 2229SOL    HW2 6972   3.019   0.630   3.302
 2230SOL     OW 6973   3.089   1.570   2.655
 2230SOL    HW1 6974   3.110   1.644   2.590
 2230SOL    HW2 6975   3.157   1.570   2.728
 2231SOL     OW 6976   2.321   1.152   2.603
 2231SOL    HW1 6977   2.250   1.125   2.668
 2231SOL    HW2 6978   2.295   1.124   2.510
 2232SOL     OW 6979   3.133   1.797   2.453
 2232SOL    HW1 6980   3.177   1.861   2.389
 2232SOL    HW2 6981   3.083   1.849   2.523
 2233SOL     OW 6982   2.894   0.549   1.878
 2233SOL    HW1 6983   2.853   0.631   1.839
 2233SOL    HW2 6984   2.958   0.575   1.951
 2234SOL     OW 6985   1.940   0.556   3.248
 2234SOL    HW1 6986   2.032   0.555   3.207
 2234SOL    HW2 6987   1.934   0.630   3.315
 2235SOL     OW 6988   2.423   0.222   3.009
 2235SOL    HW1 6989   2.461   0.138   3.046
 2235SOL    HW2 6990   2.335   0.241   3.053
 2236SOL     OW 6991   2.728   0.454   2.504
 2236SOL    HW1 6992   2.696   0.526   2.442
 2236SOL    HW2 6993   2.752   0.373   2.451
 2237SOL     OW 6994   2.879   0.039   2.615
 2237SOL    HW1 6995   2.807   0.044   2.546
 2237SOL    HW2 6996   2.855  -0.030   2.684
 2238SOL     OW 6997   3.291   1.173   2.729
 2238SOL    HW1 6998   3.236   1.089   2.722
 2238SOL    HW2 6999   3.317   1.202   2.637
 2239SOL     OW 7000   3.328   0.590   2.854
 2239SOL    HW1 7001   3.298   0.495   2.861
 2239SOL    HW2 7002   3.401   0.606   2.920
 2240SOL     OW 7003   3.719   0.833   2.239
 2240SOL    HW1 7004   3.761   0.769   2.303
 2240SOL    HW2 7005   3.681   0.782   2.161
 2241SOL     OW 7006   2.350   1.385   2.036
 2241SOL    HW1 7007   2.263   1.370   2.083
 2241SOL    HW2 7008   2.333   1.411   1.941
 2242SOL     OW 7009   3.526   1.280   2.519
 2242SOL    HW1 7010   3.625   1.288   2.533
 2242SOL    HW2 7011   3.481   1.364   2.550
 2243SOL     OW 7012   3.252   0.575   1.940
 2243SOL    HW1 7013   3.198   0.554   2.021
 2243SOL    HW2 7014   3.343   0.534   1.949
 2244SOL     OW 7015   2.389   0.256   2.190
 2244SOL    HW1 7016   2.416   0.197   2.115
 2244SOL    HW2 7017   2.389   0.351   2.159
 2245SOL     OW 7018   3.616   1.223   3.450
 2245SOL    HW1 7019   3.707   1.184   3.437
 2245SOL    HW2 7020   3.624   1.319   3.474
 2246SOL     OW 7021   2.926   1.347   3.202
 2246SOL    HW1 7022   2.846   1.324   3.257
 2246SOL    HW2 7023   3.009   1.321   3.251
 2247SOL     OW 7024   3.454   1.629   3.487
 2247SOL    HW1 7025   3.481   1.663   3.397
 2247SOL    HW2 7026   3.533   1.591   3.533
 2248SOL     OW 7027   2.973   1.195   2.962
 2248SOL    HW1 7028   2.933   1.239   3.043
 2248SOL    HW2 7029   2.932   1.232   2.879
 2249SOL     OW 7030   3.500   1.099   2.941
 2249SOL    HW1 7031   3.505   1.180   3.000
 2249SOL    HW2 7032   3.414   1.101   2.890
 2250SOL     OW 7033   2.777   0.089   3.264
 2250SOL    HW1 7034   2.802   0.069   3.169
 2250SOL    HW2 7035   2.849   0.145   3.306
 2251SOL     OW 7036   2.842   1.116   3.581
 2251SOL    HW1 7037   2.743   1.122   3.591
 2251SOL    HW2 7038   2.865   1.036   3.525
 2252SOL     OW 7039   2.567   1.050   2.230
 2252SOL    HW1 7040   2.553   1.057   2.329
 2252SOL    HW2 7041   2.651   0.999   2.212
 2253SOL     OW 7042   2.272   0.813   3.113
 2253SOL    HW1 7043   2.358   0.825   3.163
 2253SOL    HW2 7044   2.230   0.726   3.140
 2254SOL     OW 7045   3.136   0.386   3.124
 2254SOL    HW1 7046   3.157   0.460   3.188
 2254SOL    HW2 7047   3.047   0.403   3.081
 2255SOL     OW 7048   1.926   1.564   3.193
 2255SOL    HW1 7049   1.880   1.646   3.159
 2255SOL    HW2 7050   2.024   1.583   3.202
 2256SOL     OW 7051   2.229   1.100   2.363
 2256SOL    HW1 7052   2.222   1.183   2.307
 2256SOL    HW2 7053   2.233   1.020   2.303
 2257SOL     OW 7054   2.428   0.537   2.727
 2257SOL    HW1 7055   2.440   0.603   2.653
 2257SOL    HW2 7056   2.474   0.571   2.810
 2258SOL     OW 7057   3.114   1.348   2.250
 2258SOL    HW1 7058   3.164   1.425   2.290
 2258SOL    HW2 7059   3.019   1.350   2.282
 2259SOL     OW 7060   3.134   1.445   3.004
 2259SOL    HW1 7061   3.181   1.458   3.091
 2259SOL    HW2 7062   3.068   1.371   3.013
 2260SOL     OW 7063   3.444   0.639   2.334
 2260SOL    HW1 7064   3.413   0.700   2.407
 2260SOL    HW2 7065   3.494   0.691   2.265
 2261SOL     OW 7066   2.216   1.510   3.191
 2261SOL    HW1 7067   2.195   1.466   3.104
 2261SOL    HW2 7068   2.313   1.536   3.194
 2262SOL     OW 7069   2.264   0.751   3.460
 2262SOL    HW1 7070   2.332   0.806   3.413
 2262SOL    HW2 7071   2.304   0.663   3.487
 2263SOL     OW 7072   3.449   0.779   3.532
 2263SOL    HW1 7073   3.357   0.817   3.527
 2263SOL    HW2 7074   3.509   0.826   3.467
 2264SOL     OW 7075   2.875   0.105   3.632
 2264SOL    HW1 7076   2.881   0.190   3.580
 2264SOL    HW2 7077   2.907   0.029   3.575
 2265SOL     OW 7078   2.366   0.050   3.602
 2265SOL    HW1 7079   2.324  -0.007   3.532
 2265SOL    HW2 7080   2.300   0.119   3.634
 2266SOL     OW 7081   2.435   0.870   2.891
 2266SOL    HW1 7082   2.479   0.959   2.882
 2266SOL    HW2 7083   2.372   0.870   2.968
 2267SOL     OW 7084   3.222   0.862   2.907
 2267SOL    HW1 7085   3.147   0.862   2.841
 2267SOL    HW2 7086   3.259   0.770   2.916
 2268SOL     OW 7087   3.071   0.525   2.137
 2268SOL    HW1 7088   3.084   0.441   2.191
 2268SOL    HW2 7089   3.042   0.599   2.197
 2269SOL     OW 7090   2.169   0.213   3.093
 2269SOL    HW1 7091   2.146   0.250   3.183
 2269SOL    HW2 7092   2.139   0.118   3.087
 2270SOL     OW 7093   1.899   1.310   3.144
 2270SOL    HW1 7094   1.952   1.261   3.212
 2270SOL    HW2 7095   1.921   1.408   3.149
 2271SOL     OW 7096   2.594   0.634   2.926
 2271SOL    HW1 7097   2.653   0.608   2.850
 2271SOL    HW2 7098   2.566   0.730   2.915
 2272SOL     OW 7099   3.590   0.935   3.716
 2272SOL    HW1 7100   3.544   0.928   3.627
 2272SOL    HW2 7101   3.528   0.979   3.782
 2273SOL     OW 7102   2.169   0.063   2.480
 2273SOL    HW1 7103   2.158   0.157   2.513
 2273SOL    HW2 7104   2.164   0.000   2.557
 2274SOL     OW 7105   3.484   0.367   2.236
 2274SOL    HW1 7106   3.486   0.291   2.300
 2274SOL    HW2 7107   3.436   0.444   2.276
 2275SOL     OW 7108   2.885   0.766   2.828
 2275SOL    HW1 7109   2.900   0.787   2.924
 2275SOL    HW2 7110   2.855   0.671   2.819
 2276SOL     OW 7111   2.842   1.573   3.562
 2276SOL    HW1 7112   2.822   1.617   3.474
 2276SOL    HW2 7113   2.881   1.482   3.546
 2277SOL     OW 7114   3.721   1.518   3.467
 2277SOL    HW1 7115   3.735   1.545   3.372
 2277SOL    HW2 7116   3.804   1.540   3.520
 2278SOL     OW 7117   2.212   0.898   3.666
 2278SOL    HW1 7118   2.288   0.942   3.714
 2278SOL    HW2 7119   2.247   0.851   3.584
 2279SOL     OW 7120   3.402   0.274   1.987
 2279SOL    HW1 7121   3.341   0.199   2.010
 2279SOL    HW2 7122   3.424   0.326   2.070
 2280SOL     OW 7123   3.165   0.838   1.904
 2280SOL    HW1 7124   3.199   0.745   1.919
 2280SOL    HW2 7125   3.183   0.865   1.809
 2281SOL     OW 7126   2.930   1.333   2.711
 2281SOL    HW1 7127   2.937   1.249   2.656
 2281SOL    HW2 7128   2.992   1.402   2.675
 2282SOL     OW 7129   2.181   0.810   2.811
 2282SOL    HW1 7130   2.274   0.846   2.816
 2282SOL    HW2 7131   2.175   0.725   2.863
 2283SOL     OW 7132   2.201   0.509   2.868
 2283SOL    HW1 7133   2.149   0.426   2.851
 2283SOL    HW2 7134   2.278   0.514   2.804
 2284SOL     OW 7135   3.000   0.380   3.540
 2284SOL    HW1 7136   2.955   0.443   3.604
 2284SOL    HW2 7137   3.093   0.411   3.523
 2285SOL     OW 7138   3.022   0.207   3.339
 2285SOL    HW1 7139   3.022   0.271   3.416
 2285SOL    HW2 7140   3.050   0.255   3.256
 2286SOL     OW 7141   1.870   1.326   2.062
 2286SOL    HW1 7142   1.777   1.347   2.031
 2286SOL    HW2 7143   1.880   1.227   2.075
 2287SOL     OW 7144   1.950   1.801   2.789
 2287SOL    HW1 7145   1.908   1.715   2.762
 2287SOL    HW2 7146   2.044   1.804   2.755
 2288SOL     OW 7147   2.366   1.568   2.772
 2288SOL    HW1 7148   2.432   1.642   2.781
 2288SOL    HW2 7149   2.410   1.489   2.730
 2289SOL     OW 7150   2.864   0.796   3.100
 2289SOL    HW1 7151   2.905   0.764   3.186
 2289SOL    HW2 7152   2.768   0.769   3.097
 2290SOL     OW 7153   1.902   0.544   2.976
 2290SOL    HW1 7154   1.987   0.511   2.935
 2290SOL    HW2 7155   1.915   0.559   3.074
 2291SOL     OW 7156   2.051   0.520   3.584
 2291SOL    HW1 7157   2.110   0.480   3.514
 2291SOL    HW2 7158   1.993   0.591   3.543
 2292SOL     OW 7159   3.231   0.950   3.522
 2292SOL    HW1 7160   3.270   1.039   3.542
 2292SOL    HW2 7161   3.241   0.930   3.425
 2293SOL     OW 7162   2.677   0.572   2.187
 2293SOL    HW1 7163   2.684   0.483   2.141
 2293SOL    HW2 7164   2.583   0.606   2.179
 2294SOL     OW 7165   3.519   0.604   3.068
 2294SOL    HW1 7166   3.481   0.535   3.130
 2294SOL    HW2 7167   3.601   0.568   3.024
 2295SOL     OW 7168   2.114   1.564   3.606
 2295SOL    HW1 7169   2.084   1.621   3.682
 2295SOL    HW2 7170   2.107   1.467   3.632
 2296SOL     OW 7171   2.533   0.464   3.131
 2296SOL    HW1 7172   2.499   0.375   3.101
 2296SOL    HW2 7173   2.559   0.518   3.051
 2297SOL     OW 7174   2.792   1.678   3.327
 2297SOL    HW1 7175   2.768   1.660   3.232
 2297SOL    HW2 7176   2.822   1.772   3.337
 2298SOL     OW 7177   2.335   0.500   2.053
 2298SOL    HW1 7178   2.396   0.580   2.057
 2298SOL    HW2 7179   2.240   0.531   2.060
 2299SOL     OW 7180   2.021   1.137   3.328
 2299SOL    HW1 7181   2.043   1.076   3.404
 2299SOL    HW2 7182   2.031   1.088   3.242
 2300SOL     OW 7183   3.209   1.059   3.096
 2300SOL    HW1 7184   3.233   0.996   3.022
 2300SOL    HW2 7185   3.119   1.099   3.078
 2301SOL     OW 7186   3.164   0.855   2.171
 2301SOL    HW1 7187   3.078   0.824   2.213
 2301SOL    HW2 7188   3.160   0.841   2.072
 2302SOL     OW 7189   3.621   1.747   3.016
 2302SOL    HW1 7190   3.682   1.777   2.943
 2302SOL    HW2 7191   3.583   1.658   2.994
 2303SOL     OW 7192   3.114   1.731   2.990
 2303SOL    HW1 7193   3.198   1.736   2.936
 2303SOL    HW2 7194   3.091   1.635   3.008
 2304SOL     OW 7195   1.945   1.258   2.884
 2304SOL    HW1 7196   1.940   1.257   2.984
 2304SOL    HW2 7197   1.862   1.217   2.846
 2305SOL     OW 7198   2.550   1.662   3.578
 2305SOL    HW1 7199   2.494   1.743   3.587
 2305SOL    HW2 7200   2.602   1.666   3.492
 2306SOL     OW 7201   3.588   0.135   2.385
 2306SOL    HW1 7202   3.661   0.118   2.318
 2306SOL    HW2 7203   3.557   0.048   2.423
 2307SOL     OW 7204   3.250   1.573   2.339
 2307SOL    HW1 7205   3.317   1.585   2.265
 2307SOL    HW2 7206   3.210   1.662   2.362
 2308SOL     OW 7207   1.992   1.794   3.713
 2308SOL    HW1 7208   1.951   1.720   3.766
 2308SOL    HW2 7209   2.056   1.845   3.771
 2309SOL     OW 7210   3.142   0.927   2.534
 2309SOL    HW1 7211   3.202   0.846   2.536
 2309SOL    HW2 7212   3.182   0.996   2.474
 2310SOL     OW 7213   2.692   1.273   3.284
 2310SOL    HW1 7214   2.687   1.306   3.379
 2310SOL    HW2 7215   2.606   1.292   3.238
 2311SOL     OW 7216   2.534   1.616   2.016
 2311SOL    HW1 7217   2.543   1.626   1.917
 2311SOL    HW2 7218   2.494   1.527   2.037
 2312SOL     OW 7219   3.512   1.720   3.256
 2312SOL    HW1 7220   3.565   1.730   3.172
 2312SOL    HW2 7221   3.485   1.810   3.290
 2313SOL     OW 7222   3.703   0.175   2.825
 2313SOL    HW1 7223   3.742   0.090   2.789
 2313SOL    HW2 7224   3.605   0.177   2.806
 2314SOL     OW 7225   2.125   0.326   2.582
 2314SOL    HW1 7226   2.046   0.377   2.548
 2314SOL    HW2 7227   2.116   0.311   2.680
 2315SOL     OW 7228   3.056   1.612   1.893
 2315SOL    HW1 7229   3.062   1.519   1.930
 2315SOL    HW2 7230   2.997   1.612   1.813
 2316SOL     OW 7231   2.684   1.002   3.234
 2316SOL    HW1 7232   2.724   1.001   3.142
 2316SOL    HW2 7233   2.694   1.094   3.274
 2317SOL     OW 7234   2.778   0.910   2.153
 2317SOL    HW1 7235   2.841   0.948   2.085
 2317SOL    HW2 7236   2.818   0.827   2.192
 2318SOL     OW 7237   3.366   1.607   1.906
 2318SOL    HW1 7238   3.274   1.644   1.913
 2318SOL    HW2 7239   3.404   1.627   1.816
 2319SOL     OW 7240   2.234   1.288   3.352
 2319SOL    HW1 7241   2.221   1.381   3.318
 2319SOL    HW2 7242   2.150   1.236   3.339
 2320SOL     OW 7243   3.476   1.292   3.151
 2320SOL    HW1 7244   3.536   1.295   3.231
 2320SOL    HW2 7245   3.401   1.356   3.164
 2321SOL     OW 7246   2.901   1.098   2.558
 2321SOL    HW1 7247   2.831   1.051   2.612
 2321SOL    HW2 7248   2.960   1.030   2.515
 2322SOL     OW 7249   2.876   0.236   2.833
 2322SOL    HW1 7250   2.868   0.200   2.740
 2322SOL    HW2 7251   2.874   0.160   2.898
 2323SOL     OW 7252   2.452   1.487   2.353
 2323SOL    HW1 7253   2.494   1.429   2.283
 2323SOL    HW2 7254   2.408   1.566   2.309
 2324SOL     OW 7255   3.571   0.385   3.243
 2324SOL    HW1 7256   3.644   0.454   3.247
 2324SOL    HW2 7257   3.599   0.310   3.184
 2325SOL     OW 7258   2.117   1.348   2.152
 2325SOL    HW1 7259   2.021   1.349   2.125
 2325SOL    HW2 7260   2.129   1.401   2.236
 2326SOL     OW 7261   1.967   1.013   3.588
 2326SOL    HW1 7262   1.890   0.980   3.642
 2326SOL    HW2 7263   2.052   0.983   3.630
 2327SOL     OW 7264   2.534   0.203   3.351
 2327SOL    HW1 7265   2.624   0.187   3.311
 2327SOL    HW2 7266   2.542   0.208   3.450
 2328SOL     OW 7267   1.937   0.345   1.895
 2328SOL    HW1 7268   1.845   0.317   1.866
 2328SOL    HW2 7269   1.968   0.422   1.839
 2329SOL     OW 7270   3.302   0.856   3.260
 2329SOL    HW1 7271   3.245   0.908   3.197
 2329SOL    HW2 7272   3.398   0.868   3.236
 2330SOL     OW 7273   1.934   0.166   2.180
 2330SOL    HW1 7274   1.917   0.249   2.126
 2330SOL    HW2 7275   2.024   0.129   2.158
 2331SOL     OW 7276   3.045   1.335   1.981
 2331SOL    HW1 7277   2.946   1.324   1.983
 2331SOL    HW2 7278   3.079   1.350   2.074
 2332SOL     OW 7279   2.475   0.842   3.293
 2332SOL    HW1 7280   2.531   0.923   3.276
 2332SOL    HW2 7281   2.534   0.762   3.296
 2333SOL     OW 7282   3.355   1.767   2.821
 2333SOL    HW1 7283   3.388   1.831   2.752
 2333SOL    HW2 7284   3.421   1.761   2.896
 2334SOL     OW 7285   2.578   0.565   3.570
 2334SOL    HW1 7286   2.597   0.630   3.644
 2334SOL    HW2 7287   2.638   0.485   3.579
 2335SOL     OW 7288   3.312   1.220   3.495
 2335SOL    HW1 7289   3.303   1.210   3.594
 2335SOL    HW2 7290   3.408   1.213   3.469
 2336SOL     OW 7291   2.252   1.741   3.422
 2336SOL    HW1 7292   2.161   1.782   3.420
 2336SOL    HW2 7293   2.245   1.647   3.454
 2337SOL     OW 7294   3.536   0.883   3.116
 2337SOL    HW1 7295   3.509   0.794   3.079
 2337SOL    HW2 7296   3.537   0.951   3.043
 2338SOL     OW 7297   3.087   0.325   2.311
 2338SOL    HW1 7298   3.152   0.251   2.300
 2338SOL    HW2 7299   3.107   0.375   2.395
 2339SOL     OW 7300   2.456   0.745   2.514
 2339SOL    HW1 7301   2.506   0.830   2.495
 2339SOL    HW2 7302   2.368   0.747   2.466
 2340SOL     OW 7303   3.639   0.342   3.504
 2340SOL    HW1 7304   3.622   0.373   3.410
 2340SOL    HW2 7305   3.555   0.305   3.542
 2341SOL     OW 7306   3.592   0.934   3.379
 2341SOL    HW1 7307   3.630   1.025   3.394
 2341SOL    HW2 7308   3.584   0.917   3.280
 2342SOL     OW 7309   2.721   1.374   1.878
 2342SOL    HW1 7310   2.675   1.389   1.966
 2342SOL    HW2 7311   2.765   1.459   1.848
 2343SOL     OW 7312   2.523   1.790   2.815
 2343SOL    HW1 7313   2.477   1.878   2.802
 2343SOL    HW2 7314   2.622   1.802   2.808
 2344SOL     OW 7315   2.721   0.956   2.723
 2344SOL    HW1 7316   2.775   0.887   2.771
 2344SOL    HW2 7317   2.689   1.025   2.789
 2345SOL     OW 7318   2.945   0.984   1.949
 2345SOL    HW1 7319   2.922   1.037   1.867
 2345SOL    HW2 7320   3.026   0.928   1.930
 2346SOL     OW 7321   3.723   1.569   2.713
 2346SOL    HW1 7322   3.652   1.557   2.643
 2346SOL    HW2 7323   3.724   1.490   2.773
 2347SOL     OW 7324   2.083   1.314   3.706
 2347SOL    HW1 7325   2.018   1.241   3.685
 2347SOL    HW2 7326   2.087   1.328   3.804
 2348SOL     OW 7327   1.941   1.240   2.515
 2348SOL    HW1 7328   1.940   1.193   2.603
 2348SOL    HW2 7329   2.023   1.212   2.464
 2349SOL     OW 7330   2.534   1.391   3.486
 2349SOL    HW1 7331   2.456   1.341   3.524
 2349SOL    HW2 7332   2.531   1.486   3.517
 2350SOL     OW 7333   3.686   0.192   3.089
 2350SOL    HW1 7334   3.682   0.102   3.133
 2350SOL    HW2 7335   3.689   0.181   2.990
 2351SOL     OW 7336   2.290   0.424   2.382
 2351SOL    HW1 7337   2.320   0.352   2.320
 2351SOL    HW2 7338   2.251   0.384   2.465
 2352SOL     OW 7339   3.567   1.487   2.966
 2352SOL    HW1 7340   3.474   1.462   2.939
 2352SOL    HW2 7341   3.593   1.437   3.048
 2353SOL     OW 7342   2.179   0.547   3.142
 2353SOL    HW1 7343   2.217   0.488   3.214
 2353SOL    HW2 7344   2.219   0.521   3.054
 2354SOL     OW 7345   2.674   1.586   2.549
 2354SOL    HW1 7346   2.706   1.596   2.455
 2354SOL    HW2 7347   2.595   1.524   2.551
 2355SOL     OW 7348   3.286   0.214   2.974
 2355SOL    HW1 7349   3.338   0.149   3.029
 2355SOL    HW2 7350   3.237   0.277   3.035
 2356SOL     OW 7351   2.863   0.034   3.016
 2356SOL    HW1 7352   2.800  -0.038   2.985
 2356SOL    HW2 7353   2.956  -0.002   3.016
 2357SOL     OW 7354   2.632   1.330   2.163
 2357SOL    HW1 7355   2.586   1.243   2.180
 2357SOL    HW2 7356   2.723   1.327   2.204
 2358SOL     OW 7357   2.480   1.567   3.146
 2358SOL    HW1 7358   2.475   1.649   3.203
 2358SOL    HW2 7359   2.569   1.564   3.101
 2359SOL     OW 7360   3.214   0.052   2.030
 2359SOL    HW1 7361   3.249   0.011   1.946
 2359SOL    HW2 7362   3.124   0.014   2.050
 2360SOL     OW 7363   3.162   0.453   2.553
 2360SOL    HW1 7364   3.103   0.533   2.557
 2360SOL    HW2 7365   3.177   0.418   2.646
 2361SOL     OW 7366   3.455   0.221   2.744
 2361SOL    HW1 7367   3.371   0.220   2.798
 2361SOL    HW2 7368   3.457   0.304   2.688
 2362SOL     OW 7369   1.901   1.077   2.162
 2362SOL    HW1 7370   2.000   1.066   2.153
 2362SOL    HW2 7371   1.861   0.991   2.194
 2363SOL     OW 7372   2.737   1.646   2.199
 2363SOL    HW1 7373   2.660   1.611   2.145
 2363SOL    HW2 7374   2.705   1.717   2.261
 2364SOL     OW 7375   2.092   0.628   3.837
 2364SOL    HW1 7376   1.999   0.626   3.874
 2364SOL    HW2 7377   2.093   0.589   3.745
 2365SOL     OW 7378   2.087   0.275   4.720
 2365SOL    HW1 7379   2.122   0.258   4.812
 2365SOL    HW2 7380   1.999   0.230   4.708
 2366SOL     OW 7381   1.881   0.368   4.371
 2366SOL    HW1 7382   1.799   0.411   4.410
 2366SOL    HW2 7383   1.853   0.295   4.308
 2367SOL     OW 7384   2.431   1.275   4.889
 2367SOL    HW1 7385   2.338   1.268   4.852
 2367SOL    HW2 7386   2.442   1.364   4.933
 2368SOL     OW 7387   3.417   1.511   4.427
 2368SOL    HW1 7388   3.360   1.495   4.508
 2368SOL    HW2 7389   3.358   1.521   4.347
 2369SOL     OW 7390   2.997   0.703   4.441
 2369SOL    HW1 7391   3.054   0.781   4.416
 2369SOL    HW2 7392   2.937   0.729   4.517
 2370SOL     OW 7393   3.617   0.607   3.955
 2370SOL    HW1 7394   3.605   0.594   3.856
 2370SOL    HW2 7395   3.587   0.526   4.004
 2371SOL     OW 7396   2.630   1.144   4.747
 2371SOL    HW1 7397   2.552   1.161   4.807
 2371SOL    HW2 7398   2.664   1.231   4.711
 2372SOL     OW 7399   2.712   0.798   5.547
 2372SOL    HW1 7400   2.708   0.874   5.612
 2372SOL    HW2 7401   2.734   0.834   5.456
 2373SOL     OW 7402   2.547   1.012   4.389
 2373SOL    HW1 7403   2.616   0.996   4.459
 2373SOL    HW2 7404   2.474   1.069   4.427
 2374SOL     OW 7405   2.548   1.161   5.527
 2374SOL    HW1 7406   2.608   1.240   5.541
 2374SOL    HW2 7407   2.462   1.192   5.486
 2375SOL     OW 7408   2.197   1.435   4.785
 2375SOL    HW1 7409   2.119   1.404   4.732
 2375SOL    HW2 7410   2.255   1.493   4.728
 2376SOL     OW 7411   3.322   1.505   5.063
 2376SOL    HW1 7412   3.346   1.599   5.089
 2376SOL    HW2 7413   3.306   1.451   5.145
 2377SOL     OW 7414   2.300   0.392   5.223
 2377SOL    HW1 7415   2.382   0.336   5.232
 2377SOL    HW2 7416   2.219   0.334   5.227
 2378SOL     OW 7417   3.465   0.447   4.461
 2378SOL    HW1 7418   3.391   0.493   4.411
 2378SOL    HW2 7419   3.516   0.515   4.514
 2379SOL     OW 7420   2.093   1.713   4.207
 2379SOL    HW1 7421   2.127   1.790   4.261
 2379SOL    HW2 7422   2.137   1.713   4.117
 2380SOL     OW 7423   2.989   1.341   5.414
 2380SOL    HW1 7424   3.036   1.341   5.502
 2380SOL    HW2 7425   2.941   1.254   5.403
 2381SOL     OW 7426   2.092   1.434   4.262
 2381SOL    HW1 7427   2.066   1.530   4.262
 2381SOL    HW2 7428   2.021   1.380   4.307
 2382SOL     OW 7429   2.102   1.091   4.610
 2382SOL    HW1 7430   2.116   1.007   4.662
 2382SOL    HW2 7431   2.047   1.155   4.665
 2383SOL     OW 7432   2.482   1.786   5.163
 2383SOL    HW1 7433   2.390   1.769   5.198
 2383SOL    HW2 7434   2.510   1.878   5.189
 2384SOL     OW 7435   2.468   0.964   3.847
 2384SOL    HW1 7436   2.475   1.048   3.793
 2384SOL    HW2 7437   2.514   0.977   3.935
 2385SOL     OW 7438   3.456   0.114   5.204
 2385SOL    HW1 7439   3.438   0.181   5.132
 2385SOL    HW2 7440   3.453   0.160   5.293
 2386SOL     OW 7441   1.984   0.643   4.287
 2386SOL    HW1 7442   1.939   0.555   4.304
 2386SOL    HW2 7443   1.983   0.697   4.371
 2387SOL     OW 7444   3.704   1.767   4.083
 2387SOL    HW1 7445   3.758   1.738   4.163
 2387SOL    HW2 7446   3.734   1.857   4.054
 2388SOL     OW 7447   1.889   1.596   3.841
 2388SOL    HW1 7448   1.870   1.500   3.862
 2388SOL    HW2 7449   1.856   1.654   3.916
 2389SOL     OW 7450   3.551   0.922   4.336
 2389SOL    HW1 7451   3.646   0.893   4.344
 2389SOL    HW2 7452   3.543   0.987   4.261
 2390SOL     OW 7453   3.503   1.108   4.156
 2390SOL    HW1 7454   3.589   1.110   4.104
 2390SOL    HW2 7455   3.517   1.155   4.244
 2391SOL     OW 7456   1.975   0.737   5.321
 2391SOL    HW1 7457   2.063   0.724   5.366
 2391SOL    HW2 7458   1.962   0.834   5.299
 2392SOL     OW 7459   2.475   1.365   4.450
 2392SOL    HW1 7460   2.426   1.278   4.459
 2392SOL    HW2 7461   2.452   1.408   4.363
 2393SOL     OW 7462   3.155   1.228   5.147
 2393SOL    HW1 7463   3.192   1.155   5.089
 2393SOL    HW2 7464   3.207   1.233   5.232
 2394SOL     OW 7465   2.671   0.004   4.226
 2394SOL    HW1 7466   2.711   0.095   4.217
 2394SOL    HW2 7467   2.571   0.012   4.232
 2395SOL     OW 7468   2.059   0.976   4.988
 2395SOL    HW1 7469   2.148   0.931   4.974
 2395SOL    HW2 7470   1.986   0.911   4.969
 2396SOL     OW 7471   3.387   0.999   3.914
 2396SOL    HW1 7472   3.324   0.923   3.927
 2396SOL    HW2 7473   3.435   1.017   4.000
 2397SOL     OW 7474   3.049   1.792   5.340
 2397SOL    HW1 7475   3.073   1.852   5.264
 2397SOL    HW2 7476   3.056   1.697   5.310
 2398SOL     OW 7477   2.179   0.251   5.525
 2398SOL    HW1 7478   2.250   0.322   5.531
 2398SOL    HW2 7479   2.091   0.290   5.553
 2399SOL     OW 7480   3.328   1.417   4.677
 2399SOL    HW1 7481   3.269   1.423   4.757
 2399SOL    HW2 7482   3.313   1.329   4.631
 2400SOL     OW 7483   3.529   1.714   4.296
 2400SOL    HW1 7484   3.488   1.691   4.208
 2400SOL    HW2 7485   3.511   1.640   4.361
 2401SOL     OW 7486   2.460   0.729   3.994
 2401SOL    HW1 7487   2.484   0.798   3.926
 2401SOL    HW2 7488   2.382   0.762   4.048
 2402SOL     OW 7489   3.143   0.345   4.668
 2402SOL    HW1 7490   3.057   0.295   4.655
 2402SOL    HW2 7491   3.205   0.291   4.724
 2403SOL     OW 7492   3.438   1.662   4.031
 2403SOL    HW1 7493   3.527   1.708   4.034
 2403SOL    HW2 7494   3.417   1.638   3.936
 2404SOL     OW 7495   2.669   0.605   5.189
 2404SOL    HW1 7496   2.622   0.602   5.278
 2404SOL    HW2 7497   2.618   0.550   5.123
 2405SOL     OW 7498   3.256   0.469   5.398
 2405SOL    HW1 7499   3.236   0.512   5.486
 2405SOL    HW2 7500   3.334   0.407   5.407
 2406SOL     OW 7501   2.835   0.890   5.296
 2406SOL    HW1 7502   2.881   0.806   5.267
 2406SOL    HW2 7503   2.779   0.924   5.221
 2407SOL     OW 7504   2.853   0.410   4.966
 2407SOL    HW1 7505   2.776   0.444   5.020
 2407SOL    HW2 7506   2.819   0.359   4.887
 2408SOL     OW 7507   2.903   0.701   4.153
 2408SOL    HW1 7508   2.929   0.697   4.249
 2408SOL    HW2 7509   2.818   0.650   4.139
 2409SOL     OW 7510   1.938   0.811   4.513
 2409SOL    HW1 7511   2.037   0.799   4.522
 2409SOL    HW2 7512   1.914   0.906   4.534
 2410SOL     OW 7513   1.992   1.821   5.295
 2410SOL    HW1 7514   1.982   1.806   5.394
 2410SOL    HW2 7515   1.906   1.857   5.259
 2411SOL     OW 7516   2.727   0.348   3.919
 2411SOL    HW1 7517   2.786   0.411   3.870
 2411SOL    HW2 7518   2.746   0.254   3.890
 2412SOL     OW 7519   3.581   0.585   5.555
 2412SOL    HW1 7520   3.555   0.674   5.519
 2412SOL    HW2 7521   3.579   0.517   5.482
 2413SOL     OW 7522   3.224   1.144   4.269
 2413SOL    HW1 7523   3.307   1.115   4.221
 2413SOL    HW2 7524   3.175   1.211   4.213
 2414SOL     OW 7525   2.412   0.196   4.609
 2414SOL    HW1 7526   2.407   0.191   4.709
 2414SOL    HW2 7527   2.414   0.292   4.580
 2415SOL     OW 7528   2.870   1.456   4.201
 2415SOL    HW1 7529   2.824   1.528   4.149
 2415SOL    HW2 7530   2.866   1.476   4.299
 2416SOL     OW 7531   2.213   1.801   4.577
 2416SOL    HW1 7532   2.263   1.715   4.583
 2416SOL    HW2 7533   2.278   1.878   4.574
 2417SOL     OW 7534   3.657   1.066   4.597
 2417SOL    HW1 7535   3.595   1.051   4.521
 2417SOL    HW2 7536   3.605   1.077   4.682
 2418SOL     OW 7537   3.089   1.550   5.230
 2418SOL    HW1 7538   3.095   1.473   5.294
 2418SOL    HW2 7539   3.037   1.524   5.150
 2419SOL     OW 7540   2.183   0.943   3.966
 2419SOL    HW1 7541   2.265   0.982   3.924
 2419SOL    HW2 7542   2.156   0.861   3.917
 2420SOL     OW 7543   3.320   0.735   4.452
 2420SOL    HW1 7544   3.315   0.670   4.527
 2420SOL    HW2 7545   3.400   0.794   4.465
 2421SOL     OW 7546   2.323   1.266   5.451
 2421SOL    HW1 7547   2.273   1.267   5.365
 2421SOL    HW2 7548   2.260   1.248   5.527
 2422SOL     OW 7549   2.973   1.776   3.961
 2422SOL    HW1 7550   2.913   1.714   4.011
 2422SOL    HW2 7551   3.004   1.732   3.876
 2423SOL     OW 7552   2.064   0.285   5.222
 2423SOL    HW1 7553   1.984   0.345   5.209
 2423SOL    HW2 7554   2.054   0.236   5.308
 2424SOL     OW 7555   3.494   1.377   3.805
 2424SOL    HW1 7556   3.462   1.471   3.795
 2424SOL    HW2 7557   3.418   1.314   3.793
 2425SOL     OW 7558   2.326   1.743   4.047
 2425SOL    HW1 7559   2.359   1.782   4.133
 2425SOL    HW2 7560   2.402   1.736   3.982
 2426SOL     OW 7561   3.262   0.107   4.150
 2426SOL    HW1 7562   3.238   0.070   4.060
 2426SOL    HW2 7563   3.361   0.123   4.154
 2427SOL     OW 7564   2.111   1.785   4.965
 2427SOL    HW1 7565   2.168   1.720   5.015
 2427SOL    HW2 7566   2.095   1.752   4.872
 2428SOL     OW 7567   2.802   1.698   4.628
 2428SOL    HW1 7568   2.882   1.641   4.649
 2428SOL    HW2 7569   2.753   1.658   4.551
 2429SOL     OW 7570   2.244   0.700   4.204
 2429SOL    HW1 7571   2.289   0.610   4.201
 2429SOL    HW2 7572   2.150   0.689   4.237
 2430SOL     OW 7573   3.409   0.222   5.453
 2430SOL    HW1 7574   3.404   0.259   5.545
 2430SOL    HW2 7575   3.337   0.153   5.441
 2431SOL     OW 7576   2.476   0.122   3.841
 2431SOL    HW1 7577   2.574   0.100   3.848
 2431SOL    HW2 7578   2.445   0.105   3.748
 2432SOL     OW 7579   2.643   0.264   5.473
 2432SOL    HW1 7580   2.710   0.203   5.516
 2432SOL    HW2 7581   2.570   0.283   5.538
 2433SOL     OW 7582   2.750   1.514   4.919
 2433SOL    HW1 7583   2.727   1.489   4.825
 2433SOL    HW2 7584   2.811   1.445   4.958
 2434SOL     OW 7585   3.213   0.590   5.157
 2434SOL    HW1 7586   3.241   0.547   5.242
 2434SOL    HW2 7587   3.238   0.686   5.158
 2435SOL     OW 7588   2.665   1.402   4.648
 2435SOL    HW1 7589   2.755   1.416   4.606
 2435SOL    HW2 7590   2.594   1.404   4.577
 2436SOL     OW 7591   2.784   0.503   4.623
 2436SOL    HW1 7592   2.759   0.494   4.527
 2436SOL    HW2 7593   2.832   0.421   4.654
 2437SOL     OW 7594   2.401   0.064   4.236
 2437SOL    HW1 7595   2.320   0.065   4.294
 2437SOL    HW2 7596   2.404   0.147   4.181
 2438SOL     OW 7597   3.296   1.188   3.765
 2438SOL    HW1 7598   3.328   1.112   3.822
 2438SOL    HW2 7599   3.204   1.215   3.795
 2439SOL     OW 7600   2.159   0.035   3.895
 2439SOL    HW1 7601   2.208   0.119   3.874
 2439SOL    HW2 7602   2.221  -0.030   3.940
 2440SOL     OW 7603   2.797   0.236   4.204
 2440SOL    HW1 7604   2.749   0.277   4.126
 2440SOL    HW2 7605   2.896   0.234   4.185
 2441SOL     OW 7606   2.938   0.683   5.188
 2441SOL    HW1 7607   2.858   0.622   5.191
 2441SOL    HW2 7608   3.019   0.630   5.164
 2442SOL     OW 7609   3.089   1.570   4.517
 2442SOL    HW1 7610   3.110   1.644   4.452
 2442SOL    HW2 7611   3.157   1.570   4.590
 2443SOL     OW 7612   2.321   1.152   4.465
 2443SOL    HW1 7613   2.250   1.125   4.530
 2443SOL    HW2 7614   2.295   1.124   4.372
 2444SOL     OW 7615   3.133   1.797   4.315
 2444SOL    HW1 7616   3.177   1.861   4.251
 2444SOL    HW2 7617   3.083   1.849   4.385
 2445SOL     OW 7618   2.894   0.549   3.740
 2445SOL    HW1 7619   2.853   0.631   3.701
 2445SOL    HW2 7620   2.958   0.575   3.813
 2446SOL     OW 7621   1.940   0.556   5.110
 2446SOL    HW1 7622   2.032   0.555   5.069
 2446SOL    HW2 7623   1.934   0.630   5.177
 2447SOL     OW 7624   2.423   0.222   4.871
 2447SOL    HW1 7625   2.461   0.138   4.908
 2447SOL    HW2 7626   2.335   0.241   4.915
 2448SOL     OW 7627   2.728   0.454   4.366
 2448SOL    HW1 7628   2.696   0.526   4.304
 2448SOL    HW2 7629   2.752   0.373   4.313
 2449SOL     OW 7630   2.879   0.039   4.477
 2449SOL    HW1 7631   2.807   0.044   4.408
 2449SOL    HW2 7632   2.855  -0.030   4.546
 2450SOL     OW 7633   3.291   1.173   4.591
 2450SOL    HW1 7634   3.236   1.089   4.584
 2450SOL    HW2 7635   3.317   1.202   4.499
 2451SOL     OW 7636   3.328   0.590   4.716
 2451SOL    HW1 7637   3.298   0.495   4.723
 2451SOL    HW2 7638   3.401   0.606   4.782
 2452SOL     OW 7639   3.719   0.833   4.101
 2452SOL    HW1 7640   3.761   0.769   4.165
 2452SOL    HW2 7641   3.681   0.782   4.023
 2453SOL     OW 7642   2.350   1.385   3.898
 2453SOL    HW1 7643   2.263   1.370   3.945
 2453SOL    HW2 7644   2.333   1.411   3.803
 2454SOL     OW 7645   3.526   1.280   4.381
 2454SOL    HW1 7646   3.625   1.288   4.395
 2454SOL    HW2 7647   3.481   1.364   4.412
 2455SOL     OW 7648   3.252   0.575   3.802
 2455SOL    HW1 7649   3.198   0.554   3.883
 2455SOL    HW2 7650   3.343   0.534   3.811
 2456SOL     OW 7651   2.389   0.256   4.052
 2456SOL    HW1 7652   2.416   0.197   3.977
 2456SOL    HW2 7653   2.389   0.351   4.021
 2457SOL     OW 7654   3.616   1.223   5.312
 2457SOL    HW1 7655   3.707   1.184   5.299
 2457SOL    HW2 7656   3.624   1.319   5.336
 2458SOL     OW 7657   2.926   1.347   5.064
 2458SOL    HW1 7658   2.846   1.324   5.119
 2458SOL    HW2 7659   3.009   1.321   5.113
 2459SOL     OW 7660   3.454   1.629   5.349
 2459SOL    HW1 7661   3.481   1.663   5.259
 2459SOL    HW2 7662   3.533   1.591   5.395
 2460SOL     OW 7663   2.973   1.195   4.824
 2460SOL    HW1 7664   2.933   1.239   4.905
 2460SOL    HW2 7665   2.932   1.232   4.741
 2461SOL     OW 7666   3.500   1.099   4.803
 2461SOL    HW1 7667   3.505   1.180   4.862
 2461SOL    HW2 7668   3.414   1.101   4.752
 2462SOL     OW 7669   2.777   0.089   5.126
 2462SOL    HW1 7670   2.802   0.069   5.031
 2462SOL    HW2 7671   2.849   0.145   5.168
 2463SOL     OW 7672   2.842   1.116   5.443
 2463SOL    HW1 7673   2.743   1.122   5.453
 2463SOL    HW2 7674   2.865   1.036   5.387
 2464SOL     OW 7675   2.567   1.050   4.092
 2464SOL    HW1 7676   2.553   1.057   4.191
 2464SOL    HW2 7677   2.651   0.999   4.074
 2465SOL     OW 7678   2.272   0.813   4.975
 2465SOL    HW1 7679   2.358   0.825   5.025
 2465SOL    HW2 7680   2.230   0.726   5.002
 2466SOL     OW 7681   3.136   0.386   4.986
 2466SOL    HW1 7682   3.157   0.460   5.050
 2466SOL    HW2 7683   3.047   0.403   4.943
 2467SOL     OW 7684   1.926   1.564   5.055
 2467SOL    HW1 7685   1.880   1.646   5.021
 2467SOL    HW2 7686   2.024   1.583   5.064
 2468SOL     OW 7687   2.229   1.100   4.225
 2468SOL    HW1 7688   2.222   1.183   4.169
 2468SOL    HW2 7689   2.233   1.020   4.165
 2469SOL     OW 7690   2.428   0.537   4.589
 2469SOL    HW1 7691   2.440   0.603   4.515
 2469SOL    HW2 7692   2.474   0.571   4.672
 2470SOL     OW 7693   3.114   1.348   4.112
 2470SOL    HW1 7694   3.164   1.425   4.152
 2470SOL    HW2 7695   3.019   1.350   4.144
 2471SOL     OW 7696   3.134   1.445   4.866
 2471SOL    HW1 7697   3.181   1.458   4.953
 2471SOL    HW2 7698   3.068   1.371   4.875
 2472SOL     OW 7699   3.444   0.639   4.196
 2472SOL    HW1 7700   3.413   0.700   4.269
 2472SOL    HW2 7701   3.494   0.691   4.127
 2473SOL     OW 7702   2.216   1.510   5.053
 2473SOL    HW1 7703   2.195   1.466   4.966
 2473SOL    HW2 7704   2.313   1.536   5.056
 2474SOL     OW 7705   2.264   0.751   5.322
 2474SOL    HW1 7706   2.332   0.806   5.275
 2474SOL    HW2 7707   2.304   0.663   5.349
 2475SOL     OW 7708   3.449   0.779   5.394
 2475SOL    HW1 7709   3.357   0.817   5.389
 2475SOL    HW2 7710   3.509   0.826   5.329
 2476SOL     OW 7711   2.875   0.105   5.494
 2476SOL    HW1 7712   2.881   0.190   5.442
 2476SOL    HW2 7713   2.907   0.029   5.437
 2477SOL     OW 7714   2.366   0.050   5.464
 2477SOL    HW1 7715   2.324  -0.007   5.394
 2477SOL    HW2 7716   2.300   0.119   5.496
 2478SOL     OW 7717   2.435   0.870   4.753
 2478SOL    HW1 7718   2.479   0.959   4.744
 2478SOL    HW2 7719   2.372   0.870   4.830
 2479SOL     OW 7720   3.222   0.862   4.769
 2479SOL    HW1 7721   3.147   0.862   4.703
 2479SOL    HW2 7722   3.259   0.770   4.778
 2480SOL     OW 7723   3.071   0.525   3.999
 2480SOL    HW1 7724   3.084   0.441   4.053
 2480SOL    HW2 7725   3.042   0.599   4.059
 2481SOL     OW 7726   2.169   0.213   4.955
 2481SOL    HW1 7727   2.146   0.250   5.045
 2481SOL    HW2 7728   2.139   0.118   4.949
 2482SOL     OW 7729   1.899   1.310   5.006
 2482SOL    HW1 7730   1.952   1.261   5.074
 2482SOL    HW2 7731   1.921   1.408   5.011
 2483SOL     OW 7732   2.594   0.634   4.788
 2483SOL    HW1 7733   2.653   0.608   4.712
 2483SOL    HW2 7734   2.566   0.730   4.777
 2484SOL     OW 7735   3.590   0.935   5.578
 2484SOL    HW1 7736   3.544   0.928   5.489
 2484SOL    HW2 7737   3.528   0.979   5.644
 2485SOL     OW 7738   2.169   0.063   4.342
 2485SOL    HW1 7739   2.158   0.157   4.375
 2485SOL    HW2 7740   2.164   0.000   4.419
 2486SOL     OW 7741   3.484   0.367   4.098
 2486SOL    HW1 7742   3.486   0.291   4.162
 2486SOL    HW2 7743   3.436   0.444   4.138
 2487SOL     OW 7744   2.885   0.766   4.690
 2487SOL    HW1 7745   2.900   0.787   4.786
 2487SOL    HW2 7746   2.855   0.671   4.681
 2488SOL     OW 7747   2.842   1.573   5.424
 2488SOL    HW1 7748   2.822   1.617   5.336
 2488SOL    HW2 7749   2.881   1.482   5.408
 2489SOL     OW 7750   3.721   1.518   5.329
 2489SOL    HW1 7751   3.735   1.545   5.234
 2489SOL    HW2 7752   3.804   1.540   5.382
 2490SOL     OW 7753   2.212   0.898   5.528
 2490SOL    HW1 7754   2.288   0.942   5.576
 2490SOL    HW2 7755   2.247   0.851   5.446
 2491SOL     OW 7756   3.402   0.274   3.849
 2491SOL    HW1 7757   3.341   0.199   3.872
 2491SOL    HW2 7758   3.424   0.326   3.932
 2492SOL     OW 7759   3.165   0.838   3.766
 2492SOL    HW1 7760   3.199   0.745   3.781
 2492SOL    HW2 7761   3.183   0.865   3.671
 2493SOL     OW 7762   2.930   1.333   4.573
 2493SOL    HW1 7763   2.937   1.249   4.518
 2493SOL    HW2 7764   2.992   1.402   4.537
 2494SOL     OW 7765   2.181   0.810   4.673
 2494SOL    HW1 7766   2.274   0.846   4.678
 2494SOL    HW2 7767   2.175   0.725   4.725
 2495SOL     OW 7768   2.201   0.509   4.730
 2495SOL    HW1 7769   2.149   0.426   4.713
 2495SOL    HW2 7770   2.278   0.514   4.666
 2496SOL     OW 7771   3.000   0.380   5.402
 2496SOL    HW1 7772   2.955   0.443   5.466
 2496SOL    HW2 7773   3.093   0.411   5.385
 2497SOL     OW 7774   3.022   0.207   5.201
 2497SOL    HW1 7775   3.022   0.271   5.278
 2497SOL    HW2 7776   3.050   0.255   5.118
 2498SOL     OW 7777   1.870   1.326   3.924
 2498SOL    HW1 7778   1.777   1.347   3.893
 2498SOL    HW2 7779   1.880   1.227   3.937
 2499SOL     OW 7780   1.950   1.801   4.651
 2499SOL    HW1 7781   1.908   1.715   4.624
 2499SOL    HW2 7782   2.044   1.804   4.617
 2500SOL     OW 7783   2.366   1.568   4.634
 2500SOL    HW1 7784   2.432   1.642   4.643
 2500SOL    HW2 7785   2.410   1.489   4.592
 2501SOL     OW 7786   2.864   0.796   4.962
 2501SOL    HW1 7787   2.905   0.764   5.048
 2501SOL    HW2 7788   2.768   0.769   4.959
 2502SOL     OW 7789   1.902   0.544   4.838
 2502SOL    HW1 7790   1.987   0.511   4.797
 2502SOL    HW2 7791   1.915   0.559   4.936
 2503SOL     OW 7792   2.051   0.520   5.446
 2503SOL    HW1 7793   2.110   0.480   5.376
 2503SOL    HW2 7794   1.993   0.591   5.405
 2504SOL     OW 7795   3.231   0.950   5.384
 2504SOL    HW1 7796   3.270   1.039   5.404
 2504SOL    HW2 7797   3.241   0.930   5.287
 2505SOL     OW 7798   2.677   0.572   4.049
 2505SOL    HW1 7799   2.684   0.483   4.003
 2505SOL    HW2 7800   2.583   0.606   4.041
 2506SOL     OW 7801   3.519   0.604   4.930
 2506SOL    HW1 7802   3.481   0.535   4.992
 2506SOL    HW2 7803   3.601   0.568   4.886
 2507SOL     OW 7804   2.114   1.564   5.468
 2507SOL    HW1 7805   2.084   1.621   5.544
 2507SOL    HW2 7806   2.107   1.467   5.494
 2508SOL     OW 7807   2.533   0.464   4.993
 2508SOL    HW1 7808   2.499   0.375   4.963
 2508SOL    HW2 7809   2.559   0.518   4.913
 2509SOL     OW 7810   2.792   1.678   5.189
 2509SOL    HW1 7811   2.768   1.660   5.094
 2509SOL    HW2 7812   2.822   1.772   5.199
 2510SOL     OW 7813   2.335   0.500   3.915
 2510SOL    HW1 7814   2.396   0.580   3.919
 2510SOL    HW2 7815   2.240   0.531   3.922
 2511SOL     OW 7816   2.021   1.137   5.190
 2511SOL    HW1 7817   2.043   1.076   5.266
 2511SOL    HW2 7818   2.031   1.088   5.104
 2512SOL     OW 7819   3.209   1.059   4.958
 2512SOL    HW1 7820   3.233   0.996   4.884
 2512SOL    HW2 7821   3.119   1.099   4.940
 2513SOL     OW 7822   3.164   0.855   4.033
 2513SOL    HW1 7823   3.078   0.824   4.075
 2513SOL    HW2 7824   3.160   0.841   3.934
 2514SOL     OW 7825   3.621   1.747   4.878
 2514SOL    HW1 7826   3.682   1.777   4.805
 2514SOL    HW2 7827   3.583   1.658   4.856
 2515SOL     OW 7828   3.114   1.731   4.852
 2515SOL    HW1 7829   3.198   1.736   4.798
 2515SOL    HW2 7830   3.091   1.635   4.870
 2516SOL     OW 7831   1.945   1.258   4.746
 2516SOL    HW1 7832   1.940   1.257   4.846
 2516SOL    HW2 7833   1.862   1.217   4.708
 2517SOL     OW 7834   2.550   1.662   5.440
 2517SOL    HW1 7835   2.494   1.743   5.449
 2517SOL    HW2 7836   2.602   1.666   5.354
 2518SOL     OW 7837   3.588   0.135   4.247
 2518SOL    HW1 7838   3.661   0.118   4.180
 2518SOL    HW2 7839   3.557   0.048   4.285
 2519SOL     OW 7840   3.250   1.573   4.201
 2519SOL    HW1 7841   3.317   1.585   4.127
 2519SOL    HW2 7842   3.210   1.662   4.224
 2520SOL     OW 7843   1.992   1.794   5.575
 2520SOL    HW1 7844   1.951   1.720   5.628
 2520SOL    HW2 7845   2.056   1.845   5.633
 2521SOL     OW 7846   3.142   0.927   4.396
 2521SOL    HW1 7847   3.202   0.846   4.398
 2521SOL    HW2 7848   3.182   0.996   4.336
 2522SOL     OW 7849   2.692   1.273   5.146
 2522SOL    HW1 7850   2.687   1.306   5.241
 2522SOL    HW2 7851   2.606   1.292   5.100
 2523SOL     OW 7852   2.534   1.616   3.878
 2523SOL    HW1 7853   2.543   1.626   3.779
 2523SOL    HW2 7854   2.494   1.527   3.899
 2524SOL     OW 7855   3.512   1.720   5.118
 2524SOL    HW1 7856   3.565   1.730   5.034
 2524SOL    HW2 7857   3.485   1.810   5.152
 2525SOL     OW 7858   3.703   0.175   4.687
 2525SOL    HW1 7859   3.742   0.090   4.651
 2525SOL    HW2 7860   3.605   0.177   4.668
 2526SOL     OW 7861   2.125   0.326   4.444
 2526SOL    HW1 7862   2.046   0.377   4.410
 2526SOL    HW2 7863   2.116   0.311   4.542
 2527SOL     OW 7864   3.056   1.612   3.755
 2527SOL    HW1 7865   3.062   1.519   3.792
 2527SOL    HW2 7866   2.997   1.612   3.675
 2528SOL     OW 7867   2.684   1.002   5.096
 2528SOL    HW1 7868   2.724   1.001   5.004
 2528SOL    HW2 7869   2.694   1.094   5.136
 2529SOL     OW 7870   2.778   0.910   4.015
 2529SOL    HW1 7871   2.841   0.948   3.947
 2529SOL    HW2 7872   2.818   0.827   4.054
 2530SOL     OW 7873   3.366   1.607   3.768
 2530SOL    HW1 7874   3.274   1.644   3.775
 2530SOL    HW2 7875   3.404   1.627   3.678
 2531SOL     OW 7876   2.234   1.288   5.214
 2531SOL    HW1 7877   2.221   1.381   5.180
 2531SOL    HW2 7878   2.150   1.236   5.201
 2532SOL     OW 7879   3.476   1.292   5.013
 2532SOL    HW1 7880   3.536   1.295   5.093
 2532SOL    HW2 7881   3.401   1.356   5.026
 2533SOL     OW 7882   2.901   1.098   4.420
 2533SOL    HW1 7883   2.831   1.051   4.474
 2533SOL    HW2 7884   2.960   1.030   4.377
 2534SOL     OW 7885   2.876   0.236   4.695
 2534SOL    HW1 7886   2.868   0.200   4.602
 2534SOL    HW2 7887   2.874   0.160   4.760
 2535SOL     OW 7888   2.452   1.487   4.215
 2535SOL    HW1 7889   2.494   1.429   4.145
 2535SOL    HW2 7890   2.408   1.566   4.171
 2536SOL     OW 7891   3.571   0.385   5.105
 2536SOL    HW1 7892   3.644   0.454   5.109
 2536SOL    HW2 7893   3.599   0.310   5.046
 2537SOL     OW 7894   2.117   1.348   4.014
 2537SOL    HW1 7895   2.021   1.349   3.987
 2537SOL    HW2 7896   2.129   1.401   4.098
 2538SOL     OW 7897   1.967   1.013   5.450
 2538SOL    HW1 7898   1.890   0.980   5.504
 2538SOL    HW2 7899   2.052   0.983   5.492
 2539SOL     OW 7900   2.534   0.203   5.213
 2539SOL    HW1 7901   2.624   0.187   5.173
 2539SOL    HW2 7902   2.542   0.208   5.312
 2540SOL     OW 7903   1.937   0.345   3.757
 2540SOL    HW1 7904   1.845   0.317   3.728
 2540SOL    HW2 7905   1.968   0.422   3.701
 2541SOL     OW 7906   3.302   0.856   5.122
 2541SOL    HW1 7907   3.245   0.908   5.059
 2541SOL    HW2 7908   3.398   0.868   5.098
 2542SOL     OW 7909   1.934   0.166   4.042
 2542SOL    HW1 7910   1.917   0.249   3.988
 2542SOL    HW2 7911   2.024   0.129   4.020
 2543SOL     OW 7912   3.045   1.335   3.843
 2543SOL    HW1 7913   2.946   1.324   3.845
 2543SOL    HW2 7914   3.079   1.350   3.936
 2544SOL     OW 7915   2.475   0.842   5.155
 2544SOL    HW1 7916   2.531   0.923   5.138
 2544SOL    HW2 7917   2.534   0.762   5.158
 2545SOL     OW 7918   3.355   1.767   4.683
 2545SOL    HW1 7919   3.388   1.831   4.614
 2545SOL    HW2 7920   3.421   1.761   4.758
 2546SOL     OW 7921   2.578   0.565   5.432
 2546SOL    HW1 7922   2.597   0.630   5.506
 2546SOL    HW2 7923   2.638   0.485   5.441
 2547SOL     OW 7924   3.312   1.220   5.357
 2547SOL    HW1 7925   3.303   1.210   5.456
 2547SOL    HW2 7926   3.408   1.213   5.331
 2548SOL     OW 7927   2.252   1.741   5.284
 2548SOL    HW1 7928   2.161   1.782   5.282
 2548SOL    HW2 7929   2.245   1.647   5.316
 2549SOL     OW 7930   3.536   0.883   4.978
 2549SOL    HW1 7931   3.509   0.794   4.941
 2549SOL    HW2 7932   3.537   0.951   4.905
 2550SOL     OW 7933   3.087   0.325   4.173
 2550SOL    HW1 7934   3.152   0.251   4.162
 2550SOL    HW2 7935   3.107   0.375   4.257
 2551SOL     OW 7936   2.456   0.745   4.376
 2551SOL    HW1 7937   2.506   0.830   4.357
 2551SOL    HW2 7938   2.368   0.747   4.328
 2552SOL     OW 7939   3.639   0.342   5.366
 2552SOL    HW1 7940   3.622   0.373   5.272
 2552SOL    HW2 7941   3.555   0.305   5.404
 2553SOL     OW 7942   3.592   0.934   5.241
 2553SOL    HW1 7943   3.630   1.025   5.256
 2553SOL    HW2 7944   3.584   0.917   5.142
 2554SOL     OW 7945   2.721   1.374   3.740
 2554SOL    HW1 7946   2.675   1.389   3.828
 2554SOL    HW2 7947   2.765   1.459   3.710
 2555SOL     OW 7948   2.523   1.790   4.677
 2555SOL    HW1 7949   2.477   1.878   4.664
 2555SOL    HW2 7950   2.622   1.802   4.670
 2556SOL     OW 7951   2.721   0.956   4.585
 2556SOL    HW1 7952   2.775   0.887   4.633
 2556SOL    HW2 7953   2.689   1.025   4.651
 2557SOL     OW 7954   2.945   0.984   3.811
 2557SOL    HW1 7955   2.922   1.037   3.729
 2557SOL    HW2 7956   3.026   0.928   3.792
 2558SOL     OW 7957   3.723   1.569   4.575
 2558SOL    HW1 7958   3.652   1.557   4.505
 2558SOL    HW2 7959   3.724   1.490   4.635
 2559SOL     OW 7960   2.083   1.314   5.568
 2559SOL    HW1 7961   2.018   1.241   5.547
 2559SOL    HW2 7962   2.087   1.328   5.666
 2560SOL     OW 7963   1.941   1.240   4.377
 2560SOL    HW1 7964   1.940   1.193   4.465
 2560SOL    HW2 7965   2.023   1.212   4.326
 2561SOL     OW 7966   2.534   1.391   5.348
 2561SOL    HW1 7967   2.456   1.341   5.386
 2561SOL    HW2 7968   2.531   1.486   5.379
 2562SOL     OW 7969   3.686   0.192   4.951
 2562SOL    HW1 7970   3.682   0.102   4.995
 2562SOL    HW2 7971   3.689   0.181   4.852
 2563SOL     OW 7972   2.290   0.424   4.244
 2563SOL    HW1 7973   2.320   0.352   4.182
 2563SOL    HW2 7974   2.251   0.384   4.327
 2564SOL     OW 7975   3.567   1.487   4.828
 2564SOL    HW1 7976   3.474   1.462   4.801
 2564SOL    HW2 7977   3.593   1.437   4.910
 2565SOL     OW 7978   2.179   0.547   5.004
 2565SOL    HW1 7979   2.217   0.488   5.076
 2565SOL    HW2 7980   2.219   0.521   4.916
 2566SOL     OW 7981   2.674   1.586   4.411
 2566SOL    HW1 7982   2.706   1.596   4.317
 2566SOL    HW2 7983   2.595   1.524   4.413
 2567SOL     OW 7984   3.286   0.214   4.836
 2567SOL    HW1 7985   3.338   0.149   4.891
 2567SOL    HW2 7986   3.237   0.277   4.897
 2568SOL     OW 7987   2.863   0.034   4.878
 2568SOL    HW1 7988   2.800  -0.038   4.847
 2568SOL    HW2 7989   2.956  -0.002   4.878
 2569SOL     OW 7990   2.632   1.330   4.025
 2569SOL    HW1 7991   2.586   1.243   4.042
 2569SOL    HW2 7992   2.723   1.327   4.066
 2570SOL     OW 7993   2.480   1.567   5.008
 2570SOL    HW1 7994   2.475   1.649   5.065
 2570SOL    HW2 7995   2.569   1.564   4.963
 2571SOL     OW 7996   3.214   0.052   3.892
 2571SOL    HW1 7997   3.249   0.011   3.808
 2571SOL    HW2 7998   3.124   0.014   3.912
 2572SOL     OW 7999   3.162   0.453   4.415
 2572SOL    HW1 8000   3.103   0.533   4.419
 2572SOL    HW2 8001   3.177   0.418   4.508
 2573SOL     OW 8002   3.455   0.221   4.606
 2573SOL    HW1 8003   3.371   0.220   4.660
 2573SOL    HW2 8004   3.457   0.304   4.550
 2574SOL     OW 8005   1.901   1.077   4.024
 2574SOL    HW1 8006   2.000   1.066   4.015
 2574SOL    HW2 8007   1.861   0.991   4.056
 2575SOL     OW 8008   2.737   1.646   4.061
 2575SOL    HW1 8009   2.660   1.611   4.007
 2575SOL    HW2 8010   2.705   1.717   4.123
 2576SOL     OW 8011   2.092   2.490   0.113
 2576SOL    HW1 8012   1.999   2.488   0.150
 2576SOL    HW2 8013   2.093   2.451   0.021
 2577SOL     OW 8014   2.087   2.137   0.996
 2577SOL    HW1 8015   2.122   2.120   1.088
 2577SOL    HW2 8016   1.999   2.092   0.984
 2578SOL     OW 8017   1.881   2.230   0.647
 2578SOL    HW1 8018   1.799   2.273   0.686
 2578SOL    HW2 8019   1.853   2.157   0.584
 2579SOL     OW 8020   2.431   3.137   1.165
 2579SOL    HW1 8021   2.338   3.130   1.128
 2579SOL    HW2 8022   2.442   3.226   1.209
 2580SOL     OW 8023   3.417   3.373   0.703
 2580SOL    HW1 8024   3.360   3.357   0.784
 2580SOL    HW2 8025   3.358   3.383   0.623
 2581SOL     OW 8026   2.997   2.565   0.717
 2581SOL    HW1 8027   3.054   2.643   0.692
 2581SOL    HW2 8028   2.937   2.591   0.793
 2582SOL     OW 8029   3.617   2.469   0.231
 2582SOL    HW1 8030   3.605   2.456   0.132
 2582SOL    HW2 8031   3.587   2.388   0.280
 2583SOL     OW 8032   2.630   3.006   1.023
 2583SOL    HW1 8033   2.552   3.023   1.083
 2583SOL    HW2 8034   2.664   3.093   0.987
 2584SOL     OW 8035   2.547   2.874   0.665
 2584SOL    HW1 8036   2.616   2.858   0.735
 2584SOL    HW2 8037   2.474   2.931   0.703
 2585SOL     OW 8038   2.197   3.297   1.061
 2585SOL    HW1 8039   2.119   3.266   1.008
 2585SOL    HW2 8040   2.255   3.355   1.004
 2586SOL     OW 8041   2.300   2.254   1.499
 2586SOL    HW1 8042   2.382   2.198   1.508
 2586SOL    HW2 8043   2.219   2.196   1.503
 2587SOL     OW 8044   3.465   2.309   0.737
 2587SOL    HW1 8045   3.391   2.355   0.687
 2587SOL    HW2 8046   3.516   2.377   0.790
 2588SOL     OW 8047   2.093   3.575   0.483
 2588SOL    HW1 8048   2.127   3.652   0.537
 2588SOL    HW2 8049   2.137   3.575   0.393
 2589SOL     OW 8050   2.989   3.203   1.690
 2589SOL    HW1 8051   3.036   3.203   1.778
 2589SOL    HW2 8052   2.941   3.116   1.679
 2590SOL     OW 8053   2.092   3.296   0.538
 2590SOL    HW1 8054   2.066   3.392   0.538
 2590SOL    HW2 8055   2.021   3.242   0.583
 2591SOL     OW 8056   2.102   2.953   0.886
 2591SOL    HW1 8057   2.116   2.869   0.938
 2591SOL    HW2 8058   2.047   3.017   0.941
 2592SOL     OW 8059   2.482   3.648   1.439
 2592SOL    HW1 8060   2.390   3.631   1.474
 2592SOL    HW2 8061   2.510   3.740   1.465
 2593SOL     OW 8062   2.468   2.826   0.123
 2593SOL    HW1 8063   2.475   2.910   0.069
 2593SOL    HW2 8064   2.514   2.839   0.211
 2594SOL     OW 8065   3.456   1.976   1.480
 2594SOL    HW1 8066   3.438   2.043   1.408
 2594SOL    HW2 8067   3.453   2.022   1.569
 2595SOL     OW 8068   1.984   2.505   0.563
 2595SOL    HW1 8069   1.939   2.417   0.580
 2595SOL    HW2 8070   1.983   2.559   0.647
 2596SOL     OW 8071   3.704   3.629   0.359
 2596SOL    HW1 8072   3.758   3.600   0.439
 2596SOL    HW2 8073   3.734   3.719   0.330
 2597SOL     OW 8074   1.889   3.458   0.117
 2597SOL    HW1 8075   1.870   3.362   0.138
 2597SOL    HW2 8076   1.856   3.516   0.192
 2598SOL     OW 8077   3.551   2.784   0.612
 2598SOL    HW1 8078   3.646   2.755   0.620
 2598SOL    HW2 8079   3.543   2.849   0.537
 2599SOL     OW 8080   3.503   2.970   0.432
 2599SOL    HW1 8081   3.589   2.972   0.380
 2599SOL    HW2 8082   3.517   3.017   0.520
 2600SOL     OW 8083   1.975   2.599   1.597
 2600SOL    HW1 8084   2.063   2.586   1.642
 2600SOL    HW2 8085   1.962   2.696   1.575
 2601SOL     OW 8086   2.475   3.227   0.726
 2601SOL    HW1 8087   2.426   3.140   0.735
 2601SOL    HW2 8088   2.452   3.270   0.639
 2602SOL     OW 8089   2.671   1.866   0.502
 2602SOL    HW1 8090   2.711   1.957   0.493
 2602SOL    HW2 8091   2.571   1.874   0.508
 2603SOL     OW 8092   2.059   2.838   1.264
 2603SOL    HW1 8093   2.148   2.793   1.250
 2603SOL    HW2 8094   1.986   2.773   1.245
 2604SOL     OW 8095   3.387   2.861   0.190
 2604SOL    HW1 8096   3.324   2.785   0.203
 2604SOL    HW2 8097   3.435   2.879   0.276
 2605SOL     OW 8098   3.049   3.654   1.616
 2605SOL    HW1 8099   3.073   3.714   1.540
 2605SOL    HW2 8100   3.056   3.559   1.586
 2606SOL     OW 8101   2.179   2.113   1.801
 2606SOL    HW1 8102   2.250   2.184   1.807
 2606SOL    HW2 8103   2.091   2.152   1.829
 2607SOL     OW 8104   3.328   3.279   0.953
 2607SOL    HW1 8105   3.269   3.285   1.033
 2607SOL    HW2 8106   3.313   3.191   0.907
 2608SOL     OW 8107   3.529   3.576   0.572
 2608SOL    HW1 8108   3.488   3.553   0.484
 2608SOL    HW2 8109   3.511   3.502   0.637
 2609SOL     OW 8110   2.460   2.591   0.270
 2609SOL    HW1 8111   2.484   2.660   0.202
 2609SOL    HW2 8112   2.382   2.624   0.324
 2610SOL     OW 8113   3.143   2.207   0.944
 2610SOL    HW1 8114   3.057   2.157   0.931
 2610SOL    HW2 8115   3.205   2.153   1.000
 2611SOL     OW 8116   3.438   3.524   0.307
 2611SOL    HW1 8117   3.527   3.570   0.310
 2611SOL    HW2 8118   3.417   3.500   0.212
 2612SOL     OW 8119   2.669   2.467   1.465
 2612SOL    HW1 8120   2.622   2.464   1.554
 2612SOL    HW2 8121   2.618   2.412   1.399
 2613SOL     OW 8122   3.256   2.331   1.674
 2613SOL    HW1 8123   3.236   2.374   1.762
 2613SOL    HW2 8124   3.334   2.269   1.683
 2614SOL     OW 8125   2.853   2.272   1.242
 2614SOL    HW1 8126   2.776   2.306   1.296
 2614SOL    HW2 8127   2.819   2.221   1.163
 2615SOL     OW 8128   2.903   2.563   0.429
 2615SOL    HW1 8129   2.929   2.559   0.525
 2615SOL    HW2 8130   2.818   2.512   0.415
 2616SOL     OW 8131   1.938   2.673   0.789
 2616SOL    HW1 8132   2.037   2.661   0.798
 2616SOL    HW2 8133   1.914   2.768   0.810
 2617SOL     OW 8134   1.992   3.683   1.571
 2617SOL    HW1 8135   1.982   3.668   1.670
 2617SOL    HW2 8136   1.906   3.719   1.535
 2618SOL     OW 8137   2.727   2.210   0.195
 2618SOL    HW1 8138   2.786   2.273   0.146
 2618SOL    HW2 8139   2.746   2.116   0.166
 2619SOL     OW 8140   3.581   2.447   1.831
 2619SOL    HW1 8141   3.555   2.536   1.795
 2619SOL    HW2 8142   3.579   2.379   1.758
 2620SOL     OW 8143   3.224   3.006   0.545
 2620SOL    HW1 8144   3.307   2.977   0.497
 2620SOL    HW2 8145   3.175   3.073   0.489
 2621SOL     OW 8146   2.412   2.058   0.885
 2621SOL    HW1 8147   2.407   2.053   0.985
 2621SOL    HW2 8148   2.414   2.154   0.856
 2622SOL     OW 8149   2.870   3.318   0.477
 2622SOL    HW1 8150   2.824   3.390   0.425
 2622SOL    HW2 8151   2.866   3.338   0.575
 2623SOL     OW 8152   2.213   3.663   0.853
 2623SOL    HW1 8153   2.263   3.577   0.859
 2623SOL    HW2 8154   2.278   3.740   0.850
 2624SOL     OW 8155   3.657   2.928   0.873
 2624SOL    HW1 8156   3.595   2.913   0.797
 2624SOL    HW2 8157   3.605   2.939   0.958
 2625SOL     OW 8158   2.183   2.805   0.242
 2625SOL    HW1 8159   2.265   2.844   0.200
 2625SOL    HW2 8160   2.156   2.723   0.193
 2626SOL     OW 8161   3.320   2.597   0.728
 2626SOL    HW1 8162   3.315   2.532   0.803
 2626SOL    HW2 8163   3.400   2.656   0.741
 2627SOL     OW 8164   2.323   3.128   1.727
 2627SOL    HW1 8165   2.273   3.129   1.641
 2627SOL    HW2 8166   2.260   3.110   1.803
 2628SOL     OW 8167   2.973   3.638   0.237
 2628SOL    HW1 8168   2.913   3.576   0.287
 2628SOL    HW2 8169   3.004   3.594   0.152
 2629SOL     OW 8170   2.064   2.147   1.498
 2629SOL    HW1 8171   1.984   2.207   1.485
 2629SOL    HW2 8172   2.054   2.098   1.584
 2630SOL     OW 8173   3.494   3.239   0.081
 2630SOL    HW1 8174   3.462   3.333   0.071
 2630SOL    HW2 8175   3.418   3.176   0.069
 2631SOL     OW 8176   2.326   3.605   0.323
 2631SOL    HW1 8177   2.359   3.644   0.409
 2631SOL    HW2 8178   2.402   3.598   0.258
 2632SOL     OW 8179   3.262   1.969   0.426
 2632SOL    HW1 8180   3.238   1.932   0.336
 2632SOL    HW2 8181   3.361   1.985   0.430
 2633SOL     OW 8182   2.111   3.647   1.241
 2633SOL    HW1 8183   2.168   3.582   1.291
 2633SOL    HW2 8184   2.095   3.614   1.148
 2634SOL     OW 8185   2.802   3.560   0.904
 2634SOL    HW1 8186   2.882   3.503   0.925
 2634SOL    HW2 8187   2.753   3.520   0.827
 2635SOL     OW 8188   2.244   2.562   0.480
 2635SOL    HW1 8189   2.289   2.472   0.477
 2635SOL    HW2 8190   2.150   2.551   0.513
 2636SOL     OW 8191   3.409   2.084   1.729
 2636SOL    HW1 8192   3.404   2.121   1.821
 2636SOL    HW2 8193   3.337   2.015   1.717
 2637SOL     OW 8194   2.476   1.984   0.117
 2637SOL    HW1 8195   2.574   1.962   0.124
 2637SOL    HW2 8196   2.445   1.967   0.024
 2638SOL     OW 8197   2.643   2.126   1.749
 2638SOL    HW1 8198   2.710   2.065   1.792
 2638SOL    HW2 8199   2.570   2.145   1.814
 2639SOL     OW 8200   2.750   3.376   1.195
 2639SOL    HW1 8201   2.727   3.351   1.101
 2639SOL    HW2 8202   2.811   3.307   1.234
 2640SOL     OW 8203   2.665   3.264   0.924
 2640SOL    HW1 8204   2.755   3.278   0.882
 2640SOL    HW2 8205   2.594   3.266   0.853
 2641SOL     OW 8206   2.784   2.365   0.899
 2641SOL    HW1 8207   2.759   2.356   0.803
 2641SOL    HW2 8208   2.832   2.283   0.930
 2642SOL     OW 8209   2.401   1.926   0.512
 2642SOL    HW1 8210   2.320   1.927   0.570
 2642SOL    HW2 8211   2.404   2.009   0.457
 2643SOL     OW 8212   3.296   3.050   0.041
 2643SOL    HW1 8213   3.328   2.974   0.098
 2643SOL    HW2 8214   3.204   3.077   0.071
 2644SOL     OW 8215   2.159   1.897   0.171
 2644SOL    HW1 8216   2.208   1.981   0.150
 2644SOL    HW2 8217   2.221   1.832   0.216
 2645SOL     OW 8218   2.797   2.098   0.480
 2645SOL    HW1 8219   2.749   2.139   0.402
 2645SOL    HW2 8220   2.896   2.096   0.461
 2646SOL     OW 8221   3.089   3.432   0.793
 2646SOL    HW1 8222   3.110   3.506   0.728
 2646SOL    HW2 8223   3.157   3.432   0.866
 2647SOL     OW 8224   2.321   3.014   0.741
 2647SOL    HW1 8225   2.250   2.987   0.806
 2647SOL    HW2 8226   2.295   2.986   0.648
 2648SOL     OW 8227   3.133   3.659   0.591
 2648SOL    HW1 8228   3.177   3.723   0.527
 2648SOL    HW2 8229   3.083   3.711   0.661
 2649SOL     OW 8230   2.894   2.411   0.016
 2649SOL    HW1 8231   2.853   2.493  -0.023
 2649SOL    HW2 8232   2.958   2.437   0.089
 2650SOL     OW 8233   1.940   2.418   1.386
 2650SOL    HW1 8234   2.032   2.417   1.345
 2650SOL    HW2 8235   1.934   2.492   1.453
 2651SOL     OW 8236   2.423   2.084   1.147
 2651SOL    HW1 8237   2.461   2.000   1.184
 2651SOL    HW2 8238   2.335   2.103   1.191
 2652SOL     OW 8239   2.728   2.316   0.642
 2652SOL    HW1 8240   2.696   2.388   0.580
 2652SOL    HW2 8241   2.752   2.235   0.589
 2653SOL     OW 8242   2.879   1.901   0.753
 2653SOL    HW1 8243   2.807   1.906   0.684
 2653SOL    HW2 8244   2.855   1.832   0.822
 2654SOL     OW 8245   3.291   3.035   0.867
 2654SOL    HW1 8246   3.236   2.951   0.860
 2654SOL    HW2 8247   3.317   3.064   0.775
 2655SOL     OW 8248   3.328   2.452   0.992
 2655SOL    HW1 8249   3.298   2.357   0.999
 2655SOL    HW2 8250   3.401   2.468   1.058
 2656SOL     OW 8251   3.719   2.695   0.377
 2656SOL    HW1 8252   3.761   2.631   0.441
 2656SOL    HW2 8253   3.681   2.644   0.299
 2657SOL     OW 8254   2.350   3.247   0.174
 2657SOL    HW1 8255   2.263   3.232   0.221
 2657SOL    HW2 8256   2.333   3.273   0.079
 2658SOL     OW 8257   3.526   3.142   0.657
 2658SOL    HW1 8258   3.625   3.150   0.671
 2658SOL    HW2 8259   3.481   3.226   0.688
 2659SOL     OW 8260   3.252   2.437   0.078
 2659SOL    HW1 8261   3.198   2.416   0.159
 2659SOL    HW2 8262   3.343   2.396   0.087
 2660SOL     OW 8263   2.389   2.118   0.328
 2660SOL    HW1 8264   2.416   2.059   0.253
 2660SOL    HW2 8265   2.389   2.213   0.297
 2661SOL     OW 8266   3.616   3.085   1.588
 2661SOL    HW1 8267   3.707   3.046   1.575
 2661SOL    HW2 8268   3.624   3.181   1.612
 2662SOL     OW 8269   3.454   3.491   1.625
 2662SOL    HW1 8270   3.481   3.525   1.535
 2662SOL    HW2 8271   3.533   3.453   1.671
 2663SOL     OW 8272   2.973   3.057   1.100
 2663SOL    HW1 8273   2.933   3.101   1.181
 2663SOL    HW2 8274   2.932   3.094   1.017
 2664SOL     OW 8275   3.500   2.961   1.079
 2664SOL    HW1 8276   3.505   3.042   1.138
 2664SOL    HW2 8277   3.414   2.963   1.028
 2665SOL     OW 8278   2.777   1.951   1.402
 2665SOL    HW1 8279   2.802   1.931   1.307
 2665SOL    HW2 8280   2.849   2.007   1.444
 2666SOL     OW 8281   2.842   2.978   1.719
 2666SOL    HW1 8282   2.743   2.984   1.729
 2666SOL    HW2 8283   2.865   2.898   1.663
 2667SOL     OW 8284   2.567   2.912   0.368
 2667SOL    HW1 8285   2.553   2.919   0.467
 2667SOL    HW2 8286   2.651   2.861   0.350
 2668SOL     OW 8287   2.272   2.675   1.251
 2668SOL    HW1 8288   2.358   2.687   1.301
 2668SOL    HW2 8289   2.230   2.588   1.278
 2669SOL     OW 8290   3.136   2.248   1.262
 2669SOL    HW1 8291   3.157   2.322   1.326
 2669SOL    HW2 8292   3.047   2.265   1.219
 2670SOL     OW 8293   1.926   3.426   1.331
 2670SOL    HW1 8294   1.880   3.508   1.297
 2670SOL    HW2 8295   2.024   3.445   1.340
 2671SOL     OW 8296   2.229   2.962   0.501
 2671SOL    HW1 8297   2.222   3.045   0.445
 2671SOL    HW2 8298   2.233   2.882   0.441
 2672SOL     OW 8299   2.428   2.399   0.865
 2672SOL    HW1 8300   2.440   2.465   0.791
 2672SOL    HW2 8301   2.474   2.433   0.948
 2673SOL     OW 8302   3.114   3.210   0.388
 2673SOL    HW1 8303   3.164   3.287   0.428
 2673SOL    HW2 8304   3.019   3.212   0.420
 2674SOL     OW 8305   3.134   3.307   1.142
 2674SOL    HW1 8306   3.181   3.320   1.229
 2674SOL    HW2 8307   3.068   3.233   1.151
 2675SOL     OW 8308   3.444   2.501   0.472
 2675SOL    HW1 8309   3.413   2.562   0.545
 2675SOL    HW2 8310   3.494   2.553   0.403
 2676SOL     OW 8311   2.216   3.372   1.329
 2676SOL    HW1 8312   2.195   3.328   1.242
 2676SOL    HW2 8313   2.313   3.398   1.332
 2677SOL     OW 8314   2.264   2.613   1.598
 2677SOL    HW1 8315   2.332   2.668   1.551
 2677SOL    HW2 8316   2.304   2.525   1.625
 2678SOL     OW 8317   3.449   2.641   1.670
 2678SOL    HW1 8318   3.357   2.679   1.665
 2678SOL    HW2 8319   3.509   2.688   1.605
 2679SOL     OW 8320   2.875   1.967   1.770
 2679SOL    HW1 8321   2.881   2.052   1.718
 2679SOL    HW2 8322   2.907   1.891   1.713
 2680SOL     OW 8323   2.366   1.912   1.740
 2680SOL    HW1 8324   2.324   1.855   1.670
 2680SOL    HW2 8325   2.300   1.981   1.772
 2681SOL     OW 8326   2.435   2.732   1.029
 2681SOL    HW1 8327   2.479   2.821   1.020
 2681SOL    HW2 8328   2.372   2.732   1.106
 2682SOL     OW 8329   3.222   2.724   1.045
 2682SOL    HW1 8330   3.147   2.724   0.979
 2682SOL    HW2 8331   3.259   2.632   1.054
 2683SOL     OW 8332   3.071   2.387   0.275
 2683SOL    HW1 8333   3.084   2.303   0.329
 2683SOL    HW2 8334   3.042   2.461   0.335
 2684SOL     OW 8335   2.169   2.075   1.231
 2684SOL    HW1 8336   2.146   2.112   1.321
 2684SOL    HW2 8337   2.139   1.980   1.225
 2685SOL     OW 8338   1.899   3.172   1.282
 2685SOL    HW1 8339   1.952   3.123   1.350
 2685SOL    HW2 8340   1.921   3.270   1.287
 2686SOL     OW 8341   2.594   2.496   1.064
 2686SOL    HW1 8342   2.653   2.470   0.988
 2686SOL    HW2 8343   2.566   2.592   1.053
 2687SOL     OW 8344   3.590   2.797   1.854
 2687SOL    HW1 8345   3.544   2.790   1.765
 2687SOL    HW2 8346   3.528   2.841   1.920
 2688SOL     OW 8347   2.169   1.925   0.618
 2688SOL    HW1 8348   2.158   2.019   0.651
 2688SOL    HW2 8349   2.164   1.862   0.695
 2689SOL     OW 8350   3.484   2.229   0.374
 2689SOL    HW1 8351   3.486   2.153   0.438
 2689SOL    HW2 8352   3.436   2.306   0.414
 2690SOL     OW 8353   2.885   2.628   0.966
 2690SOL    HW1 8354   2.900   2.649   1.062
 2690SOL    HW2 8355   2.855   2.533   0.957
 2691SOL     OW 8356   2.842   3.435   1.700
 2691SOL    HW1 8357   2.822   3.479   1.612
 2691SOL    HW2 8358   2.881   3.344   1.684
 2692SOL     OW 8359   3.721   3.380   1.605
 2692SOL    HW1 8360   3.735   3.407   1.510
 2692SOL    HW2 8361   3.804   3.402   1.658
 2693SOL     OW 8362   2.212   2.760   1.804
 2693SOL    HW1 8363   2.288   2.804   1.852
 2693SOL    HW2 8364   2.247   2.713   1.722
 2694SOL     OW 8365   3.402   2.136   0.125
 2694SOL    HW1 8366   3.341   2.061   0.148
 2694SOL    HW2 8367   3.424   2.188   0.208
 2695SOL     OW 8368   3.165   2.700   0.042
 2695SOL    HW1 8369   3.199   2.607   0.057
 2695SOL    HW2 8370   3.183   2.727  -0.053
 2696SOL     OW 8371   2.930   3.195   0.849
 2696SOL    HW1 8372   2.937   3.111   0.794
 2696SOL    HW2 8373   2.992   3.264   0.813
 2697SOL     OW 8374   2.181   2.672   0.949
 2697SOL    HW1 8375   2.274   2.708   0.954
 2697SOL    HW2 8376   2.175   2.587   1.001
 2698SOL     OW 8377   2.201   2.371   1.006
 2698SOL    HW1 8378   2.149   2.288   0.989
 2698SOL    HW2 8379   2.278   2.376   0.942
 2699SOL     OW 8380   3.000   2.242   1.678
 2699SOL    HW1 8381   2.955   2.305   1.742
 2699SOL    HW2 8382   3.093   2.273   1.661
 2700SOL     OW 8383   3.022   2.069   1.477
 2700SOL    HW1 8384   3.022   2.133   1.554
 2700SOL    HW2 8385   3.050   2.117   1.394
 2701SOL     OW 8386   1.870   3.188   0.200
 2701SOL    HW1 8387   1.777   3.209   0.169
 2701SOL    HW2 8388   1.880   3.089   0.213
 2702SOL     OW 8389   1.950   3.663   0.927
 2702SOL    HW1 8390   1.908   3.577   0.900
 2702SOL    HW2 8391   2.044   3.666   0.893
 2703SOL     OW 8392   2.366   3.430   0.910
 2703SOL    HW1 8393   2.432   3.504   0.919
 2703SOL    HW2 8394   2.410   3.351   0.868
 2704SOL     OW 8395   2.864   2.658   1.238
 2704SOL    HW1 8396   2.905   2.626   1.324
 2704SOL    HW2 8397   2.768   2.631   1.235
 2705SOL     OW 8398   1.902   2.406   1.114
 2705SOL    HW1 8399   1.987   2.373   1.073
 2705SOL    HW2 8400   1.915   2.421   1.212
 2706SOL     OW 8401   2.051   2.382   1.722
 2706SOL    HW1 8402   2.110   2.342   1.652
 2706SOL    HW2 8403   1.993   2.453   1.681
 2707SOL     OW 8404   3.231   2.812   1.660
 2707SOL    HW1 8405   3.270   2.901   1.680
 2707SOL    HW2 8406   3.241   2.792   1.563
 2708SOL     OW 8407   2.677   2.434   0.325
 2708SOL    HW1 8408   2.684   2.345   0.279
 2708SOL    HW2 8409   2.583   2.468   0.317
 2709SOL     OW 8410   3.519   2.466   1.206
 2709SOL    HW1 8411   3.481   2.397   1.268
 2709SOL    HW2 8412   3.601   2.430   1.162
 2710SOL     OW 8413   2.114   3.426   1.744
 2710SOL    HW1 8414   2.084   3.483   1.820
 2710SOL    HW2 8415   2.107   3.329   1.770
 2711SOL     OW 8416   2.533   2.326   1.269
 2711SOL    HW1 8417   2.499   2.237   1.239
 2711SOL    HW2 8418   2.559   2.380   1.189
 2712SOL     OW 8419   2.792   3.540   1.465
 2712SOL    HW1 8420   2.768   3.522   1.370
 2712SOL    HW2 8421   2.822   3.634   1.475
 2713SOL     OW 8422   2.335   2.362   0.191
 2713SOL    HW1 8423   2.396   2.442   0.195
 2713SOL    HW2 8424   2.240   2.393   0.198
 2714SOL     OW 8425   2.021   2.999   1.466
 2714SOL    HW1 8426   2.043   2.938   1.542
 2714SOL    HW2 8427   2.031   2.950   1.380
 2715SOL     OW 8428   3.164   2.717   0.309
 2715SOL    HW1 8429   3.078   2.686   0.351
 2715SOL    HW2 8430   3.160   2.703   0.210
 2716SOL     OW 8431   3.621   3.609   1.154
 2716SOL    HW1 8432   3.682   3.639   1.081
 2716SOL    HW2 8433   3.583   3.520   1.132
 2717SOL     OW 8434   1.945   3.120   1.022
 2717SOL    HW1 8435   1.940   3.119   1.122
 2717SOL    HW2 8436   1.862   3.079   0.984
 2718SOL     OW 8437   2.550   3.524   1.716
 2718SOL    HW1 8438   2.494   3.605   1.725
 2718SOL    HW2 8439   2.602   3.528   1.630
 2719SOL     OW 8440   2.765   1.948   0.133
 2719SOL    HW1 8441   2.816   1.949   0.047
 2719SOL    HW2 8442   2.821   1.906   0.204
 2720SOL     OW 8443   3.588   1.997   0.523
 2720SOL    HW1 8444   3.661   1.980   0.456
 2720SOL    HW2 8445   3.557   1.910   0.561
 2721SOL     OW 8446   3.250   3.435   0.477
 2721SOL    HW1 8447   3.317   3.447   0.403
 2721SOL    HW2 8448   3.210   3.524   0.500
 2722SOL     OW 8449   1.992   3.656   1.851
 2722SOL    HW1 8450   1.951   3.582   1.904
 2722SOL    HW2 8451   2.056   3.707   1.909
 2723SOL     OW 8452   3.142   2.789   0.672
 2723SOL    HW1 8453   3.202   2.708   0.674
 2723SOL    HW2 8454   3.182   2.858   0.612
 2724SOL     OW 8455   2.534   3.478   0.154
 2724SOL    HW1 8456   2.543   3.488   0.055
 2724SOL    HW2 8457   2.494   3.389   0.175
 2725SOL     OW 8458   3.512   3.582   1.394
 2725SOL    HW1 8459   3.565   3.592   1.310
 2725SOL    HW2 8460   3.485   3.672   1.428
 2726SOL     OW 8461   3.703   2.037   0.963
 2726SOL    HW1 8462   3.742   1.952   0.927
 2726SOL    HW2 8463   3.605   2.039   0.944
 2727SOL     OW 8464   2.125   2.188   0.720
 2727SOL    HW1 8465   2.046   2.239   0.686
 2727SOL    HW2 8466   2.116   2.173   0.818
 2728SOL     OW 8467   3.056   3.474   0.031
 2728SOL    HW1 8468   3.062   3.381   0.068
 2728SOL    HW2 8469   2.997   3.474  -0.049
 2729SOL     OW 8470   2.778   2.772   0.291
 2729SOL    HW1 8471   2.841   2.810   0.223
 2729SOL    HW2 8472   2.818   2.689   0.330
 2730SOL     OW 8473   3.366   3.469   0.044
 2730SOL    HW1 8474   3.274   3.506   0.051
 2730SOL    HW2 8475   3.404   3.489  -0.046
 2731SOL     OW 8476   2.234   3.150   1.490
 2731SOL    HW1 8477   2.221   3.243   1.456
 2731SOL    HW2 8478   2.150   3.098   1.477
 2732SOL     OW 8479   3.476   3.154   1.289
 2732SOL    HW1 8480   3.536   3.157   1.369
 2732SOL    HW2 8481   3.401   3.218   1.302
 2733SOL     OW 8482   2.901   2.960   0.696
 2733SOL    HW1 8483   2.831   2.913   0.750
 2733SOL    HW2 8484   2.960   2.892   0.653
 2734SOL     OW 8485   2.876   2.098   0.971
 2734SOL    HW1 8486   2.868   2.062   0.878
 2734SOL    HW2 8487   2.874   2.022   1.036
 2735SOL     OW 8488   2.452   3.349   0.491
 2735SOL    HW1 8489   2.494   3.291   0.421
 2735SOL    HW2 8490   2.408   3.428   0.447
 2736SOL     OW 8491   3.571   2.247   1.381
 2736SOL    HW1 8492   3.644   2.316   1.385
 2736SOL    HW2 8493   3.599   2.172   1.322
 2737SOL     OW 8494   2.117   3.210   0.290
 2737SOL    HW1 8495   2.021   3.211   0.263
 2737SOL    HW2 8496   2.129   3.263   0.374
 2738SOL     OW 8497   1.967   2.875   1.726
 2738SOL    HW1 8498   1.890   2.842   1.780
 2738SOL    HW2 8499   2.052   2.845   1.768
 2739SOL     OW 8500   2.534   2.065   1.489
 2739SOL    HW1 8501   2.624   2.049   1.449
 2739SOL    HW2 8502   2.542   2.070   1.588
 2740SOL     OW 8503   1.937   2.207   0.033
 2740SOL    HW1 8504   1.845   2.179   0.004
 2740SOL    HW2 8505   1.968   2.284  -0.023
 2741SOL     OW 8506   1.934   2.028   0.318
 2741SOL    HW1 8507   1.917   2.111   0.264
 2741SOL    HW2 8508   2.024   1.991   0.296
 2742SOL     OW 8509   3.045   3.197   0.119
 2742SOL    HW1 8510   2.946   3.186   0.121
 2742SOL    HW2 8511   3.079   3.212   0.212
 2743SOL     OW 8512   3.355   3.629   0.959
 2743SOL    HW1 8513   3.388   3.693   0.890
 2743SOL    HW2 8514   3.421   3.623   1.034
 2744SOL     OW 8515   3.312   3.082   1.633
 2744SOL    HW1 8516   3.303   3.072   1.732
 2744SOL    HW2 8517   3.408   3.075   1.607
 2745SOL     OW 8518   2.252   3.603   1.560
 2745SOL    HW1 8519   2.161   3.644   1.558
 2745SOL    HW2 8520   2.245   3.509   1.592
 2746SOL     OW 8521   3.536   2.745   1.254
 2746SOL    HW1 8522   3.509   2.656   1.217
 2746SOL    HW2 8523   3.537   2.813   1.181
 2747SOL     OW 8524   3.087   2.187   0.449
 2747SOL    HW1 8525   3.152   2.113   0.438
 2747SOL    HW2 8526   3.107   2.237   0.533
 2748SOL     OW 8527   2.456   2.607   0.652
 2748SOL    HW1 8528   2.506   2.692   0.633
 2748SOL    HW2 8529   2.368   2.609   0.604
 2749SOL     OW 8530   3.639   2.204   1.642
 2749SOL    HW1 8531   3.622   2.235   1.548
 2749SOL    HW2 8532   3.555   2.167   1.680
 2750SOL     OW 8533   3.592   2.796   1.517
 2750SOL    HW1 8534   3.630   2.887   1.532
 2750SOL    HW2 8535   3.584   2.779   1.418
 2751SOL     OW 8536   2.721   3.236   0.016
 2751SOL    HW1 8537   2.675   3.251   0.104
 2751SOL    HW2 8538   2.765   3.321  -0.014
 2752SOL     OW 8539   2.523   3.652   0.953
 2752SOL    HW1 8540   2.477   3.740   0.940
 2752SOL    HW2 8541   2.622   3.664   0.946
 2753SOL     OW 8542   2.721   2.818   0.861
 2753SOL    HW1 8543   2.775   2.749   0.909
 2753SOL    HW2 8544   2.689   2.887   0.927
 2754SOL     OW 8545   2.945   2.846   0.087
 2754SOL    HW1 8546   2.922   2.899   0.005
 2754SOL    HW2 8547   3.026   2.790   0.068
 2755SOL     OW 8548   3.723   3.431   0.851
 2755SOL    HW1 8549   3.652   3.419   0.781
 2755SOL    HW2 8550   3.724   3.352   0.911
 2756SOL     OW 8551   2.083   3.176   1.844
 2756SOL    HW1 8552   2.018   3.103   1.823
 2756SOL    HW2 8553   2.087   3.190   1.942
 2757SOL     OW 8554   1.941   3.102   0.653
 2757SOL    HW1 8555   1.940   3.055   0.741
 2757SOL    HW2 8556   2.023   3.074   0.602
 2758SOL     OW 8557   2.534   3.253   1.624
 2758SOL    HW1 8558   2.456   3.203   1.662
 2758SOL    HW2 8559   2.531   3.348   1.655
 2759SOL     OW 8560   3.686   2.054   1.227
 2759SOL    HW1 8561   3.682   1.964   1.271
 2759SOL    HW2 8562   3.689   2.043   1.128
 2760SOL     OW 8563   2.290   2.286   0.520
 2760SOL    HW1 8564   2.320   2.214   0.458
 2760SOL    HW2 8565   2.251   2.246   0.603
 2761SOL     OW 8566   3.567   3.349   1.104
 2761SOL    HW1 8567   3.474   3.324   1.077
 2761SOL    HW2 8568   3.593   3.299   1.186
 2762SOL     OW 8569   2.179   2.409   1.280
 2762SOL    HW1 8570   2.217   2.350   1.352
 2762SOL    HW2 8571   2.219   2.383   1.192
 2763SOL     OW 8572   2.674   3.448   0.687
 2763SOL    HW1 8573   2.706   3.458   0.593
 2763SOL    HW2 8574   2.595   3.386   0.689
 2764SOL     OW 8575   3.286   2.076   1.112
 2764SOL    HW1 8576   3.338   2.011   1.167
 2764SOL    HW2 8577   3.237   2.139   1.173
 2765SOL     OW 8578   2.863   1.896   1.154
 2765SOL    HW1 8579   2.800   1.824   1.123
 2765SOL    HW2 8580   2.956   1.860   1.154
 2766SOL     OW 8581   2.632   3.192   0.301
 2766SOL    HW1 8582   2.586   3.105   0.318
 2766SOL    HW2 8583   2.723   3.189   0.342
 2767SOL     OW 8584   2.480   3.429   1.284
 2767SOL    HW1 8585   2.475   3.511   1.341
 2767SOL    HW2 8586   2.569   3.426   1.239
 2768SOL     OW 8587   3.214   1.914   0.168
 2768SOL    HW1 8588   3.249   1.873   0.084
 2768SOL    HW2 8589   3.124   1.876   0.188
 2769SOL     OW 8590   3.162   2.315   0.691
 2769SOL    HW1 8591   3.103   2.395   0.695
 2769SOL    HW2 8592   3.177   2.280   0.784
 2770SOL     OW 8593   3.455   2.083   0.882
 2770SOL    HW1 8594   3.371   2.082   0.936
 2770SOL    HW2 8595   3.457   2.166   0.826
 2771SOL     OW 8596   1.901   2.939   0.300
 2771SOL    HW1 8597   2.000   2.928   0.291
 2771SOL    HW2 8598   1.861   2.853   0.332
 2772SOL     OW 8599   2.737   3.508   0.337
 2772SOL    HW1 8600   2.660   3.473   0.283
 2772SOL    HW2 8601   2.705   3.579   0.399
 2773SOL     OW 8602   2.092   2.490   1.975
 2773SOL    HW1 8603   1.999   2.488   2.012
 2773SOL    HW2 8604   2.093   2.451   1.883
 2774SOL     OW 8605   2.087   2.137   2.858
 2774SOL    HW1 8606   2.122   2.120   2.950
 2774SOL    HW2 8607   1.999   2.092   2.846
 2775SOL     OW 8608   1.881   2.230   2.509
 2775SOL    HW1 8609   1.799   2.273   2.548
 2775SOL    HW2 8610   1.853   2.157   2.446
 2776SOL     OW 8611   2.431   3.137   3.027
 2776SOL    HW1 8612   2.338   3.130   2.990
 2776SOL    HW2 8613   2.442   3.226   3.071
 2777SOL     OW 8614   3.617   2.469   2.093
 2777SOL    HW1 8615   3.605   2.456   1.994
 2777SOL    HW2 8616   3.587   2.388   2.142
 2778SOL     OW 8617   2.630   3.006   2.885
 2778SOL    HW1 8618   2.552   3.023   2.945
 2778SOL    HW2 8619   2.664   3.093   2.849
 2779SOL     OW 8620   2.197   3.297   2.923
 2779SOL    HW1 8621   2.119   3.266   2.870
 2779SOL    HW2 8622   2.255   3.355   2.866
 2780SOL     OW 8623   3.322   3.367   3.201
 2780SOL    HW1 8624   3.346   3.461   3.227
 2780SOL    HW2 8625   3.306   3.313   3.283
 2781SOL     OW 8626   2.300   2.254   3.361
 2781SOL    HW1 8627   2.382   2.198   3.370
 2781SOL    HW2 8628   2.219   2.196   3.365
 2782SOL     OW 8629   3.465   2.309   2.599
 2782SOL    HW1 8630   3.391   2.355   2.549
 2782SOL    HW2 8631   3.516   2.377   2.652
 2783SOL     OW 8632   2.093   3.575   2.345
 2783SOL    HW1 8633   2.127   3.652   2.399
 2783SOL    HW2 8634   2.137   3.575   2.255
 2784SOL     OW 8635   2.092   3.296   2.400
 2784SOL    HW1 8636   2.066   3.392   2.400
 2784SOL    HW2 8637   2.021   3.242   2.445
 2785SOL     OW 8638   2.102   2.953   2.748
 2785SOL    HW1 8639   2.116   2.869   2.800
 2785SOL    HW2 8640   2.047   3.017   2.803
 2786SOL     OW 8641   2.482   3.648   3.301
 2786SOL    HW1 8642   2.390   3.631   3.336
 2786SOL    HW2 8643   2.510   3.740   3.327
 2787SOL     OW 8644   2.468   2.826   1.985
 2787SOL    HW1 8645   2.475   2.910   1.931
 2787SOL    HW2 8646   2.514   2.839   2.073
 2788SOL     OW 8647   3.456   1.976   3.342
 2788SOL    HW1 8648   3.438   2.043   3.270
 2788SOL    HW2 8649   3.453   2.022   3.431
 2789SOL     OW 8650   1.984   2.505   2.425
 2789SOL    HW1 8651   1.939   2.417   2.442
 2789SOL    HW2 8652   1.983   2.559   2.509
 2790SOL     OW 8653   3.704   3.629   2.221
 2790SOL    HW1 8654   3.758   3.600   2.301
 2790SOL    HW2 8655   3.734   3.719   2.192
 2791SOL     OW 8656   1.889   3.458   1.979
 2791SOL    HW1 8657   1.870   3.362   2.000
 2791SOL    HW2 8658   1.856   3.516   2.054
 2792SOL     OW 8659   3.551   2.784   2.474
 2792SOL    HW1 8660   3.646   2.755   2.482
 2792SOL    HW2 8661   3.543   2.849   2.399
 2793SOL     OW 8662   3.503   2.970   2.294
 2793SOL    HW1 8663   3.589   2.972   2.242
 2793SOL    HW2 8664   3.517   3.017   2.382
 2794SOL     OW 8665   1.975   2.599   3.459
 2794SOL    HW1 8666   2.063   2.586   3.504
 2794SOL    HW2 8667   1.962   2.696   3.437
 2795SOL     OW 8668   2.475   3.227   2.588
 2795SOL    HW1 8669   2.426   3.140   2.597
 2795SOL    HW2 8670   2.452   3.270   2.501
 2796SOL     OW 8671   3.155   3.090   3.285
 2796SOL    HW1 8672   3.192   3.017   3.227
 2796SOL    HW2 8673   3.207   3.095   3.370
 2797SOL     OW 8674   2.671   1.866   2.364
 2797SOL    HW1 8675   2.711   1.957   2.355
 2797SOL    HW2 8676   2.571   1.874   2.370
 2798SOL     OW 8677   2.059   2.838   3.126
 2798SOL    HW1 8678   2.148   2.793   3.112
 2798SOL    HW2 8679   1.986   2.773   3.107
 2799SOL     OW 8680   3.387   2.861   2.052
 2799SOL    HW1 8681   3.324   2.785   2.065
 2799SOL    HW2 8682   3.435   2.879   2.138
 2800SOL     OW 8683   3.049   3.654   3.478
 2800SOL    HW1 8684   3.073   3.714   3.402
 2800SOL    HW2 8685   3.056   3.559   3.448
 2801SOL     OW 8686   2.179   2.113   3.663
 2801SOL    HW1 8687   2.250   2.184   3.669
 2801SOL    HW2 8688   2.091   2.152   3.691
 2802SOL     OW 8689   3.328   3.279   2.815
 2802SOL    HW1 8690   3.269   3.285   2.895
 2802SOL    HW2 8691   3.313   3.191   2.769
 2803SOL     OW 8692   3.529   3.576   2.434
 2803SOL    HW1 8693   3.488   3.553   2.346
 2803SOL    HW2 8694   3.511   3.502   2.499
 2804SOL     OW 8695   3.143   2.207   2.806
 2804SOL    HW1 8696   3.057   2.157   2.793
 2804SOL    HW2 8697   3.205   2.153   2.862
 2805SOL     OW 8698   3.438   3.524   2.169
 2805SOL    HW1 8699   3.527   3.570   2.172
 2805SOL    HW2 8700   3.417   3.500   2.074
 2806SOL     OW 8701   3.256   2.331   3.536
 2806SOL    HW1 8702   3.236   2.374   3.624
 2806SOL    HW2 8703   3.334   2.269   3.545
 2807SOL     OW 8704   1.938   2.673   2.651
 2807SOL    HW1 8705   2.037   2.661   2.660
 2807SOL    HW2 8706   1.914   2.768   2.672
 2808SOL     OW 8707   1.992   3.683   3.433
 2808SOL    HW1 8708   1.982   3.668   3.532
 2808SOL    HW2 8709   1.906   3.719   3.397
 2809SOL     OW 8710   2.727   2.210   2.057
 2809SOL    HW1 8711   2.786   2.273   2.008
 2809SOL    HW2 8712   2.746   2.116   2.028
 2810SOL     OW 8713   3.581   2.447   3.693
 2810SOL    HW1 8714   3.555   2.536   3.657
 2810SOL    HW2 8715   3.579   2.379   3.620
 2811SOL     OW 8716   2.412   2.058   2.747
 2811SOL    HW1 8717   2.407   2.053   2.847
 2811SOL    HW2 8718   2.414   2.154   2.718
 2812SOL     OW 8719   2.213   3.663   2.715
 2812SOL    HW1 8720   2.263   3.577   2.721
 2812SOL    HW2 8721   2.278   3.740   2.712
 2813SOL     OW 8722   3.657   2.928   2.735
 2813SOL    HW1 8723   3.595   2.913   2.659
 2813SOL    HW2 8724   3.605   2.939   2.820
 2814SOL     OW 8725   3.089   3.412   3.368
 2814SOL    HW1 8726   3.095   3.335   3.432
 2814SOL    HW2 8727   3.037   3.386   3.288
 2815SOL     OW 8728   2.183   2.805   2.104
 2815SOL    HW1 8729   2.265   2.844   2.062
 2815SOL    HW2 8730   2.156   2.723   2.055
 2816SOL     OW 8731   3.320   2.597   2.590
 2816SOL    HW1 8732   3.315   2.532   2.665
 2816SOL    HW2 8733   3.400   2.656   2.603
 2817SOL     OW 8734   2.973   3.638   2.099
 2817SOL    HW1 8735   2.913   3.576   2.149
 2817SOL    HW2 8736   3.004   3.594   2.014
 2818SOL     OW 8737   2.064   2.147   3.360
 2818SOL    HW1 8738   1.984   2.207   3.347
 2818SOL    HW2 8739   2.054   2.098   3.446
 2819SOL     OW 8740   3.494   3.239   1.943
 2819SOL    HW1 8741   3.462   3.333   1.933
 2819SOL    HW2 8742   3.418   3.176   1.931
 2820SOL     OW 8743   2.326   3.605   2.185
 2820SOL    HW1 8744   2.359   3.644   2.271
 2820SOL    HW2 8745   2.402   3.598   2.120
 2821SOL     OW 8746   3.262   1.969   2.288
 2821SOL    HW1 8747   3.238   1.932   2.198
 2821SOL    HW2 8748   3.361   1.985   2.292
 2822SOL     OW 8749   2.111   3.647   3.103
 2822SOL    HW1 8750   2.168   3.582   3.153
 2822SOL    HW2 8751   2.095   3.614   3.010
 2823SOL     OW 8752   2.802   3.560   2.766
 2823SOL    HW1 8753   2.882   3.503   2.787
 2823SOL    HW2 8754   2.753   3.520   2.689
 2824SOL     OW 8755   2.244   2.562   2.342
 2824SOL    HW1 8756   2.289   2.472   2.339
 2824SOL    HW2 8757   2.150   2.551   2.375
 2825SOL     OW 8758   3.409   2.084   3.591
 2825SOL    HW1 8759   3.404   2.121   3.683
 2825SOL    HW2 8760   3.337   2.015   3.579
 2826SOL     OW 8761   2.476   1.984   1.979
 2826SOL    HW1 8762   2.574   1.962   1.986
 2826SOL    HW2 8763   2.445   1.967   1.886
 2827SOL     OW 8764   2.643   2.126   3.611
 2827SOL    HW1 8765   2.710   2.065   3.654
 2827SOL    HW2 8766   2.570   2.145   3.676
 2828SOL     OW 8767   3.213   2.452   3.295
 2828SOL    HW1 8768   3.241   2.409   3.380
 2828SOL    HW2 8769   3.238   2.548   3.296
 2829SOL     OW 8770   2.665   3.264   2.786
 2829SOL    HW1 8771   2.755   3.278   2.744
 2829SOL    HW2 8772   2.594   3.266   2.715
 2830SOL     OW 8773   2.401   1.926   2.374
 2830SOL    HW1 8774   2.320   1.927   2.432
 2830SOL    HW2 8775   2.404   2.009   2.319
 2831SOL     OW 8776   2.159   1.897   2.033
 2831SOL    HW1 8777   2.208   1.981   2.012
 2831SOL    HW2 8778   2.221   1.832   2.078
 2832SOL     OW 8779   2.797   2.098   2.342
 2832SOL    HW1 8780   2.749   2.139   2.264
 2832SOL    HW2 8781   2.896   2.096   2.323
 2833SOL     OW 8782   3.089   3.432   2.655
 2833SOL    HW1 8783   3.110   3.506   2.590
 2833SOL    HW2 8784   3.157   3.432   2.728
 2834SOL     OW 8785   2.321   3.014   2.603
 2834SOL    HW1 8786   2.250   2.987   2.668
 2834SOL    HW2 8787   2.295   2.986   2.510
 2835SOL     OW 8788   3.133   3.659   2.453
 2835SOL    HW1 8789   3.177   3.723   2.389
 2835SOL    HW2 8790   3.083   3.711   2.523
 2836SOL     OW 8791   1.940   2.418   3.248
 2836SOL    HW1 8792   2.032   2.417   3.207
 2836SOL    HW2 8793   1.934   2.492   3.315
 2837SOL     OW 8794   2.423   2.084   3.009
 2837SOL    HW1 8795   2.461   2.000   3.046
 2837SOL    HW2 8796   2.335   2.103   3.053
 2838SOL     OW 8797   2.728   2.316   2.504
 2838SOL    HW1 8798   2.696   2.388   2.442
 2838SOL    HW2 8799   2.752   2.235   2.451
 2839SOL     OW 8800   2.879   1.901   2.615
 2839SOL    HW1 8801   2.807   1.906   2.546
 2839SOL    HW2 8802   2.855   1.832   2.684
 2840SOL     OW 8803   3.328   2.452   2.854
 2840SOL    HW1 8804   3.298   2.357   2.861
 2840SOL    HW2 8805   3.401   2.468   2.920
 2841SOL     OW 8806   3.719   2.695   2.239
 2841SOL    HW1 8807   3.761   2.631   2.303
 2841SOL    HW2 8808   3.681   2.644   2.161
 2842SOL     OW 8809   2.350   3.247   2.036
 2842SOL    HW1 8810   2.263   3.232   2.083
 2842SOL    HW2 8811   2.333   3.273   1.941
 2843SOL     OW 8812   3.526   3.142   2.519
 2843SOL    HW1 8813   3.625   3.150   2.533
 2843SOL    HW2 8814   3.481   3.226   2.550
 2844SOL     OW 8815   3.252   2.437   1.940
 2844SOL    HW1 8816   3.198   2.416   2.021
 2844SOL    HW2 8817   3.343   2.396   1.949
 2845SOL     OW 8818   2.389   2.118   2.190
 2845SOL    HW1 8819   2.416   2.059   2.115
 2845SOL    HW2 8820   2.389   2.213   2.159
 2846SOL     OW 8821   3.616   3.085   3.450
 2846SOL    HW1 8822   3.707   3.046   3.437
 2846SOL    HW2 8823   3.624   3.181   3.474
 2847SOL     OW 8824   2.926   3.209   3.202
 2847SOL    HW1 8825   2.846   3.186   3.257
 2847SOL    HW2 8826   3.009   3.183   3.251
 2848SOL     OW 8827   3.454   3.491   3.487
 2848SOL    HW1 8828   3.481   3.525   3.397
 2848SOL    HW2 8829   3.533   3.453   3.533
 2849SOL     OW 8830   3.500   2.961   2.941
 2849SOL    HW1 8831   3.505   3.042   3.000
 2849SOL    HW2 8832   3.414   2.963   2.890
 2850SOL     OW 8833   2.777   1.951   3.264
 2850SOL    HW1 8834   2.802   1.931   3.169
 2850SOL    HW2 8835   2.849   2.007   3.306
 2851SOL     OW 8836   2.272   2.675   3.113
 2851SOL    HW1 8837   2.358   2.687   3.163
 2851SOL    HW2 8838   2.230   2.588   3.140
 2852SOL     OW 8839   3.136   2.248   3.124
 2852SOL    HW1 8840   3.157   2.322   3.188
 2852SOL    HW2 8841   3.047   2.265   3.081
 2853SOL     OW 8842   1.926   3.426   3.193
 2853SOL    HW1 8843   1.880   3.508   3.159
 2853SOL    HW2 8844   2.024   3.445   3.202
 2854SOL     OW 8845   2.229   2.962   2.363
 2854SOL    HW1 8846   2.222   3.045   2.307
 2854SOL    HW2 8847   2.233   2.882   2.303
 2855SOL     OW 8848   2.428   2.399   2.727
 2855SOL    HW1 8849   2.440   2.465   2.653
 2855SOL    HW2 8850   2.474   2.433   2.810
 2856SOL     OW 8851   3.134   3.307   3.004
 2856SOL    HW1 8852   3.181   3.320   3.091
 2856SOL    HW2 8853   3.068   3.233   3.013
 2857SOL     OW 8854   2.216   3.372   3.191
 2857SOL    HW1 8855   2.195   3.328   3.104
 2857SOL    HW2 8856   2.313   3.398   3.194
 2858SOL     OW 8857   2.264   2.613   3.460
 2858SOL    HW1 8858   2.332   2.668   3.413
 2858SOL    HW2 8859   2.304   2.525   3.487
 2859SOL     OW 8860   3.449   2.641   3.532
 2859SOL    HW1 8861   3.357   2.679   3.527
 2859SOL    HW2 8862   3.509   2.688   3.467
 2860SOL     OW 8863   2.875   1.967   3.632
 2860SOL    HW1 8864   2.881   2.052   3.580
 2860SOL    HW2 8865   2.907   1.891   3.575
 2861SOL     OW 8866   2.366   1.912   3.602
 2861SOL    HW1 8867   2.324   1.855   3.532
 2861SOL    HW2 8868   2.300   1.981   3.634
 2862SOL     OW 8869   2.169   2.075   3.093
 2862SOL    HW1 8870   2.146   2.112   3.183
 2862SOL    HW2 8871   2.139   1.980   3.087
 2863SOL     OW 8872   1.899   3.172   3.144
 2863SOL    HW1 8873   1.952   3.123   3.212
 2863SOL    HW2 8874   1.921   3.270   3.149
 2864SOL     OW 8875   3.590   2.797   3.716
 2864SOL    HW1 8876   3.544   2.790   3.627
 2864SOL    HW2 8877   3.528   2.841   3.782
 2865SOL     OW 8878   2.169   1.925   2.480
 2865SOL    HW1 8879   2.158   2.019   2.513
 2865SOL    HW2 8880   2.164   1.862   2.557
 2866SOL     OW 8881   3.484   2.229   2.236
 2866SOL    HW1 8882   3.486   2.153   2.300
 2866SOL    HW2 8883   3.436   2.306   2.276
 2867SOL     OW 8884   2.842   3.435   3.562
 2867SOL    HW1 8885   2.822   3.479   3.474
 2867SOL    HW2 8886   2.881   3.344   3.546
 2868SOL     OW 8887   3.721   3.380   3.467
 2868SOL    HW1 8888   3.735   3.407   3.372
 2868SOL    HW2 8889   3.804   3.402   3.520
 2869SOL     OW 8890   2.212   2.760   3.666
 2869SOL    HW1 8891   2.288   2.804   3.714
 2869SOL    HW2 8892   2.247   2.713   3.584
 2870SOL     OW 8893   3.402   2.136   1.987
 2870SOL    HW1 8894   3.341   2.061   2.010
 2870SOL    HW2 8895   3.424   2.188   2.070
 2871SOL     OW 8896   2.181   2.672   2.811
 2871SOL    HW1 8897   2.274   2.708   2.816
 2871SOL    HW2 8898   2.175   2.587   2.863
 2872SOL     OW 8899   2.201   2.371   2.868
 2872SOL    HW1 8900   2.149   2.288   2.851
 2872SOL    HW2 8901   2.278   2.376   2.804
 2873SOL     OW 8902   3.000   2.242   3.540
 2873SOL    HW1 8903   2.955   2.305   3.604
 2873SOL    HW2 8904   3.093   2.273   3.523
 2874SOL     OW 8905   3.022   2.069   3.339
 2874SOL    HW1 8906   3.022   2.133   3.416
 2874SOL    HW2 8907   3.050   2.117   3.256
 2875SOL     OW 8908   1.870   3.188   2.062
 2875SOL    HW1 8909   1.777   3.209   2.031
 2875SOL    HW2 8910   1.880   3.089   2.075
 2876SOL     OW 8911   1.950   3.663   2.789
 2876SOL    HW1 8912   1.908   3.577   2.762
 2876SOL    HW2 8913   2.044   3.666   2.755
 2877SOL     OW 8914   2.366   3.430   2.772
 2877SOL    HW1 8915   2.432   3.504   2.781
 2877SOL    HW2 8916   2.410   3.351   2.730
 2878SOL     OW 8917   1.902   2.406   2.976
 2878SOL    HW1 8918   1.987   2.373   2.935
 2878SOL    HW2 8919   1.915   2.421   3.074
 2879SOL     OW 8920   2.051   2.382   3.584
 2879SOL    HW1 8921   2.110   2.342   3.514
 2879SOL    HW2 8922   1.993   2.453   3.543
 2880SOL     OW 8923   3.519   2.466   3.068
 2880SOL    HW1 8924   3.481   2.397   3.130
 2880SOL    HW2 8925   3.601   2.430   3.024
 2881SOL     OW 8926   2.114   3.426   3.606
 2881SOL    HW1 8927   2.084   3.483   3.682
 2881SOL    HW2 8928   2.107   3.329   3.632
 2882SOL     OW 8929   2.792   3.540   3.327
 2882SOL    HW1 8930   2.768   3.522   3.232
 2882SOL    HW2 8931   2.822   3.634   3.337
 2883SOL     OW 8932   2.335   2.362   2.053
 2883SOL    HW1 8933   2.396   2.442   2.057
 2883SOL    HW2 8934   2.240   2.393   2.060
 2884SOL     OW 8935   2.021   2.999   3.328
 2884SOL    HW1 8936   2.043   2.938   3.404
 2884SOL    HW2 8937   2.031   2.950   3.242
 2885SOL     OW 8938   3.621   3.609   3.016
 2885SOL    HW1 8939   3.682   3.639   2.943
 2885SOL    HW2 8940   3.583   3.520   2.994
 2886SOL     OW 8941   3.114   3.593   2.990
 2886SOL    HW1 8942   3.198   3.598   2.936
 2886SOL    HW2 8943   3.091   3.497   3.008
 2887SOL     OW 8944   1.945   3.120   2.884
 2887SOL    HW1 8945   1.940   3.119   2.984
 2887SOL    HW2 8946   1.862   3.079   2.846
 2888SOL     OW 8947   2.550   3.524   3.578
 2888SOL    HW1 8948   2.494   3.605   3.587
 2888SOL    HW2 8949   2.602   3.528   3.492
 2889SOL     OW 8950   3.588   1.997   2.385
 2889SOL    HW1 8951   3.661   1.980   2.318
 2889SOL    HW2 8952   3.557   1.910   2.423
 2890SOL     OW 8953   1.992   3.656   3.713
 2890SOL    HW1 8954   1.951   3.582   3.766
 2890SOL    HW2 8955   2.056   3.707   3.771
 2891SOL     OW 8956   2.534   3.478   2.016
 2891SOL    HW1 8957   2.543   3.488   1.917
 2891SOL    HW2 8958   2.494   3.389   2.037
 2892SOL     OW 8959   3.512   3.582   3.256
 2892SOL    HW1 8960   3.565   3.592   3.172
 2892SOL    HW2 8961   3.485   3.672   3.290
 2893SOL     OW 8962   3.703   2.037   2.825
 2893SOL    HW1 8963   3.742   1.952   2.789
 2893SOL    HW2 8964   3.605   2.039   2.806
 2894SOL     OW 8965   2.125   2.188   2.582
 2894SOL    HW1 8966   2.046   2.239   2.548
 2894SOL    HW2 8967   2.116   2.173   2.680
 2895SOL     OW 8968   3.056   3.474   1.893
 2895SOL    HW1 8969   3.062   3.381   1.930
 2895SOL    HW2 8970   2.997   3.474   1.813
 2896SOL     OW 8971   3.366   3.469   1.906
 2896SOL    HW1 8972   3.274   3.506   1.913
 2896SOL    HW2 8973   3.404   3.489   1.816
 2897SOL     OW 8974   2.234   3.150   3.352
 2897SOL    HW1 8975   2.221   3.243   3.318
 2897SOL    HW2 8976   2.150   3.098   3.339
 2898SOL     OW 8977   2.876   2.098   2.833
 2898SOL    HW1 8978   2.868   2.062   2.740
 2898SOL    HW2 8979   2.874   2.022   2.898
 2899SOL     OW 8980   3.571   2.247   3.243
 2899SOL    HW1 8981   3.644   2.316   3.247
 2899SOL    HW2 8982   3.599   2.172   3.184
 2900SOL     OW 8983   2.117   3.210   2.152
 2900SOL    HW1 8984   2.021   3.211   2.125
 2900SOL    HW2 8985   2.129   3.263   2.236
 2901SOL     OW 8986   1.967   2.875   3.588
 2901SOL    HW1 8987   1.890   2.842   3.642
 2901SOL    HW2 8988   2.052   2.845   3.630
 2902SOL     OW 8989   2.534   2.065   3.351
 2902SOL    HW1 8990   2.624   2.049   3.311
 2902SOL    HW2 8991   2.542   2.070   3.450
 2903SOL     OW 8992   1.937   2.207   1.895
 2903SOL    HW1 8993   1.845   2.179   1.866
 2903SOL    HW2 8994   1.968   2.284   1.839
 2904SOL     OW 8995   1.934   2.028   2.180
 2904SOL    HW1 8996   1.917   2.111   2.126
 2904SOL    HW2 8997   2.024   1.991   2.158
 2905SOL     OW 8998   3.355   3.629   2.821
 2905SOL    HW1 8999   3.388   3.693   2.752
 2905SOL    HW2 9000   3.421   3.623   2.896
 2906SOL     OW 9001   3.312   3.082   3.495
 2906SOL    HW1 9002   3.303   3.072   3.594
 2906SOL    HW2 9003   3.408   3.075   3.469
 2907SOL     OW 9004   2.252   3.603   3.422
 2907SOL    HW1 9005   2.161   3.644   3.420
 2907SOL    HW2 9006   2.245   3.509   3.454
 2908SOL     OW 9007   3.087   2.187   2.311
 2908SOL    HW1 9008   3.152   2.113   2.300
 2908SOL    HW2 9009   3.107   2.237   2.395
 2909SOL     OW 9010   2.456   2.607   2.514
 2909SOL    HW1 9011   2.506   2.692   2.495
 2909SOL    HW2 9012   2.368   2.609   2.466
 2910SOL     OW 9013   3.639   2.204   3.504
 2910SOL    HW1 9014   3.622   2.235   3.410
 2910SOL    HW2 9015   3.555   2.167   3.542
 2911SOL     OW 9016   2.523   3.652   2.815
 2911SOL    HW1 9017   2.477   3.740   2.802
 2911SOL    HW2 9018   2.622   3.664   2.808
 2912SOL     OW 9019   3.723   3.431   2.713
 2912SOL    HW1 9020   3.652   3.419   2.643
 2912SOL    HW2 9021   3.724   3.352   2.773
 2913SOL     OW 9022   2.083   3.176   3.706
 2913SOL    HW1 9023   2.018   3.103   3.685
 2913SOL    HW2 9024   2.087   3.190   3.804
 2914SOL     OW 9025   1.941   3.102   2.515
 2914SOL    HW1 9026   1.940   3.055   2.603
 2914SOL    HW2 9027   2.023   3.074   2.464
 2915SOL     OW 9028   3.686   2.054   3.089
 2915SOL    HW1 9029   3.682   1.964   3.133
 2915SOL    HW2 9030   3.689   2.043   2.990
 2916SOL     OW 9031   2.290   2.286   2.382
 2916SOL    HW1 9032   2.320   2.214   2.320
 2916SOL    HW2 9033   2.251   2.246   2.465
 2917SOL     OW 9034   3.567   3.349   2.966
 2917SOL    HW1 9035   3.474   3.324   2.939
 2917SOL    HW2 9036   3.593   3.299   3.048
 2918SOL     OW 9037   2.179   2.409   3.142
 2918SOL    HW1 9038   2.217   2.350   3.214
 2918SOL    HW2 9039   2.219   2.383   3.054
 2919SOL     OW 9040   3.286   2.076   2.974
 2919SOL    HW1 9041   3.338   2.011   3.029
 2919SOL    HW2 9042   3.237   2.139   3.035
 2920SOL     OW 9043   2.863   1.896   3.016
 2920SOL    HW1 9044   2.800   1.824   2.985
 2920SOL    HW2 9045   2.956   1.860   3.016
 2921SOL     OW 9046   2.480   3.429   3.146
 2921SOL    HW1 9047   2.475   3.511   3.203
 2921SOL    HW2 9048   2.569   3.426   3.101
 2922SOL     OW 9049   3.214   1.914   2.030
 2922SOL    HW1 9050   3.249   1.873   1.946
 2922SOL    HW2 9051   3.124   1.876   2.050
 2923SOL     OW 9052   3.455   2.083   2.744
 2923SOL    HW1 9053   3.371   2.082   2.798
 2923SOL    HW2 9054   3.457   2.166   2.688
 2924SOL     OW 9055   1.901   2.939   2.162
 2924SOL    HW1 9056   2.000   2.928   2.153
 2924SOL    HW2 9057   1.861   2.853   2.194
 2925SOL     OW 9058   2.092   2.490   3.837
 2925SOL    HW1 9059   1.999   2.488   3.874
 2925SOL    HW2 9060   2.093   2.451   3.745
 2926SOL     OW 9061   2.087   2.137   4.720
 2926SOL    HW1 9062   2.122   2.120   4.812
 2926SOL    HW2 9063   1.999   2.092   4.708
 2927SOL     OW 9064   1.881   2.230   4.371
 2927SOL    HW1 9065   1.799   2.273   4.410
 2927SOL    HW2 9066   1.853   2.157   4.308
 2928SOL     OW 9067   2.431   3.137   4.889
 2928SOL    HW1 9068   2.338   3.130   4.852
 2928SOL    HW2 9069   2.442   3.226   4.933
 2929SOL     OW 9070   3.417   3.373   4.427
 2929SOL    HW1 9071   3.360   3.357   4.508
 2929SOL    HW2 9072   3.358   3.383   4.347
 2930SOL     OW 9073   2.997   2.565   4.441
 2930SOL    HW1 9074   3.054   2.643   4.416
 2930SOL    HW2 9075   2.937   2.591   4.517
 2931SOL     OW 9076   3.617   2.469   3.955
 2931SOL    HW1 9077   3.605   2.456   3.856
 2931SOL    HW2 9078   3.587   2.388   4.004
 2932SOL     OW 9079   2.712   2.660   5.547
 2932SOL    HW1 9080   2.708   2.736   5.612
 2932SOL    HW2 9081   2.734   2.696   5.456
 2933SOL     OW 9082   2.548   3.023   5.527
 2933SOL    HW1 9083   2.608   3.102   5.541
 2933SOL    HW2 9084   2.462   3.054   5.486
 2934SOL     OW 9085   2.197   3.297   4.785
 2934SOL    HW1 9086   2.119   3.266   4.732
 2934SOL    HW2 9087   2.255   3.355   4.728
 2935SOL     OW 9088   3.322   3.367   5.063
 2935SOL    HW1 9089   3.346   3.461   5.089
 2935SOL    HW2 9090   3.306   3.313   5.145
 2936SOL     OW 9091   2.300   2.254   5.223
 2936SOL    HW1 9092   2.382   2.198   5.232
 2936SOL    HW2 9093   2.219   2.196   5.227
 2937SOL     OW 9094   3.465   2.309   4.461
 2937SOL    HW1 9095   3.391   2.355   4.411
 2937SOL    HW2 9096   3.516   2.377   4.514
 2938SOL     OW 9097   2.093   3.575   4.207
 2938SOL    HW1 9098   2.127   3.652   4.261
 2938SOL    HW2 9099   2.137   3.575   4.117
 2939SOL     OW 9100   2.989   3.203   5.414
 2939SOL    HW1 9101   3.036   3.203   5.502
 2939SOL    HW2 9102   2.941   3.116   5.403
 2940SOL     OW 9103   2.092   3.296   4.262
 2940SOL    HW1 9104   2.066   3.392   4.262
 2940SOL    HW2 9105   2.021   3.242   4.307
 2941SOL     OW 9106   2.102   2.953   4.610
 2941SOL    HW1 9107   2.116   2.869   4.662
 2941SOL    HW2 9108   2.047   3.017   4.665
 2942SOL     OW 9109   2.482   3.648   5.163
 2942SOL    HW1 9110   2.390   3.631   5.198
 2942SOL    HW2 9111   2.510   3.740   5.189
 2943SOL     OW 9112   3.456   1.976   5.204
 2943SOL    HW1 9113   3.438   2.043   5.132
 2943SOL    HW2 9114   3.453   2.022   5.293
 2944SOL     OW 9115   1.984   2.505   4.287
 2944SOL    HW1 9116   1.939   2.417   4.304
 2944SOL    HW2 9117   1.983   2.559   4.371
 2945SOL     OW 9118   3.704   3.629   4.083
 2945SOL    HW1 9119   3.758   3.600   4.163
 2945SOL    HW2 9120   3.734   3.719   4.054
 2946SOL     OW 9121   1.889   3.458   3.841
 2946SOL    HW1 9122   1.870   3.362   3.862
 2946SOL    HW2 9123   1.856   3.516   3.916
 2947SOL     OW 9124   3.551   2.784   4.336
 2947SOL    HW1 9125   3.646   2.755   4.344
 2947SOL    HW2 9126   3.543   2.849   4.261
 2948SOL     OW 9127   3.503   2.970   4.156
 2948SOL    HW1 9128   3.589   2.972   4.104
 2948SOL    HW2 9129   3.517   3.017   4.244
 2949SOL     OW 9130   1.975   2.599   5.321
 2949SOL    HW1 9131   2.063   2.586   5.366
 2949SOL    HW2 9132   1.962   2.696   5.299
 2950SOL     OW 9133   2.475   3.227   4.450
 2950SOL    HW1 9134   2.426   3.140   4.459
 2950SOL    HW2 9135   2.452   3.270   4.363
 2951SOL     OW 9136   3.155   3.090   5.147
 2951SOL    HW1 9137   3.192   3.017   5.089
 2951SOL    HW2 9138   3.207   3.095   5.232
 2952SOL     OW 9139   2.671   1.866   4.226
 2952SOL    HW1 9140   2.711   1.957   4.217
 2952SOL    HW2 9141   2.571   1.874   4.232
 2953SOL     OW 9142   2.059   2.838   4.988
 2953SOL    HW1 9143   2.148   2.793   4.974
 2953SOL    HW2 9144   1.986   2.773   4.969
 2954SOL     OW 9145   3.387   2.861   3.914
 2954SOL    HW1 9146   3.324   2.785   3.927
 2954SOL    HW2 9147   3.435   2.879   4.000
 2955SOL     OW 9148   3.049   3.654   5.340
 2955SOL    HW1 9149   3.073   3.714   5.264
 2955SOL    HW2 9150   3.056   3.559   5.310
 2956SOL     OW 9151   2.179   2.113   5.525
 2956SOL    HW1 9152   2.250   2.184   5.531
 2956SOL    HW2 9153   2.091   2.152   5.553
 2957SOL     OW 9154   3.529   3.576   4.296
 2957SOL    HW1 9155   3.488   3.553   4.208
 2957SOL    HW2 9156   3.511   3.502   4.361
 2958SOL     OW 9157   3.143   2.207   4.668
 2958SOL    HW1 9158   3.057   2.157   4.655
 2958SOL    HW2 9159   3.205   2.153   4.724
 2959SOL     OW 9160   3.438   3.524   4.031
 2959SOL    HW1 9161   3.527   3.570   4.034
 2959SOL    HW2 9162   3.417   3.500   3.936
 2960SOL     OW 9163   2.669   2.467   5.189
 2960SOL    HW1 9164   2.622   2.464   5.278
 2960SOL    HW2 9165   2.618   2.412   5.123
 2961SOL     OW 9166   3.256   2.331   5.398
 2961SOL    HW1 9167   3.236   2.374   5.486
 2961SOL    HW2 9168   3.334   2.269   5.407
 2962SOL     OW 9169   2.835   2.752   5.296
 2962SOL    HW1 9170   2.881   2.668   5.267
 2962SOL    HW2 9171   2.779   2.786   5.221
 2963SOL     OW 9172   2.853   2.272   4.966
 2963SOL    HW1 9173   2.776   2.306   5.020
 2963SOL    HW2 9174   2.819   2.221   4.887
 2964SOL     OW 9175   1.938   2.673   4.513
 2964SOL    HW1 9176   2.037   2.661   4.522
 2964SOL    HW2 9177   1.914   2.768   4.534
 2965SOL     OW 9178   1.992   3.683   5.295
 2965SOL    HW1 9179   1.982   3.668   5.394
 2965SOL    HW2 9180   1.906   3.719   5.259
 2966SOL     OW 9181   2.727   2.210   3.919
 2966SOL    HW1 9182   2.786   2.273   3.870
 2966SOL    HW2 9183   2.746   2.116   3.890
 2967SOL     OW 9184   3.581   2.447   5.555
 2967SOL    HW1 9185   3.555   2.536   5.519
 2967SOL    HW2 9186   3.579   2.379   5.482
 2968SOL     OW 9187   2.412   2.058   4.609
 2968SOL    HW1 9188   2.407   2.053   4.709
 2968SOL    HW2 9189   2.414   2.154   4.580
 2969SOL     OW 9190   2.213   3.663   4.577
 2969SOL    HW1 9191   2.263   3.577   4.583
 2969SOL    HW2 9192   2.278   3.740   4.574
 2970SOL     OW 9193   3.657   2.928   4.597
 2970SOL    HW1 9194   3.595   2.913   4.521
 2970SOL    HW2 9195   3.605   2.939   4.682
 2971SOL     OW 9196   3.089   3.412   5.230
 2971SOL    HW1 9197   3.095   3.335   5.294
 2971SOL    HW2 9198   3.037   3.386   5.150
 2972SOL     OW 9199   2.183   2.805   3.966
 2972SOL    HW1 9200   2.265   2.844   3.924
 2972SOL    HW2 9201   2.156   2.723   3.917
 2973SOL     OW 9202   3.320   2.597   4.452
 2973SOL    HW1 9203   3.315   2.532   4.527
 2973SOL    HW2 9204   3.400   2.656   4.465
 2974SOL     OW 9205   2.323   3.128   5.451
 2974SOL    HW1 9206   2.273   3.129   5.365
 2974SOL    HW2 9207   2.260   3.110   5.527
 2975SOL     OW 9208   2.973   3.638   3.961
 2975SOL    HW1 9209   2.913   3.576   4.011
 2975SOL    HW2 9210   3.004   3.594   3.876
 2976SOL     OW 9211   2.064   2.147   5.222
 2976SOL    HW1 9212   1.984   2.207   5.209
 2976SOL    HW2 9213   2.054   2.098   5.308
 2977SOL     OW 9214   3.494   3.239   3.805
 2977SOL    HW1 9215   3.462   3.333   3.795
 2977SOL    HW2 9216   3.418   3.176   3.793
 2978SOL     OW 9217   2.326   3.605   4.047
 2978SOL    HW1 9218   2.359   3.644   4.133
 2978SOL    HW2 9219   2.402   3.598   3.982
 2979SOL     OW 9220   3.262   1.969   4.150
 2979SOL    HW1 9221   3.238   1.932   4.060
 2979SOL    HW2 9222   3.361   1.985   4.154
 2980SOL     OW 9223   2.111   3.647   4.965
 2980SOL    HW1 9224   2.168   3.582   5.015
 2980SOL    HW2 9225   2.095   3.614   4.872
 2981SOL     OW 9226   2.244   2.562   4.204
 2981SOL    HW1 9227   2.289   2.472   4.201
 2981SOL    HW2 9228   2.150   2.551   4.237
 2982SOL     OW 9229   3.409   2.084   5.453
 2982SOL    HW1 9230   3.404   2.121   5.545
 2982SOL    HW2 9231   3.337   2.015   5.441
 2983SOL     OW 9232   2.476   1.984   3.841
 2983SOL    HW1 9233   2.574   1.962   3.848
 2983SOL    HW2 9234   2.445   1.967   3.748
 2984SOL     OW 9235   2.643   2.126   5.473
 2984SOL    HW1 9236   2.710   2.065   5.516
 2984SOL    HW2 9237   2.570   2.145   5.538
 2985SOL     OW 9238   2.750   3.376   4.919
 2985SOL    HW1 9239   2.727   3.351   4.825
 2985SOL    HW2 9240   2.811   3.307   4.958
 2986SOL     OW 9241   3.213   2.452   5.157
 2986SOL    HW1 9242   3.241   2.409   5.242
 2986SOL    HW2 9243   3.238   2.548   5.158
 2987SOL     OW 9244   2.784   2.365   4.623
 2987SOL    HW1 9245   2.759   2.356   4.527
 2987SOL    HW2 9246   2.832   2.283   4.654
 2988SOL     OW 9247   2.401   1.926   4.236
 2988SOL    HW1 9248   2.320   1.927   4.294
 2988SOL    HW2 9249   2.404   2.009   4.181
 2989SOL     OW 9250   3.296   3.050   3.765
 2989SOL    HW1 9251   3.328   2.974   3.822
 2989SOL    HW2 9252   3.204   3.077   3.795
 2990SOL     OW 9253   2.159   1.897   3.895
 2990SOL    HW1 9254   2.208   1.981   3.874
 2990SOL    HW2 9255   2.221   1.832   3.940
 2991SOL     OW 9256   2.797   2.098   4.204
 2991SOL    HW1 9257   2.749   2.139   4.126
 2991SOL    HW2 9258   2.896   2.096   4.185
 2992SOL     OW 9259   2.938   2.545   5.188
 2992SOL    HW1 9260   2.858   2.484   5.191
 2992SOL    HW2 9261   3.019   2.492   5.164
 2993SOL     OW 9262   2.321   3.014   4.465
 2993SOL    HW1 9263   2.250   2.987   4.530
 2993SOL    HW2 9264   2.295   2.986   4.372
 2994SOL     OW 9265   3.133   3.659   4.315
 2994SOL    HW1 9266   3.177   3.723   4.251
 2994SOL    HW2 9267   3.083   3.711   4.385
 2995SOL     OW 9268   1.940   2.418   5.110
 2995SOL    HW1 9269   2.032   2.417   5.069
 2995SOL    HW2 9270   1.934   2.492   5.177
 2996SOL     OW 9271   2.423   2.084   4.871
 2996SOL    HW1 9272   2.461   2.000   4.908
 2996SOL    HW2 9273   2.335   2.103   4.915
 2997SOL     OW 9274   2.728   2.316   4.366
 2997SOL    HW1 9275   2.696   2.388   4.304
 2997SOL    HW2 9276   2.752   2.235   4.313
 2998SOL     OW 9277   2.879   1.901   4.477
 2998SOL    HW1 9278   2.807   1.906   4.408
 2998SOL    HW2 9279   2.855   1.832   4.546
 2999SOL     OW 9280   3.291   3.035   4.591
 2999SOL    HW1 9281   3.236   2.951   4.584
 2999SOL    HW2 9282   3.317   3.064   4.499
 3000SOL     OW 9283   3.328   2.452   4.716
 3000SOL    HW1 9284   3.298   2.357   4.723
 3000SOL    HW2 9285   3.401   2.468   4.782
 3001SOL     OW 9286   3.719   2.695   4.101
 3001SOL    HW1 9287   3.761   2.631   4.165
 3001SOL    HW2 9288   3.681   2.644   4.023
 3002SOL     OW 9289   2.350   3.247   3.898
 3002SOL    HW1 9290   2.263   3.232   3.945
 3002SOL    HW2 9291   2.333   3.273   3.803
 3003SOL     OW 9292   3.526   3.142   4.381
 3003SOL    HW1 9293   3.625   3.150   4.395
 3003SOL    HW2 9294   3.481   3.226   4.412
 3004SOL     OW 9295   3.252   2.437   3.802
 3004SOL    HW1 9296   3.198   2.416   3.883
 3004SOL    HW2 9297   3.343   2.396   3.811
 3005SOL     OW 9298   2.389   2.118   4.052
 3005SOL    HW1 9299   2.416   2.059   3.977
 3005SOL    HW2 9300   2.389   2.213   4.021
 3006SOL     OW 9301   3.616   3.085   5.312
 3006SOL    HW1 9302   3.707   3.046   5.299
 3006SOL    HW2 9303   3.624   3.181   5.336
 3007SOL     OW 9304   2.926   3.209   5.064
 3007SOL    HW1 9305   2.846   3.186   5.119
 3007SOL    HW2 9306   3.009   3.183   5.113
 3008SOL     OW 9307   3.454   3.491   5.349
 3008SOL    HW1 9308   3.481   3.525   5.259
 3008SOL    HW2 9309   3.533   3.453   5.395
 3009SOL     OW 9310   2.973   3.057   4.824
 3009SOL    HW1 9311   2.933   3.101   4.905
 3009SOL    HW2 9312   2.932   3.094   4.741
 3010SOL     OW 9313   3.500   2.961   4.803
 3010SOL    HW1 9314   3.505   3.042   4.862
 3010SOL    HW2 9315   3.414   2.963   4.752
 3011SOL     OW 9316   2.777   1.951   5.126
 3011SOL    HW1 9317   2.802   1.931   5.031
 3011SOL    HW2 9318   2.849   2.007   5.168
 3012SOL     OW 9319   2.842   2.978   5.443
 3012SOL    HW1 9320   2.743   2.984   5.453
 3012SOL    HW2 9321   2.865   2.898   5.387
 3013SOL     OW 9322   2.272   2.675   4.975
 3013SOL    HW1 9323   2.358   2.687   5.025
 3013SOL    HW2 9324   2.230   2.588   5.002
 3014SOL     OW 9325   3.136   2.248   4.986
 3014SOL    HW1 9326   3.157   2.322   5.050
 3014SOL    HW2 9327   3.047   2.265   4.943
 3015SOL     OW 9328   1.926   3.426   5.055
 3015SOL    HW1 9329   1.880   3.508   5.021
 3015SOL    HW2 9330   2.024   3.445   5.064
 3016SOL     OW 9331   2.229   2.962   4.225
 3016SOL    HW1 9332   2.222   3.045   4.169
 3016SOL    HW2 9333   2.233   2.882   4.165
 3017SOL     OW 9334   2.428   2.399   4.589
 3017SOL    HW1 9335   2.440   2.465   4.515
 3017SOL    HW2 9336   2.474   2.433   4.672
 3018SOL     OW 9337   3.114   3.210   4.112
 3018SOL    HW1 9338   3.164   3.287   4.152
 3018SOL    HW2 9339   3.019   3.212   4.144
 3019SOL     OW 9340   3.134   3.307   4.866
 3019SOL    HW1 9341   3.181   3.320   4.953
 3019SOL    HW2 9342   3.068   3.233   4.875
 3020SOL     OW 9343   3.444   2.501   4.196
 3020SOL    HW1 9344   3.413   2.562   4.269
 3020SOL    HW2 9345   3.494   2.553   4.127
 3021SOL     OW 9346   2.216   3.372   5.053
 3021SOL    HW1 9347   2.195   3.328   4.966
 3021SOL    HW2 9348   2.313   3.398   5.056
 3022SOL     OW 9349   2.264   2.613   5.322
 3022SOL    HW1 9350   2.332   2.668   5.275
 3022SOL    HW2 9351   2.304   2.525   5.349
 3023SOL     OW 9352   3.449   2.641   5.394
 3023SOL    HW1 9353   3.357   2.679   5.389
 3023SOL    HW2 9354   3.509   2.688   5.329
 3024SOL     OW 9355   2.875   1.967   5.494
 3024SOL    HW1 9356   2.881   2.052   5.442
 3024SOL    HW2 9357   2.907   1.891   5.437
 3025SOL     OW 9358   2.366   1.912   5.464
 3025SOL    HW1 9359   2.324   1.855   5.394
 3025SOL    HW2 9360   2.300   1.981   5.496
 3026SOL     OW 9361   3.222   2.724   4.769
 3026SOL    HW1 9362   3.147   2.724   4.703
 3026SOL    HW2 9363   3.259   2.632   4.778
 3027SOL     OW 9364   2.169   2.075   4.955
 3027SOL    HW1 9365   2.146   2.112   5.045
 3027SOL    HW2 9366   2.139   1.980   4.949
 3028SOL     OW 9367   1.899   3.172   5.006
 3028SOL    HW1 9368   1.952   3.123   5.074
 3028SOL    HW2 9369   1.921   3.270   5.011
 3029SOL     OW 9370   2.594   2.496   4.788
 3029SOL    HW1 9371   2.653   2.470   4.712
 3029SOL    HW2 9372   2.566   2.592   4.777
 3030SOL     OW 9373   3.590   2.797   5.578
 3030SOL    HW1 9374   3.544   2.790   5.489
 3030SOL    HW2 9375   3.528   2.841   5.644
 3031SOL     OW 9376   2.169   1.925   4.342
 3031SOL    HW1 9377   2.158   2.019   4.375
 3031SOL    HW2 9378   2.164   1.862   4.419
 3032SOL     OW 9379   3.484   2.229   4.098
 3032SOL    HW1 9380   3.486   2.153   4.162
 3032SOL    HW2 9381   3.436   2.306   4.138
 3033SOL     OW 9382   2.885   2.628   4.690
 3033SOL    HW1 9383   2.900   2.649   4.786
 3033SOL    HW2 9384   2.855   2.533   4.681
 3034SOL     OW 9385   2.842   3.435   5.424
 3034SOL    HW1 9386   2.822   3.479   5.336
 3034SOL    HW2 9387   2.881   3.344   5.408
 3035SOL     OW 9388   3.721   3.380   5.329
 3035SOL    HW1 9389   3.735   3.407   5.234
 3035SOL    HW2 9390   3.804   3.402   5.382
 3036SOL     OW 9391   2.212   2.760   5.528
 3036SOL    HW1 9392   2.288   2.804   5.576
 3036SOL    HW2 9393   2.247   2.713   5.446
 3037SOL     OW 9394   3.402   2.136   3.849
 3037SOL    HW1 9395   3.341   2.061   3.872
 3037SOL    HW2 9396   3.424   2.188   3.932
 3038SOL     OW 9397   3.165   2.700   3.766
 3038SOL    HW1 9398   3.199   2.607   3.781
 3038SOL    HW2 9399   3.183   2.727   3.671
 3039SOL     OW 9400   2.201   2.371   4.730
 3039SOL    HW1 9401   2.149   2.288   4.713
 3039SOL    HW2 9402   2.278   2.376   4.666
 3040SOL     OW 9403   3.000   2.242   5.402
 3040SOL    HW1 9404   2.955   2.305   5.466
 3040SOL    HW2 9405   3.093   2.273   5.385
 3041SOL     OW 9406   3.022   2.069   5.201
 3041SOL    HW1 9407   3.022   2.133   5.278
 3041SOL    HW2 9408   3.050   2.117   5.118
 3042SOL     OW 9409   1.870   3.188   3.924
 3042SOL    HW1 9410   1.777   3.209   3.893
 3042SOL    HW2 9411   1.880   3.089   3.937
 3043SOL     OW 9412   1.950   3.663   4.651
 3043SOL    HW1 9413   1.908   3.577   4.624
 3043SOL    HW2 9414   2.044   3.666   4.617
 3044SOL     OW 9415   2.366   3.430   4.634
 3044SOL    HW1 9416   2.432   3.504   4.643
 3044SOL    HW2 9417   2.410   3.351   4.592
 3045SOL     OW 9418   2.864   2.658   4.962
 3045SOL    HW1 9419   2.905   2.626   5.048
 3045SOL    HW2 9420   2.768   2.631   4.959
 3046SOL     OW 9421   1.902   2.406   4.838
 3046SOL    HW1 9422   1.987   2.373   4.797
 3046SOL    HW2 9423   1.915   2.421   4.936
 3047SOL     OW 9424   2.051   2.382   5.446
 3047SOL    HW1 9425   2.110   2.342   5.376
 3047SOL    HW2 9426   1.993   2.453   5.405
 3048SOL     OW 9427   3.231   2.812   5.384
 3048SOL    HW1 9428   3.270   2.901   5.404
 3048SOL    HW2 9429   3.241   2.792   5.287
 3049SOL     OW 9430   3.519   2.466   4.930
 3049SOL    HW1 9431   3.481   2.397   4.992
 3049SOL    HW2 9432   3.601   2.430   4.886
 3050SOL     OW 9433   2.114   3.426   5.468
 3050SOL    HW1 9434   2.084   3.483   5.544
 3050SOL    HW2 9435   2.107   3.329   5.494
 3051SOL     OW 9436   2.533   2.326   4.993
 3051SOL    HW1 9437   2.499   2.237   4.963
 3051SOL    HW2 9438   2.559   2.380   4.913
 3052SOL     OW 9439   2.792   3.540   5.189
 3052SOL    HW1 9440   2.768   3.522   5.094
 3052SOL    HW2 9441   2.822   3.634   5.199
 3053SOL     OW 9442   2.335   2.362   3.915
 3053SOL    HW1 9443   2.396   2.442   3.919
 3053SOL    HW2 9444   2.240   2.393   3.922
 3054SOL     OW 9445   2.021   2.999   5.190
 3054SOL    HW1 9446   2.043   2.938   5.266
 3054SOL    HW2 9447   2.031   2.950   5.104
 3055SOL     OW 9448   3.209   2.921   4.958
 3055SOL    HW1 9449   3.233   2.858   4.884
 3055SOL    HW2 9450   3.119   2.961   4.940
 3056SOL     OW 9451   3.621   3.609   4.878
 3056SOL    HW1 9452   3.682   3.639   4.805
 3056SOL    HW2 9453   3.583   3.520   4.856
 3057SOL     OW 9454   3.114   3.593   4.852
 3057SOL    HW1 9455   3.198   3.598   4.798
 3057SOL    HW2 9456   3.091   3.497   4.870
 3058SOL     OW 9457   1.945   3.120   4.746
 3058SOL    HW1 9458   1.940   3.119   4.846
 3058SOL    HW2 9459   1.862   3.079   4.708
 3059SOL     OW 9460   2.550   3.524   5.440
 3059SOL    HW1 9461   2.494   3.605   5.449
 3059SOL    HW2 9462   2.602   3.528   5.354
 3060SOL     OW 9463   3.588   1.997   4.247
 3060SOL    HW1 9464   3.661   1.980   4.180
 3060SOL    HW2 9465   3.557   1.910   4.285
 3061SOL     OW 9466   3.250   3.435   4.201
 3061SOL    HW1 9467   3.317   3.447   4.127
 3061SOL    HW2 9468   3.210   3.524   4.224
 3062SOL     OW 9469   1.992   3.656   5.575
 3062SOL    HW1 9470   1.951   3.582   5.628
 3062SOL    HW2 9471   2.056   3.707   5.633
 3063SOL     OW 9472   2.692   3.135   5.146
 3063SOL    HW1 9473   2.687   3.168   5.241
 3063SOL    HW2 9474   2.606   3.154   5.100
 3064SOL     OW 9475   2.534   3.478   3.878
 3064SOL    HW1 9476   2.543   3.488   3.779
 3064SOL    HW2 9477   2.494   3.389   3.899
 3065SOL     OW 9478   3.512   3.582   5.118
 3065SOL    HW1 9479   3.565   3.592   5.034
 3065SOL    HW2 9480   3.485   3.672   5.152
 3066SOL     OW 9481   3.703   2.037   4.687
 3066SOL    HW1 9482   3.742   1.952   4.651
 3066SOL    HW2 9483   3.605   2.039   4.668
 3067SOL     OW 9484   2.125   2.188   4.444
 3067SOL    HW1 9485   2.046   2.239   4.410
 3067SOL    HW2 9486   2.116   2.173   4.542
 3068SOL     OW 9487   3.056   3.474   3.755
 3068SOL    HW1 9488   3.062   3.381   3.792
 3068SOL    HW2 9489   2.997   3.474   3.675
 3069SOL     OW 9490   2.684   2.864   5.096
 3069SOL    HW1 9491   2.724   2.863   5.004
 3069SOL    HW2 9492   2.694   2.956   5.136
 3070SOL     OW 9493   3.366   3.469   3.768
 3070SOL    HW1 9494   3.274   3.506   3.775
 3070SOL    HW2 9495   3.404   3.489   3.678
 3071SOL     OW 9496   2.234   3.150   5.214
 3071SOL    HW1 9497   2.221   3.243   5.180
 3071SOL    HW2 9498   2.150   3.098   5.201
 3072SOL     OW 9499   3.476   3.154   5.013
 3072SOL    HW1 9500   3.536   3.157   5.093
 3072SOL    HW2 9501   3.401   3.218   5.026
 3073SOL     OW 9502   2.876   2.098   4.695
 3073SOL    HW1 9503   2.868   2.062   4.602
 3073SOL    HW2 9504   2.874   2.022   4.760
 3074SOL     OW 9505   2.452   3.349   4.215
 3074SOL    HW1 9506   2.494   3.291   4.145
 3074SOL    HW2 9507   2.408   3.428   4.171
 3075SOL     OW 9508   3.571   2.247   5.105
 3075SOL    HW1 9509   3.644   2.316   5.109
 3075SOL    HW2 9510   3.599   2.172   5.046
 3076SOL     OW 9511   2.117   3.210   4.014
 3076SOL    HW1 9512   2.021   3.211   3.987
 3076SOL    HW2 9513   2.129   3.263   4.098
 3077SOL     OW 9514   1.967   2.875   5.450
 3077SOL    HW1 9515   1.890   2.842   5.504
 3077SOL    HW2 9516   2.052   2.845   5.492
 3078SOL     OW 9517   2.534   2.065   5.213
 3078SOL    HW1 9518   2.624   2.049   5.173
 3078SOL    HW2 9519   2.542   2.070   5.312
 3079SOL     OW 9520   1.937   2.207   3.757
 3079SOL    HW1 9521   1.845   2.179   3.728
 3079SOL    HW2 9522   1.968   2.284   3.701
 3080SOL     OW 9523   3.302   2.718   5.122
 3080SOL    HW1 9524   3.245   2.770   5.059
 3080SOL    HW2 9525   3.398   2.730   5.098
 3081SOL     OW 9526   1.934   2.028   4.042
 3081SOL    HW1 9527   1.917   2.111   3.988
 3081SOL    HW2 9528   2.024   1.991   4.020
 3082SOL     OW 9529   3.045   3.197   3.843
 3082SOL    HW1 9530   2.946   3.186   3.845
 3082SOL    HW2 9531   3.079   3.212   3.936
 3083SOL     OW 9532   2.475   2.704   5.155
 3083SOL    HW1 9533   2.531   2.785   5.138
 3083SOL    HW2 9534   2.534   2.624   5.158
 3084SOL     OW 9535   3.355   3.629   4.683
 3084SOL    HW1 9536   3.388   3.693   4.614
 3084SOL    HW2 9537   3.421   3.623   4.758
 3085SOL     OW 9538   2.578   2.427   5.432
 3085SOL    HW1 9539   2.597   2.492   5.506
 3085SOL    HW2 9540   2.638   2.347   5.441
 3086SOL     OW 9541   3.312   3.082   5.357
 3086SOL    HW1 9542   3.303   3.072   5.456
 3086SOL    HW2 9543   3.408   3.075   5.331
 3087SOL     OW 9544   2.252   3.603   5.284
 3087SOL    HW1 9545   2.161   3.644   5.282
 3087SOL    HW2 9546   2.245   3.509   5.316
 3088SOL     OW 9547   3.536   2.745   4.978
 3088SOL    HW1 9548   3.509   2.656   4.941
 3088SOL    HW2 9549   3.537   2.813   4.905
 3089SOL     OW 9550   3.087   2.187   4.173
 3089SOL    HW1 9551   3.152   2.113   4.162
 3089SOL    HW2 9552   3.107   2.237   4.257
 3090SOL     OW 9553   3.639   2.204   5.366
 3090SOL    HW1 9554   3.622   2.235   5.272
 3090SOL    HW2 9555   3.555   2.167   5.404
 3091SOL     OW 9556   3.592   2.796   5.241
 3091SOL    HW1 9557   3.630   2.887   5.256
 3091SOL    HW2 9558   3.584   2.779   5.142
 3092SOL     OW 9559   2.721   3.236   3.740
 3092SOL    HW1 9560   2.675   3.251   3.828
 3092SOL    HW2 9561   2.765   3.321   3.710
 3093SOL     OW 9562   2.523   3.652   4.677
 3093SOL    HW1 9563   2.477   3.740   4.664
 3093SOL    HW2 9564   2.622   3.664   4.670
 3094SOL     OW 9565   3.723   3.431   4.575
 3094SOL    HW1 9566   3.652   3.419   4.505
 3094SOL    HW2 9567   3.724   3.352   4.635
 3095SOL     OW 9568   2.083   3.176   5.568
 3095SOL    HW1 9569   2.018   3.103   5.547
 3095SOL    HW2 9570   2.087   3.190   5.666
 3096SOL     OW 9571   1.941   3.102   4.377
 3096SOL    HW1 9572   1.940   3.055   4.465
 3096SOL    HW2 9573   2.023   3.074   4.326
 3097SOL     OW 9574   2.534   3.253   5.348
 3097SOL    HW1 9575   2.456   3.203   5.386
 3097SOL    HW2 9576   2.531   3.348   5.379
 3098SOL     OW 9577   3.686   2.054   4.951
 3098SOL    HW1 9578   3.682   1.964   4.995
 3098SOL    HW2 9579   3.689   2.043   4.852
 3099SOL     OW 9580   2.290   2.286   4.244
 3099SOL    HW1 9581   2.320   2.214   4.182
 3099SOL    HW2 9582   2.251   2.246   4.327
 3100SOL     OW 9583   3.567   3.349   4.828
 3100SOL    HW1 9584   3.474   3.324   4.801
 3100SOL    HW2 9585   3.593   3.299   4.910
 3101SOL     OW 9586   2.179   2.409   5.004
 3101SOL    HW1 9587   2.217   2.350   5.076
 3101SOL    HW2 9588   2.219   2.383   4.916
 3102SOL     OW 9589   2.674   3.448   4.411
 3102SOL    HW1 9590   2.706   3.458   4.317
 3102SOL    HW2 9591   2.595   3.386   4.413
 3103SOL     OW 9592   3.286   2.076   4.836
 3103SOL    HW1 9593   3.338   2.011   4.891
 3103SOL    HW2 9594   3.237   2.139   4.897
 3104SOL     OW 9595   2.863   1.896   4.878
 3104SOL    HW1 9596   2.800   1.824   4.847
 3104SOL    HW2 9597   2.956   1.860   4.878
 3105SOL     OW 9598   2.632   3.192   4.025
 3105SOL    HW1 9599   2.586   3.105   4.042
 3105SOL    HW2 9600   2.723   3.189   4.066
 3106SOL     OW 9601   2.480   3.429   5.008
 3106SOL    HW1 9602   2.475   3.511   5.065
 3106SOL    HW2 9603   2.569   3.426   4.963
 3107SOL     OW 9604   3.214   1.914   3.892
 3107SOL    HW1 9605   3.249   1.873   3.808
 3107SOL    HW2 9606   3.124   1.876   3.912
 3108SOL     OW 9607   3.162   2.315   4.415
 3108SOL    HW1 9608   3.103   2.395   4.419
 3108SOL    HW2 9609   3.177   2.280   4.508
 3109SOL     OW 9610   3.455   2.083   4.606
 3109SOL    HW1 9611   3.371   2.082   4.660
 3109SOL    HW2 9612   3.457   2.166   4.550
 3110SOL     OW 9613   1.901   2.939   4.024
 3110SOL    HW1 9614   2.000   2.928   4.015
 3110SOL    HW2 9615   1.861   2.853   4.056
 3111SOL     OW 9616   2.737   3.508   4.061
 3111SOL    HW1 9617   2.660   3.473   4.007
 3111SOL    HW2 9618   2.705   3.579   4.123
 3112SOL     OW 9619   2.092   4.352   0.113
 3112SOL    HW1 9620   1.999   4.350   0.150
 3112SOL    HW2 9621   2.093   4.313   0.021
 3113SOL     OW 9622   2.087   3.999   0.996
 3113SOL    HW1 9623   2.122   3.982   1.088
 3113SOL    HW2 9624   1.999   3.954   0.984
 3114SOL     OW 9625   1.881   4.092   0.647
 3114SOL    HW1 9626   1.799   4.135   0.686
 3114SOL    HW2 9627   1.853   4.019   0.584
 3115SOL     OW 9628   2.431   4.999   1.165
 3115SOL    HW1 9629   2.338   4.992   1.128
 3115SOL    HW2 9630   2.442   5.088   1.209
 3116SOL     OW 9631   3.417   5.235   0.703
 3116SOL    HW1 9632   3.360   5.219   0.784
 3116SOL    HW2 9633   3.358   5.245   0.623
 3117SOL     OW 9634   2.997   4.427   0.717
 3117SOL    HW1 9635   3.054   4.505   0.692
 3117SOL    HW2 9636   2.937   4.453   0.793
 3118SOL     OW 9637   3.617   4.331   0.231
 3118SOL    HW1 9638   3.605   4.318   0.132
 3118SOL    HW2 9639   3.587   4.250   0.280
 3119SOL     OW 9640   2.630   4.868   1.023
 3119SOL    HW1 9641   2.552   4.885   1.083
 3119SOL    HW2 9642   2.664   4.955   0.987
 3120SOL     OW 9643   2.712   4.522   1.823
 3120SOL    HW1 9644   2.708   4.598   1.888
 3120SOL    HW2 9645   2.734   4.558   1.732
 3121SOL     OW 9646   2.547   4.736   0.665
 3121SOL    HW1 9647   2.616   4.720   0.735
 3121SOL    HW2 9648   2.474   4.793   0.703
 3122SOL     OW 9649   2.548   4.885   1.803
 3122SOL    HW1 9650   2.608   4.964   1.817
 3122SOL    HW2 9651   2.462   4.916   1.762
 3123SOL     OW 9652   2.197   5.159   1.061
 3123SOL    HW1 9653   2.119   5.128   1.008
 3123SOL    HW2 9654   2.255   5.217   1.004
 3124SOL     OW 9655   3.322   5.229   1.339
 3124SOL    HW1 9656   3.346   5.323   1.365
 3124SOL    HW2 9657   3.306   5.175   1.421
 3125SOL     OW 9658   2.300   4.116   1.499
 3125SOL    HW1 9659   2.382   4.060   1.508
 3125SOL    HW2 9660   2.219   4.058   1.503
 3126SOL     OW 9661   3.465   4.171   0.737
 3126SOL    HW1 9662   3.391   4.217   0.687
 3126SOL    HW2 9663   3.516   4.239   0.790
 3127SOL     OW 9664   2.093   5.437   0.483
 3127SOL    HW1 9665   2.127   5.514   0.537
 3127SOL    HW2 9666   2.137   5.437   0.393
 3128SOL     OW 9667   2.989   5.065   1.690
 3128SOL    HW1 9668   3.036   5.065   1.778
 3128SOL    HW2 9669   2.941   4.978   1.679
 3129SOL     OW 9670   2.092   5.158   0.538
 3129SOL    HW1 9671   2.066   5.254   0.538
 3129SOL    HW2 9672   2.021   5.104   0.583
 3130SOL     OW 9673   2.102   4.815   0.886
 3130SOL    HW1 9674   2.116   4.731   0.938
 3130SOL    HW2 9675   2.047   4.879   0.941
 3131SOL     OW 9676   2.482   5.510   1.439
 3131SOL    HW1 9677   2.390   5.493   1.474
 3131SOL    HW2 9678   2.510   5.602   1.465
 3132SOL     OW 9679   2.468   4.688   0.123
 3132SOL    HW1 9680   2.475   4.772   0.069
 3132SOL    HW2 9681   2.514   4.701   0.211
 3133SOL     OW 9682   3.456   3.838   1.480
 3133SOL    HW1 9683   3.438   3.905   1.408
 3133SOL    HW2 9684   3.453   3.884   1.569
 3134SOL     OW 9685   1.984   4.367   0.563
 3134SOL    HW1 9686   1.939   4.279   0.580
 3134SOL    HW2 9687   1.983   4.421   0.647
 3135SOL     OW 9688   3.704   5.491   0.359
 3135SOL    HW1 9689   3.758   5.462   0.439
 3135SOL    HW2 9690   3.734   5.581   0.330
 3136SOL     OW 9691   1.889   5.320   0.117
 3136SOL    HW1 9692   1.870   5.224   0.138
 3136SOL    HW2 9693   1.856   5.378   0.192
 3137SOL     OW 9694   3.551   4.646   0.612
 3137SOL    HW1 9695   3.646   4.617   0.620
 3137SOL    HW2 9696   3.543   4.711   0.537
 3138SOL     OW 9697   3.503   4.832   0.432
 3138SOL    HW1 9698   3.589   4.834   0.380
 3138SOL    HW2 9699   3.517   4.879   0.520
 3139SOL     OW 9700   1.975   4.461   1.597
 3139SOL    HW1 9701   2.063   4.448   1.642
 3139SOL    HW2 9702   1.962   4.558   1.575
 3140SOL     OW 9703   2.475   5.089   0.726
 3140SOL    HW1 9704   2.426   5.002   0.735
 3140SOL    HW2 9705   2.452   5.132   0.639
 3141SOL     OW 9706   3.155   4.952   1.423
 3141SOL    HW1 9707   3.192   4.879   1.365
 3141SOL    HW2 9708   3.207   4.957   1.508
 3142SOL     OW 9709   2.671   3.728   0.502
 3142SOL    HW1 9710   2.711   3.819   0.493
 3142SOL    HW2 9711   2.571   3.736   0.508
 3143SOL     OW 9712   2.059   4.700   1.264
 3143SOL    HW1 9713   2.148   4.655   1.250
 3143SOL    HW2 9714   1.986   4.635   1.245
 3144SOL     OW 9715   3.387   4.723   0.190
 3144SOL    HW1 9716   3.324   4.647   0.203
 3144SOL    HW2 9717   3.435   4.741   0.276
 3145SOL     OW 9718   3.049   5.516   1.616
 3145SOL    HW1 9719   3.073   5.576   1.540
 3145SOL    HW2 9720   3.056   5.421   1.586
 3146SOL     OW 9721   2.179   3.975   1.801
 3146SOL    HW1 9722   2.250   4.046   1.807
 3146SOL    HW2 9723   2.091   4.014   1.829
 3147SOL     OW 9724   3.328   5.141   0.953
 3147SOL    HW1 9725   3.269   5.147   1.033
 3147SOL    HW2 9726   3.313   5.053   0.907
 3148SOL     OW 9727   3.529   5.438   0.572
 3148SOL    HW1 9728   3.488   5.415   0.484
 3148SOL    HW2 9729   3.511   5.364   0.637
 3149SOL     OW 9730   2.460   4.453   0.270
 3149SOL    HW1 9731   2.484   4.522   0.202
 3149SOL    HW2 9732   2.382   4.486   0.324
 3150SOL     OW 9733   3.143   4.069   0.944
 3150SOL    HW1 9734   3.057   4.019   0.931
 3150SOL    HW2 9735   3.205   4.015   1.000
 3151SOL     OW 9736   3.438   5.386   0.307
 3151SOL    HW1 9737   3.527   5.432   0.310
 3151SOL    HW2 9738   3.417   5.362   0.212
 3152SOL     OW 9739   2.669   4.329   1.465
 3152SOL    HW1 9740   2.622   4.326   1.554
 3152SOL    HW2 9741   2.618   4.274   1.399
 3153SOL     OW 9742   3.256   4.193   1.674
 3153SOL    HW1 9743   3.236   4.236   1.762
 3153SOL    HW2 9744   3.334   4.131   1.683
 3154SOL     OW 9745   2.835   4.614   1.572
 3154SOL    HW1 9746   2.881   4.530   1.543
 3154SOL    HW2 9747   2.779   4.648   1.497
 3155SOL     OW 9748   2.853   4.134   1.242
 3155SOL    HW1 9749   2.776   4.168   1.296
 3155SOL    HW2 9750   2.819   4.083   1.163
 3156SOL     OW 9751   2.903   4.425   0.429
 3156SOL    HW1 9752   2.929   4.421   0.525
 3156SOL    HW2 9753   2.818   4.374   0.415
 3157SOL     OW 9754   1.938   4.535   0.789
 3157SOL    HW1 9755   2.037   4.523   0.798
 3157SOL    HW2 9756   1.914   4.630   0.810
 3158SOL     OW 9757   1.992   5.545   1.571
 3158SOL    HW1 9758   1.982   5.530   1.670
 3158SOL    HW2 9759   1.906   5.581   1.535
 3159SOL     OW 9760   2.727   4.072   0.195
 3159SOL    HW1 9761   2.786   4.135   0.146
 3159SOL    HW2 9762   2.746   3.978   0.166
 3160SOL     OW 9763   3.581   4.309   1.831
 3160SOL    HW1 9764   3.555   4.398   1.795
 3160SOL    HW2 9765   3.579   4.241   1.758
 3161SOL     OW 9766   3.224   4.868   0.545
 3161SOL    HW1 9767   3.307   4.839   0.497
 3161SOL    HW2 9768   3.175   4.935   0.489
 3162SOL     OW 9769   2.412   3.920   0.885
 3162SOL    HW1 9770   2.407   3.915   0.985
 3162SOL    HW2 9771   2.414   4.016   0.856
 3163SOL     OW 9772   2.870   5.180   0.477
 3163SOL    HW1 9773   2.824   5.252   0.425
 3163SOL    HW2 9774   2.866   5.200   0.575
 3164SOL     OW 9775   2.213   5.525   0.853
 3164SOL    HW1 9776   2.263   5.439   0.859
 3164SOL    HW2 9777   2.278   5.602   0.850
 3165SOL     OW 9778   3.657   4.790   0.873
 3165SOL    HW1 9779   3.595   4.775   0.797
 3165SOL    HW2 9780   3.605   4.801   0.958
 3166SOL     OW 9781   3.089   5.274   1.506
 3166SOL    HW1 9782   3.095   5.197   1.570
 3166SOL    HW2 9783   3.037   5.248   1.426
 3167SOL     OW 9784   2.183   4.667   0.242
 3167SOL    HW1 9785   2.265   4.706   0.200
 3167SOL    HW2 9786   2.156   4.585   0.193
 3168SOL     OW 9787   3.320   4.459   0.728
 3168SOL    HW1 9788   3.315   4.394   0.803
 3168SOL    HW2 9789   3.400   4.518   0.741
 3169SOL     OW 9790   2.323   4.990   1.727
 3169SOL    HW1 9791   2.273   4.991   1.641
 3169SOL    HW2 9792   2.260   4.972   1.803
 3170SOL     OW 9793   2.973   5.500   0.237
 3170SOL    HW1 9794   2.913   5.438   0.287
 3170SOL    HW2 9795   3.004   5.456   0.152
 3171SOL     OW 9796   2.064   4.009   1.498
 3171SOL    HW1 9797   1.984   4.069   1.485
 3171SOL    HW2 9798   2.054   3.960   1.584
 3172SOL     OW 9799   3.494   5.101   0.081
 3172SOL    HW1 9800   3.462   5.195   0.071
 3172SOL    HW2 9801   3.418   5.038   0.069
 3173SOL     OW 9802   2.326   5.467   0.323
 3173SOL    HW1 9803   2.359   5.506   0.409
 3173SOL    HW2 9804   2.402   5.460   0.258
 3174SOL     OW 9805   3.262   3.831   0.426
 3174SOL    HW1 9806   3.238   3.794   0.336
 3174SOL    HW2 9807   3.361   3.847   0.430
 3175SOL     OW 9808   2.111   5.509   1.241
 3175SOL    HW1 9809   2.168   5.444   1.291
 3175SOL    HW2 9810   2.095   5.476   1.148
 3176SOL     OW 9811   2.802   5.422   0.904
 3176SOL    HW1 9812   2.882   5.365   0.925
 3176SOL    HW2 9813   2.753   5.382   0.827
 3177SOL     OW 9814   2.244   4.424   0.480
 3177SOL    HW1 9815   2.289   4.334   0.477
 3177SOL    HW2 9816   2.150   4.413   0.513
 3178SOL     OW 9817   3.409   3.946   1.729
 3178SOL    HW1 9818   3.404   3.983   1.821
 3178SOL    HW2 9819   3.337   3.877   1.717
 3179SOL     OW 9820   2.476   3.846   0.117
 3179SOL    HW1 9821   2.574   3.824   0.124
 3179SOL    HW2 9822   2.445   3.829   0.024
 3180SOL     OW 9823   2.643   3.988   1.749
 3180SOL    HW1 9824   2.710   3.927   1.792
 3180SOL    HW2 9825   2.570   4.007   1.814
 3181SOL     OW 9826   2.750   5.238   1.195
 3181SOL    HW1 9827   2.727   5.213   1.101
 3181SOL    HW2 9828   2.811   5.169   1.234
 3182SOL     OW 9829   3.213   4.314   1.433
 3182SOL    HW1 9830   3.241   4.271   1.518
 3182SOL    HW2 9831   3.238   4.410   1.434
 3183SOL     OW 9832   2.665   5.126   0.924
 3183SOL    HW1 9833   2.755   5.140   0.882
 3183SOL    HW2 9834   2.594   5.128   0.853
 3184SOL     OW 9835   2.784   4.227   0.899
 3184SOL    HW1 9836   2.759   4.218   0.803
 3184SOL    HW2 9837   2.832   4.145   0.930
 3185SOL     OW 9838   2.401   3.788   0.512
 3185SOL    HW1 9839   2.320   3.789   0.570
 3185SOL    HW2 9840   2.404   3.871   0.457
 3186SOL     OW 9841   3.296   4.912   0.041
 3186SOL    HW1 9842   3.328   4.836   0.098
 3186SOL    HW2 9843   3.204   4.939   0.071
 3187SOL     OW 9844   2.159   3.759   0.171
 3187SOL    HW1 9845   2.208   3.843   0.150
 3187SOL    HW2 9846   2.221   3.694   0.216
 3188SOL     OW 9847   2.797   3.960   0.480
 3188SOL    HW1 9848   2.749   4.001   0.402
 3188SOL    HW2 9849   2.896   3.958   0.461
 3189SOL     OW 9850   2.938   4.407   1.464
 3189SOL    HW1 9851   2.858   4.346   1.467
 3189SOL    HW2 9852   3.019   4.354   1.440
 3190SOL     OW 9853   3.089   5.294   0.793
 3190SOL    HW1 9854   3.110   5.368   0.728
 3190SOL    HW2 9855   3.157   5.294   0.866
 3191SOL     OW 9856   2.321   4.876   0.741
 3191SOL    HW1 9857   2.250   4.849   0.806
 3191SOL    HW2 9858   2.295   4.848   0.648
 3192SOL     OW 9859   3.133   5.521   0.591
 3192SOL    HW1 9860   3.177   5.585   0.527
 3192SOL    HW2 9861   3.083   5.573   0.661
 3193SOL     OW 9862   2.894   4.273   0.016
 3193SOL    HW1 9863   2.853   4.355  -0.023
 3193SOL    HW2 9864   2.958   4.299   0.089
 3194SOL     OW 9865   1.940   4.280   1.386
 3194SOL    HW1 9866   2.032   4.279   1.345
 3194SOL    HW2 9867   1.934   4.354   1.453
 3195SOL     OW 9868   2.423   3.946   1.147
 3195SOL    HW1 9869   2.461   3.862   1.184
 3195SOL    HW2 9870   2.335   3.965   1.191
 3196SOL     OW 9871   2.728   4.178   0.642
 3196SOL    HW1 9872   2.696   4.250   0.580
 3196SOL    HW2 9873   2.752   4.097   0.589
 3197SOL     OW 9874   2.879   3.763   0.753
 3197SOL    HW1 9875   2.807   3.768   0.684
 3197SOL    HW2 9876   2.855   3.694   0.822
 3198SOL     OW 9877   3.291   4.897   0.867
 3198SOL    HW1 9878   3.236   4.813   0.860
 3198SOL    HW2 9879   3.317   4.926   0.775
 3199SOL     OW 9880   3.328   4.314   0.992
 3199SOL    HW1 9881   3.298   4.219   0.999
 3199SOL    HW2 9882   3.401   4.330   1.058
 3200SOL     OW 9883   3.719   4.557   0.377
 3200SOL    HW1 9884   3.761   4.493   0.441
 3200SOL    HW2 9885   3.681   4.506   0.299
 3201SOL     OW 9886   2.350   5.109   0.174
 3201SOL    HW1 9887   2.263   5.094   0.221
 3201SOL    HW2 9888   2.333   5.135   0.079
 3202SOL     OW 9889   3.526   5.004   0.657
 3202SOL    HW1 9890   3.625   5.012   0.671
 3202SOL    HW2 9891   3.481   5.088   0.688
 3203SOL     OW 9892   3.252   4.299   0.078
 3203SOL    HW1 9893   3.198   4.278   0.159
 3203SOL    HW2 9894   3.343   4.258   0.087
 3204SOL     OW 9895   2.389   3.980   0.328
 3204SOL    HW1 9896   2.416   3.921   0.253
 3204SOL    HW2 9897   2.389   4.075   0.297
 3205SOL     OW 9898   3.616   4.947   1.588
 3205SOL    HW1 9899   3.707   4.908   1.575
 3205SOL    HW2 9900   3.624   5.043   1.612
 3206SOL     OW 9901   2.926   5.071   1.340
 3206SOL    HW1 9902   2.846   5.048   1.395
 3206SOL    HW2 9903   3.009   5.045   1.389
 3207SOL     OW 9904   3.454   5.353   1.625
 3207SOL    HW1 9905   3.481   5.387   1.535
 3207SOL    HW2 9906   3.533   5.315   1.671
 3208SOL     OW 9907   2.973   4.919   1.100
 3208SOL    HW1 9908   2.933   4.963   1.181
 3208SOL    HW2 9909   2.932   4.956   1.017
 3209SOL     OW 9910   3.500   4.823   1.079
 3209SOL    HW1 9911   3.505   4.904   1.138
 3209SOL    HW2 9912   3.414   4.825   1.028
 3210SOL     OW 9913   2.777   3.813   1.402
 3210SOL    HW1 9914   2.802   3.793   1.307
 3210SOL    HW2 9915   2.849   3.869   1.444
 3211SOL     OW 9916   2.842   4.840   1.719
 3211SOL    HW1 9917   2.743   4.846   1.729
 3211SOL    HW2 9918   2.865   4.760   1.663
 3212SOL     OW 9919   2.567   4.774   0.368
 3212SOL    HW1 9920   2.553   4.781   0.467
 3212SOL    HW2 9921   2.651   4.723   0.350
 3213SOL     OW 9922   2.272   4.537   1.251
 3213SOL    HW1 9923   2.358   4.549   1.301
 3213SOL    HW2 9924   2.230   4.450   1.278
 3214SOL     OW 9925   3.136   4.110   1.262
 3214SOL    HW1 9926   3.157   4.184   1.326
 3214SOL    HW2 9927   3.047   4.127   1.219
 3215SOL     OW 9928   1.926   5.288   1.331
 3215SOL    HW1 9929   1.880   5.370   1.297
 3215SOL    HW2 9930   2.024   5.307   1.340
 3216SOL     OW 9931   2.229   4.824   0.501
 3216SOL    HW1 9932   2.222   4.907   0.445
 3216SOL    HW2 9933   2.233   4.744   0.441
 3217SOL     OW 9934   2.428   4.261   0.865
 3217SOL    HW1 9935   2.440   4.327   0.791
 3217SOL    HW2 9936   2.474   4.295   0.948
 3218SOL     OW 9937   3.114   5.072   0.388
 3218SOL    HW1 9938   3.164   5.149   0.428
 3218SOL    HW2 9939   3.019   5.074   0.420
 3219SOL     OW 9940   3.134   5.169   1.142
 3219SOL    HW1 9941   3.181   5.182   1.229
 3219SOL    HW2 9942   3.068   5.095   1.151
 3220SOL     OW 9943   3.444   4.363   0.472
 3220SOL    HW1 9944   3.413   4.424   0.545
 3220SOL    HW2 9945   3.494   4.415   0.403
 3221SOL     OW 9946   2.216   5.234   1.329
 3221SOL    HW1 9947   2.195   5.190   1.242
 3221SOL    HW2 9948   2.313   5.260   1.332
 3222SOL     OW 9949   2.264   4.475   1.598
 3222SOL    HW1 9950   2.332   4.530   1.551
 3222SOL    HW2 9951   2.304   4.387   1.625
 3223SOL     OW 9952   3.449   4.503   1.670
 3223SOL    HW1 9953   3.357   4.541   1.665
 3223SOL    HW2 9954   3.509   4.550   1.605
 3224SOL     OW 9955   2.875   3.829   1.770
 3224SOL    HW1 9956   2.881   3.914   1.718
 3224SOL    HW2 9957   2.907   3.753   1.713
 3225SOL     OW 9958   2.366   3.774   1.740
 3225SOL    HW1 9959   2.324   3.717   1.670
 3225SOL    HW2 9960   2.300   3.843   1.772
 3226SOL     OW 9961   2.435   4.594   1.029
 3226SOL    HW1 9962   2.479   4.683   1.020
 3226SOL    HW2 9963   2.372   4.594   1.106
 3227SOL     OW 9964   3.222   4.586   1.045
 3227SOL    HW1 9965   3.147   4.586   0.979
 3227SOL    HW2 9966   3.259   4.494   1.054
 3228SOL     OW 9967   3.071   4.249   0.275
 3228SOL    HW1 9968   3.084   4.165   0.329
 3228SOL    HW2 9969   3.042   4.323   0.335
 3229SOL     OW 9970   2.169   3.937   1.231
 3229SOL    HW1 9971   2.146   3.974   1.321
 3229SOL    HW2 9972   2.139   3.842   1.225
 3230SOL     OW 9973   1.899   5.034   1.282
 3230SOL    HW1 9974   1.952   4.985   1.350
 3230SOL    HW2 9975   1.921   5.132   1.287
 3231SOL     OW 9976   2.594   4.358   1.064
 3231SOL    HW1 9977   2.653   4.332   0.988
 3231SOL    HW2 9978   2.566   4.454   1.053
 3232SOL     OW 9979   3.590   4.659   1.854
 3232SOL    HW1 9980   3.544   4.652   1.765
 3232SOL    HW2 9981   3.528   4.703   1.920
 3233SOL     OW 9982   2.169   3.787   0.618
 3233SOL    HW1 9983   2.158   3.881   0.651
 3233SOL    HW2 9984   2.164   3.724   0.695
 3234SOL     OW 9985   3.484   4.091   0.374
 3234SOL    HW1 9986   3.486   4.015   0.438
 3234SOL    HW2 9987   3.436   4.168   0.414
 3235SOL     OW 9988   2.885   4.490   0.966
 3235SOL    HW1 9989   2.900   4.511   1.062
 3235SOL    HW2 9990   2.855   4.395   0.957
 3236SOL     OW 9991   2.842   5.297   1.700
 3236SOL    HW1 9992   2.822   5.341   1.612
 3236SOL    HW2 9993   2.881   5.206   1.684
 3237SOL     OW 9994   3.721   5.242   1.605
 3237SOL    HW1 9995   3.735   5.269   1.510
 3237SOL    HW2 9996   3.804   5.264   1.658
 3238SOL     OW 9997   2.212   4.622   1.804
 3238SOL    HW1 9998   2.288   4.666   1.852
 3238SOL    HW2 9999   2.247   4.575   1.722
 3239SOL     OW10000   3.402   3.998   0.125
 3239SOL    HW110001   3.341   3.923   0.148
 3239SOL    HW210002   3.424   4.050   0.208
 3240SOL     OW10003   3.165   4.562   0.042
 3240SOL    HW110004   3.199   4.469   0.057
 3240SOL    HW210005   3.183   4.589  -0.053
 3241SOL     OW10006   2.930   5.057   0.849
 3241SOL    HW110007   2.937   4.973   0.794
 3241SOL    HW210008   2.992   5.126   0.813
 3242SOL     OW10009   2.181   4.534   0.949
 3242SOL    HW110010   2.274   4.570   0.954
 3242SOL    HW210011   2.175   4.449   1.001
 3243SOL     OW10012   2.201   4.233   1.006
 3243SOL    HW110013   2.149   4.150   0.989
 3243SOL    HW210014   2.278   4.238   0.942
 3244SOL     OW10015   3.000   4.104   1.678
 3244SOL    HW110016   2.955   4.167   1.742
 3244SOL    HW210017   3.093   4.135   1.661
 3245SOL     OW10018   3.022   3.931   1.477
 3245SOL    HW110019   3.022   3.995   1.554
 3245SOL    HW210020   3.050   3.979   1.394
 3246SOL     OW10021   1.870   5.050   0.200
 3246SOL    HW110022   1.777   5.071   0.169
 3246SOL    HW210023   1.880   4.951   0.213
 3247SOL     OW10024   1.950   5.525   0.927
 3247SOL    HW110025   1.908   5.439   0.900
 3247SOL    HW210026   2.044   5.528   0.893
 3248SOL     OW10027   2.366   5.292   0.910
 3248SOL    HW110028   2.432   5.366   0.919
 3248SOL    HW210029   2.410   5.213   0.868
 3249SOL     OW10030   2.864   4.520   1.238
 3249SOL    HW110031   2.905   4.488   1.324
 3249SOL    HW210032   2.768   4.493   1.235
 3250SOL     OW10033   1.902   4.268   1.114
 3250SOL    HW110034   1.987   4.235   1.073
 3250SOL    HW210035   1.915   4.283   1.212
 3251SOL     OW10036   2.051   4.244   1.722
 3251SOL    HW110037   2.110   4.204   1.652
 3251SOL    HW210038   1.993   4.315   1.681
 3252SOL     OW10039   3.231   4.674   1.660
 3252SOL    HW110040   3.270   4.763   1.680
 3252SOL    HW210041   3.241   4.654   1.563
 3253SOL     OW10042   2.677   4.296   0.325
 3253SOL    HW110043   2.684   4.207   0.279
 3253SOL    HW210044   2.583   4.330   0.317
 3254SOL     OW10045   3.519   4.328   1.206
 3254SOL    HW110046   3.481   4.259   1.268
 3254SOL    HW210047   3.601   4.292   1.162
 3255SOL     OW10048   2.114   5.288   1.744
 3255SOL    HW110049   2.084   5.345   1.820
 3255SOL    HW210050   2.107   5.191   1.770
 3256SOL     OW10051   2.533   4.188   1.269
 3256SOL    HW110052   2.499   4.099   1.239
 3256SOL    HW210053   2.559   4.242   1.189
 3257SOL     OW10054   2.792   5.402   1.465
 3257SOL    HW110055   2.768   5.384   1.370
 3257SOL    HW210056   2.822   5.496   1.475
 3258SOL     OW10057   2.335   4.224   0.191
 3258SOL    HW110058   2.396   4.304   0.195
 3258SOL    HW210059   2.240   4.255   0.198
 3259SOL     OW10060   2.021   4.861   1.466
 3259SOL    HW110061   2.043   4.800   1.542
 3259SOL    HW210062   2.031   4.812   1.380
 3260SOL     OW10063   3.209   4.783   1.234
 3260SOL    HW110064   3.233   4.720   1.160
 3260SOL    HW210065   3.119   4.823   1.216
 3261SOL     OW10066   3.164   4.579   0.309
 3261SOL    HW110067   3.078   4.548   0.351
 3261SOL    HW210068   3.160   4.565   0.210
 3262SOL     OW10069   3.621   5.471   1.154
 3262SOL    HW110070   3.682   5.501   1.081
 3262SOL    HW210071   3.583   5.382   1.132
 3263SOL     OW10072   3.114   5.455   1.128
 3263SOL    HW110073   3.198   5.460   1.074
 3263SOL    HW210074   3.091   5.359   1.146
 3264SOL     OW10075   1.945   4.982   1.022
 3264SOL    HW110076   1.940   4.981   1.122
 3264SOL    HW210077   1.862   4.941   0.984
 3265SOL     OW10078   2.550   5.386   1.716
 3265SOL    HW110079   2.494   5.467   1.725
 3265SOL    HW210080   2.602   5.390   1.630
 3266SOL     OW10081   2.765   3.810   0.133
 3266SOL    HW110082   2.816   3.811   0.047
 3266SOL    HW210083   2.821   3.768   0.204
 3267SOL     OW10084   3.588   3.859   0.523
 3267SOL    HW110085   3.661   3.842   0.456
 3267SOL    HW210086   3.557   3.772   0.561
 3268SOL     OW10087   3.250   5.297   0.477
 3268SOL    HW110088   3.317   5.309   0.403
 3268SOL    HW210089   3.210   5.386   0.500
 3269SOL     OW10090   1.992   5.518   1.851
 3269SOL    HW110091   1.951   5.444   1.904
 3269SOL    HW210092   2.056   5.569   1.909
 3270SOL     OW10093   3.142   4.651   0.672
 3270SOL    HW110094   3.202   4.570   0.674
 3270SOL    HW210095   3.182   4.720   0.612
 3271SOL     OW10096   2.692   4.997   1.422
 3271SOL    HW110097   2.687   5.030   1.517
 3271SOL    HW210098   2.606   5.016   1.376
 3272SOL     OW10099   2.534   5.340   0.154
 3272SOL    HW110100   2.543   5.350   0.055
 3272SOL    HW210101   2.494   5.251   0.175
 3273SOL     OW10102   3.512   5.444   1.394
 3273SOL    HW110103   3.565   5.454   1.310
 3273SOL    HW210104   3.485   5.534   1.428
 3274SOL     OW10105   3.703   3.899   0.963
 3274SOL    HW110106   3.742   3.814   0.927
 3274SOL    HW210107   3.605   3.901   0.944
 3275SOL     OW10108   2.125   4.050   0.720
 3275SOL    HW110109   2.046   4.101   0.686
 3275SOL    HW210110   2.116   4.035   0.818
 3276SOL     OW10111   3.056   5.336   0.031
 3276SOL    HW110112   3.062   5.243   0.068
 3276SOL    HW210113   2.997   5.336  -0.049
 3277SOL     OW10114   2.684   4.726   1.372
 3277SOL    HW110115   2.724   4.725   1.280
 3277SOL    HW210116   2.694   4.818   1.412
 3278SOL     OW10117   2.778   4.634   0.291
 3278SOL    HW110118   2.841   4.672   0.223
 3278SOL    HW210119   2.818   4.551   0.330
 3279SOL     OW10120   3.366   5.331   0.044
 3279SOL    HW110121   3.274   5.368   0.051
 3279SOL    HW210122   3.404   5.351  -0.046
 3280SOL     OW10123   2.234   5.012   1.490
 3280SOL    HW110124   2.221   5.105   1.456
 3280SOL    HW210125   2.150   4.960   1.477
 3281SOL     OW10126   3.476   5.016   1.289
 3281SOL    HW110127   3.536   5.019   1.369
 3281SOL    HW210128   3.401   5.080   1.302
 3282SOL     OW10129   2.901   4.822   0.696
 3282SOL    HW110130   2.831   4.775   0.750
 3282SOL    HW210131   2.960   4.754   0.653
 3283SOL     OW10132   2.876   3.960   0.971
 3283SOL    HW110133   2.868   3.924   0.878
 3283SOL    HW210134   2.874   3.884   1.036
 3284SOL     OW10135   2.452   5.211   0.491
 3284SOL    HW110136   2.494   5.153   0.421
 3284SOL    HW210137   2.408   5.290   0.447
 3285SOL     OW10138   3.571   4.109   1.381
 3285SOL    HW110139   3.644   4.178   1.385
 3285SOL    HW210140   3.599   4.034   1.322
 3286SOL     OW10141   2.117   5.072   0.290
 3286SOL    HW110142   2.021   5.073   0.263
 3286SOL    HW210143   2.129   5.125   0.374
 3287SOL     OW10144   1.967   4.737   1.726
 3287SOL    HW110145   1.890   4.704   1.780
 3287SOL    HW210146   2.052   4.707   1.768
 3288SOL     OW10147   2.534   3.927   1.489
 3288SOL    HW110148   2.624   3.911   1.449
 3288SOL    HW210149   2.542   3.932   1.588
 3289SOL     OW10150   1.937   4.069   0.033
 3289SOL    HW110151   1.845   4.041   0.004
 3289SOL    HW210152   1.968   4.146  -0.023
 3290SOL     OW10153   3.302   4.580   1.398
 3290SOL    HW110154   3.245   4.632   1.335
 3290SOL    HW210155   3.398   4.592   1.374
 3291SOL     OW10156   1.934   3.890   0.318
 3291SOL    HW110157   1.917   3.973   0.264
 3291SOL    HW210158   2.024   3.853   0.296
 3292SOL     OW10159   3.045   5.059   0.119
 3292SOL    HW110160   2.946   5.048   0.121
 3292SOL    HW210161   3.079   5.074   0.212
 3293SOL     OW10162   2.475   4.566   1.431
 3293SOL    HW110163   2.531   4.647   1.414
 3293SOL    HW210164   2.534   4.486   1.434
 3294SOL     OW10165   3.355   5.491   0.959
 3294SOL    HW110166   3.388   5.555   0.890
 3294SOL    HW210167   3.421   5.485   1.034
 3295SOL     OW10168   2.578   4.289   1.708
 3295SOL    HW110169   2.597   4.354   1.782
 3295SOL    HW210170   2.638   4.209   1.717
 3296SOL     OW10171   3.312   4.944   1.633
 3296SOL    HW110172   3.303   4.934   1.732
 3296SOL    HW210173   3.408   4.937   1.607
 3297SOL     OW10174   2.252   5.465   1.560
 3297SOL    HW110175   2.161   5.506   1.558
 3297SOL    HW210176   2.245   5.371   1.592
 3298SOL     OW10177   3.536   4.607   1.254
 3298SOL    HW110178   3.509   4.518   1.217
 3298SOL    HW210179   3.537   4.675   1.181
 3299SOL     OW10180   3.087   4.049   0.449
 3299SOL    HW110181   3.152   3.975   0.438
 3299SOL    HW210182   3.107   4.099   0.533
 3300SOL     OW10183   2.456   4.469   0.652
 3300SOL    HW110184   2.506   4.554   0.633
 3300SOL    HW210185   2.368   4.471   0.604
 3301SOL     OW10186   3.639   4.066   1.642
 3301SOL    HW110187   3.622   4.097   1.548
 3301SOL    HW210188   3.555   4.029   1.680
 3302SOL     OW10189   3.592   4.658   1.517
 3302SOL    HW110190   3.630   4.749   1.532
 3302SOL    HW210191   3.584   4.641   1.418
 3303SOL     OW10192   2.721   5.098   0.016
 3303SOL    HW110193   2.675   5.113   0.104
 3303SOL    HW210194   2.765   5.183  -0.014
 3304SOL     OW10195   2.523   5.514   0.953
 3304SOL    HW110196   2.477   5.602   0.940
 3304SOL    HW210197   2.622   5.526   0.946
 3305SOL     OW10198   2.721   4.680   0.861
 3305SOL    HW110199   2.775   4.611   0.909
 3305SOL    HW210200   2.689   4.749   0.927
 3306SOL     OW10201   2.945   4.708   0.087
 3306SOL    HW110202   2.922   4.761   0.005
 3306SOL    HW210203   3.026   4.652   0.068
 3307SOL     OW10204   3.723   5.293   0.851
 3307SOL    HW110205   3.652   5.281   0.781
 3307SOL    HW210206   3.724   5.214   0.911
 3308SOL     OW10207   2.083   5.038   1.844
 3308SOL    HW110208   2.018   4.965   1.823
 3308SOL    HW210209   2.087   5.052   1.942
 3309SOL     OW10210   1.941   4.964   0.653
 3309SOL    HW110211   1.940   4.917   0.741
 3309SOL    HW210212   2.023   4.936   0.602
 3310SOL     OW10213   2.534   5.115   1.624
 3310SOL    HW110214   2.456   5.065   1.662
 3310SOL    HW210215   2.531   5.210   1.655
 3311SOL     OW10216   3.686   3.916   1.227
 3311SOL    HW110217   3.682   3.826   1.271
 3311SOL    HW210218   3.689   3.905   1.128
 3312SOL     OW10219   2.290   4.148   0.520
 3312SOL    HW110220   2.320   4.076   0.458
 3312SOL    HW210221   2.251   4.108   0.603
 3313SOL     OW10222   3.567   5.211   1.104
 3313SOL    HW110223   3.474   5.186   1.077
 3313SOL    HW210224   3.593   5.161   1.186
 3314SOL     OW10225   2.179   4.271   1.280
 3314SOL    HW110226   2.217   4.212   1.352
 3314SOL    HW210227   2.219   4.245   1.192
 3315SOL     OW10228   2.674   5.310   0.687
 3315SOL    HW110229   2.706   5.320   0.593
 3315SOL    HW210230   2.595   5.248   0.689
 3316SOL     OW10231   3.286   3.938   1.112
 3316SOL    HW110232   3.338   3.873   1.167
 3316SOL    HW210233   3.237   4.001   1.173
 3317SOL     OW10234   2.863   3.758   1.154
 3317SOL    HW110235   2.800   3.686   1.123
 3317SOL    HW210236   2.956   3.722   1.154
 3318SOL     OW10237   2.632   5.054   0.301
 3318SOL    HW110238   2.586   4.967   0.318
 3318SOL    HW210239   2.723   5.051   0.342
 3319SOL     OW10240   2.480   5.291   1.284
 3319SOL    HW110241   2.475   5.373   1.341
 3319SOL    HW210242   2.569   5.288   1.239
 3320SOL     OW10243   3.214   3.776   0.168
 3320SOL    HW110244   3.249   3.735   0.084
 3320SOL    HW210245   3.124   3.738   0.188
 3321SOL     OW10246   3.162   4.177   0.691
 3321SOL    HW110247   3.103   4.257   0.695
 3321SOL    HW210248   3.177   4.142   0.784
 3322SOL     OW10249   3.455   3.945   0.882
 3322SOL    HW110250   3.371   3.944   0.936
 3322SOL    HW210251   3.457   4.028   0.826
 3323SOL     OW10252   1.901   4.801   0.300
 3323SOL    HW110253   2.000   4.790   0.291
 3323SOL    HW210254   1.861   4.715   0.332
 3324SOL     OW10255   2.737   5.370   0.337
 3324SOL    HW110256   2.660   5.335   0.283
 3324SOL    HW210257   2.705   5.441   0.399
 3325SOL     OW10258   2.092   4.352   1.975
 3325SOL    HW110259   1.999   4.350   2.012
 3325SOL    HW210260   2.093   4.313   1.883
 3326SOL     OW10261   2.087   3.999   2.858
 3326SOL    HW110262   2.122   3.982   2.950
 3326SOL    HW210263   1.999   3.954   2.846
 3327SOL     OW10264   1.881   4.092   2.509
 3327SOL    HW110265   1.799   4.135   2.548
 3327SOL    HW210266   1.853   4.019   2.446
 3328SOL     OW10267   2.431   4.999   3.027
 3328SOL    HW110268   2.338   4.992   2.990
 3328SOL    HW210269   2.442   5.088   3.071
 3329SOL     OW10270   3.417   5.235   2.565
 3329SOL    HW110271   3.360   5.219   2.646
 3329SOL    HW210272   3.358   5.245   2.485
 3330SOL     OW10273   2.997   4.427   2.579
 3330SOL    HW110274   3.054   4.505   2.554
 3330SOL    HW210275   2.937   4.453   2.655
 3331SOL     OW10276   3.617   4.331   2.093
 3331SOL    HW110277   3.605   4.318   1.994
 3331SOL    HW210278   3.587   4.250   2.142
 3332SOL     OW10279   2.630   4.868   2.885
 3332SOL    HW110280   2.552   4.885   2.945
 3332SOL    HW210281   2.664   4.955   2.849
 3333SOL     OW10282   2.712   4.522   3.685
 3333SOL    HW110283   2.708   4.598   3.750
 3333SOL    HW210284   2.734   4.558   3.594
 3334SOL     OW10285   2.547   4.736   2.527
 3334SOL    HW110286   2.616   4.720   2.597
 3334SOL    HW210287   2.474   4.793   2.565
 3335SOL     OW10288   2.548   4.885   3.665
 3335SOL    HW110289   2.608   4.964   3.679
 3335SOL    HW210290   2.462   4.916   3.624
 3336SOL     OW10291   2.197   5.159   2.923
 3336SOL    HW110292   2.119   5.128   2.870
 3336SOL    HW210293   2.255   5.217   2.866
 3337SOL     OW10294   3.322   5.229   3.201
 3337SOL    HW110295   3.346   5.323   3.227
 3337SOL    HW210296   3.306   5.175   3.283
 3338SOL     OW10297   2.300   4.116   3.361
 3338SOL    HW110298   2.382   4.060   3.370
 3338SOL    HW210299   2.219   4.058   3.365
 3339SOL     OW10300   3.465   4.171   2.599
 3339SOL    HW110301   3.391   4.217   2.549
 3339SOL    HW210302   3.516   4.239   2.652
 3340SOL     OW10303   2.093   5.437   2.345
 3340SOL    HW110304   2.127   5.514   2.399
 3340SOL    HW210305   2.137   5.437   2.255
 3341SOL     OW10306   2.989   5.065   3.552
 3341SOL    HW110307   3.036   5.065   3.640
 3341SOL    HW210308   2.941   4.978   3.541
 3342SOL     OW10309   2.092   5.158   2.400
 3342SOL    HW110310   2.066   5.254   2.400
 3342SOL    HW210311   2.021   5.104   2.445
 3343SOL     OW10312   2.102   4.815   2.748
 3343SOL    HW110313   2.116   4.731   2.800
 3343SOL    HW210314   2.047   4.879   2.803
 3344SOL     OW10315   2.482   5.510   3.301
 3344SOL    HW110316   2.390   5.493   3.336
 3344SOL    HW210317   2.510   5.602   3.327
 3345SOL     OW10318   2.468   4.688   1.985
 3345SOL    HW110319   2.475   4.772   1.931
 3345SOL    HW210320   2.514   4.701   2.073
 3346SOL     OW10321   3.456   3.838   3.342
 3346SOL    HW110322   3.438   3.905   3.270
 3346SOL    HW210323   3.453   3.884   3.431
 3347SOL     OW10324   1.984   4.367   2.425
 3347SOL    HW110325   1.939   4.279   2.442
 3347SOL    HW210326   1.983   4.421   2.509
 3348SOL     OW10327   3.704   5.491   2.221
 3348SOL    HW110328   3.758   5.462   2.301
 3348SOL    HW210329   3.734   5.581   2.192
 3349SOL     OW10330   1.889   5.320   1.979
 3349SOL    HW110331   1.870   5.224   2.000
 3349SOL    HW210332   1.856   5.378   2.054
 3350SOL     OW10333   3.551   4.646   2.474
 3350SOL    HW110334   3.646   4.617   2.482
 3350SOL    HW210335   3.543   4.711   2.399
 3351SOL     OW10336   3.503   4.832   2.294
 3351SOL    HW110337   3.589   4.834   2.242
 3351SOL    HW210338   3.517   4.879   2.382
 3352SOL     OW10339   1.975   4.461   3.459
 3352SOL    HW110340   2.063   4.448   3.504
 3352SOL    HW210341   1.962   4.558   3.437
 3353SOL     OW10342   2.475   5.089   2.588
 3353SOL    HW110343   2.426   5.002   2.597
 3353SOL    HW210344   2.452   5.132   2.501
 3354SOL     OW10345   3.155   4.952   3.285
 3354SOL    HW110346   3.192   4.879   3.227
 3354SOL    HW210347   3.207   4.957   3.370
 3355SOL     OW10348   2.671   3.728   2.364
 3355SOL    HW110349   2.711   3.819   2.355
 3355SOL    HW210350   2.571   3.736   2.370
 3356SOL     OW10351   2.059   4.700   3.126
 3356SOL    HW110352   2.148   4.655   3.112
 3356SOL    HW210353   1.986   4.635   3.107
 3357SOL     OW10354   3.387   4.723   2.052
 3357SOL    HW110355   3.324   4.647   2.065
 3357SOL    HW210356   3.435   4.741   2.138
 3358SOL     OW10357   3.049   5.516   3.478
 3358SOL    HW110358   3.073   5.576   3.402
 3358SOL    HW210359   3.056   5.421   3.448
 3359SOL     OW10360   2.179   3.975   3.663
 3359SOL    HW110361   2.250   4.046   3.669
 3359SOL    HW210362   2.091   4.014   3.691
 3360SOL     OW10363   3.328   5.141   2.815
 3360SOL    HW110364   3.269   5.147   2.895
 3360SOL    HW210365   3.313   5.053   2.769
 3361SOL     OW10366   3.529   5.438   2.434
 3361SOL    HW110367   3.488   5.415   2.346
 3361SOL    HW210368   3.511   5.364   2.499
 3362SOL     OW10369   2.460   4.453   2.132
 3362SOL    HW110370   2.484   4.522   2.064
 3362SOL    HW210371   2.382   4.486   2.186
 3363SOL     OW10372   3.143   4.069   2.806
 3363SOL    HW110373   3.057   4.019   2.793
 3363SOL    HW210374   3.205   4.015   2.862
 3364SOL     OW10375   3.438   5.386   2.169
 3364SOL    HW110376   3.527   5.432   2.172
 3364SOL    HW210377   3.417   5.362   2.074
 3365SOL     OW10378   2.669   4.329   3.327
 3365SOL    HW110379   2.622   4.326   3.416
 3365SOL    HW210380   2.618   4.274   3.261
 3366SOL     OW10381   3.256   4.193   3.536
 3366SOL    HW110382   3.236   4.236   3.624
 3366SOL    HW210383   3.334   4.131   3.545
 3367SOL     OW10384   2.835   4.614   3.434
 3367SOL    HW110385   2.881   4.530   3.405
 3367SOL    HW210386   2.779   4.648   3.359
 3368SOL     OW10387   2.853   4.134   3.104
 3368SOL    HW110388   2.776   4.168   3.158
 3368SOL    HW210389   2.819   4.083   3.025
 3369SOL     OW10390   2.903   4.425   2.291
 3369SOL    HW110391   2.929   4.421   2.387
 3369SOL    HW210392   2.818   4.374   2.277
 3370SOL     OW10393   1.938   4.535   2.651
 3370SOL    HW110394   2.037   4.523   2.660
 3370SOL    HW210395   1.914   4.630   2.672
 3371SOL     OW10396   1.992   5.545   3.433
 3371SOL    HW110397   1.982   5.530   3.532
 3371SOL    HW210398   1.906   5.581   3.397
 3372SOL     OW10399   2.727   4.072   2.057
 3372SOL    HW110400   2.786   4.135   2.008
 3372SOL    HW210401   2.746   3.978   2.028
 3373SOL     OW10402   3.581   4.309   3.693
 3373SOL    HW110403   3.555   4.398   3.657
 3373SOL    HW210404   3.579   4.241   3.620
 3374SOL     OW10405   3.224   4.868   2.407
 3374SOL    HW110406   3.307   4.839   2.359
 3374SOL    HW210407   3.175   4.935   2.351
 3375SOL     OW10408   2.412   3.920   2.747
 3375SOL    HW110409   2.407   3.915   2.847
 3375SOL    HW210410   2.414   4.016   2.718
 3376SOL     OW10411   2.870   5.180   2.339
 3376SOL    HW110412   2.824   5.252   2.287
 3376SOL    HW210413   2.866   5.200   2.437
 3377SOL     OW10414   2.213   5.525   2.715
 3377SOL    HW110415   2.263   5.439   2.721
 3377SOL    HW210416   2.278   5.602   2.712
 3378SOL     OW10417   3.657   4.790   2.735
 3378SOL    HW110418   3.595   4.775   2.659
 3378SOL    HW210419   3.605   4.801   2.820
 3379SOL     OW10420   3.089   5.274   3.368
 3379SOL    HW110421   3.095   5.197   3.432
 3379SOL    HW210422   3.037   5.248   3.288
 3380SOL     OW10423   2.183   4.667   2.104
 3380SOL    HW110424   2.265   4.706   2.062
 3380SOL    HW210425   2.156   4.585   2.055
 3381SOL     OW10426   3.320   4.459   2.590
 3381SOL    HW110427   3.315   4.394   2.665
 3381SOL    HW210428   3.400   4.518   2.603
 3382SOL     OW10429   2.323   4.990   3.589
 3382SOL    HW110430   2.273   4.991   3.503
 3382SOL    HW210431   2.260   4.972   3.665
 3383SOL     OW10432   2.973   5.500   2.099
 3383SOL    HW110433   2.913   5.438   2.149
 3383SOL    HW210434   3.004   5.456   2.014
 3384SOL     OW10435   2.064   4.009   3.360
 3384SOL    HW110436   1.984   4.069   3.347
 3384SOL    HW210437   2.054   3.960   3.446
 3385SOL     OW10438   3.494   5.101   1.943
 3385SOL    HW110439   3.462   5.195   1.933
 3385SOL    HW210440   3.418   5.038   1.931
 3386SOL     OW10441   2.326   5.467   2.185
 3386SOL    HW110442   2.359   5.506   2.271
 3386SOL    HW210443   2.402   5.460   2.120
 3387SOL     OW10444   3.262   3.831   2.288
 3387SOL    HW110445   3.238   3.794   2.198
 3387SOL    HW210446   3.361   3.847   2.292
 3388SOL     OW10447   2.111   5.509   3.103
 3388SOL    HW110448   2.168   5.444   3.153
 3388SOL    HW210449   2.095   5.476   3.010
 3389SOL     OW10450   2.802   5.422   2.766
 3389SOL    HW110451   2.882   5.365   2.787
 3389SOL    HW210452   2.753   5.382   2.689
 3390SOL     OW10453   2.244   4.424   2.342
 3390SOL    HW110454   2.289   4.334   2.339
 3390SOL    HW210455   2.150   4.413   2.375
 3391SOL     OW10456   3.409   3.946   3.591
 3391SOL    HW110457   3.404   3.983   3.683
 3391SOL    HW210458   3.337   3.877   3.579
 3392SOL     OW10459   2.476   3.846   1.979
 3392SOL    HW110460   2.574   3.824   1.986
 3392SOL    HW210461   2.445   3.829   1.886
 3393SOL     OW10462   2.643   3.988   3.611
 3393SOL    HW110463   2.710   3.927   3.654
 3393SOL    HW210464   2.570   4.007   3.676
 3394SOL     OW10465   2.750   5.238   3.057
 3394SOL    HW110466   2.727   5.213   2.963
 3394SOL    HW210467   2.811   5.169   3.096
 3395SOL     OW10468   3.213   4.314   3.295
 3395SOL    HW110469   3.241   4.271   3.380
 3395SOL    HW210470   3.238   4.410   3.296
 3396SOL     OW10471   2.665   5.126   2.786
 3396SOL    HW110472   2.755   5.140   2.744
 3396SOL    HW210473   2.594   5.128   2.715
 3397SOL     OW10474   2.784   4.227   2.761
 3397SOL    HW110475   2.759   4.218   2.665
 3397SOL    HW210476   2.832   4.145   2.792
 3398SOL     OW10477   2.401   3.788   2.374
 3398SOL    HW110478   2.320   3.789   2.432
 3398SOL    HW210479   2.404   3.871   2.319
 3399SOL     OW10480   3.296   4.912   1.903
 3399SOL    HW110481   3.328   4.836   1.960
 3399SOL    HW210482   3.204   4.939   1.933
 3400SOL     OW10483   2.159   3.759   2.033
 3400SOL    HW110484   2.208   3.843   2.012
 3400SOL    HW210485   2.221   3.694   2.078
 3401SOL     OW10486   2.797   3.960   2.342
 3401SOL    HW110487   2.749   4.001   2.264
 3401SOL    HW210488   2.896   3.958   2.323
 3402SOL     OW10489   2.938   4.407   3.326
 3402SOL    HW110490   2.858   4.346   3.329
 3402SOL    HW210491   3.019   4.354   3.302
 3403SOL     OW10492   3.089   5.294   2.655
 3403SOL    HW110493   3.110   5.368   2.590
 3403SOL    HW210494   3.157   5.294   2.728
 3404SOL     OW10495   2.321   4.876   2.603
 3404SOL    HW110496   2.250   4.849   2.668
 3404SOL    HW210497   2.295   4.848   2.510
 3405SOL     OW10498   3.133   5.521   2.453
 3405SOL    HW110499   3.177   5.585   2.389
 3405SOL    HW210500   3.083   5.573   2.523
 3406SOL     OW10501   2.894   4.273   1.878
 3406SOL    HW110502   2.853   4.355   1.839
 3406SOL    HW210503   2.958   4.299   1.951
 3407SOL     OW10504   1.940   4.280   3.248
 3407SOL    HW110505   2.032   4.279   3.207
 3407SOL    HW210506   1.934   4.354   3.315
 3408SOL     OW10507   2.423   3.946   3.009
 3408SOL    HW110508   2.461   3.862   3.046
 3408SOL    HW210509   2.335   3.965   3.053
 3409SOL     OW10510   2.728   4.178   2.504
 3409SOL    HW110511   2.696   4.250   2.442
 3409SOL    HW210512   2.752   4.097   2.451
 3410SOL     OW10513   2.879   3.763   2.615
 3410SOL    HW110514   2.807   3.768   2.546
 3410SOL    HW210515   2.855   3.694   2.684
 3411SOL     OW10516   3.291   4.897   2.729
 3411SOL    HW110517   3.236   4.813   2.722
 3411SOL    HW210518   3.317   4.926   2.637
 3412SOL     OW10519   3.328   4.314   2.854
 3412SOL    HW110520   3.298   4.219   2.861
 3412SOL    HW210521   3.401   4.330   2.920
 3413SOL     OW10522   3.719   4.557   2.239
 3413SOL    HW110523   3.761   4.493   2.303
 3413SOL    HW210524   3.681   4.506   2.161
 3414SOL     OW10525   2.350   5.109   2.036
 3414SOL    HW110526   2.263   5.094   2.083
 3414SOL    HW210527   2.333   5.135   1.941
 3415SOL     OW10528   3.526   5.004   2.519
 3415SOL    HW110529   3.625   5.012   2.533
 3415SOL    HW210530   3.481   5.088   2.550
 3416SOL     OW10531   3.252   4.299   1.940
 3416SOL    HW110532   3.198   4.278   2.021
 3416SOL    HW210533   3.343   4.258   1.949
 3417SOL     OW10534   2.389   3.980   2.190
 3417SOL    HW110535   2.416   3.921   2.115
 3417SOL    HW210536   2.389   4.075   2.159
 3418SOL     OW10537   3.616   4.947   3.450
 3418SOL    HW110538   3.707   4.908   3.437
 3418SOL    HW210539   3.624   5.043   3.474
 3419SOL     OW10540   2.926   5.071   3.202
 3419SOL    HW110541   2.846   5.048   3.257
 3419SOL    HW210542   3.009   5.045   3.251
 3420SOL     OW10543   3.454   5.353   3.487
 3420SOL    HW110544   3.481   5.387   3.397
 3420SOL    HW210545   3.533   5.315   3.533
 3421SOL     OW10546   2.973   4.919   2.962
 3421SOL    HW110547   2.933   4.963   3.043
 3421SOL    HW210548   2.932   4.956   2.879
 3422SOL     OW10549   3.500   4.823   2.941
 3422SOL    HW110550   3.505   4.904   3.000
 3422SOL    HW210551   3.414   4.825   2.890
 3423SOL     OW10552   2.777   3.813   3.264
 3423SOL    HW110553   2.802   3.793   3.169
 3423SOL    HW210554   2.849   3.869   3.306
 3424SOL     OW10555   2.842   4.840   3.581
 3424SOL    HW110556   2.743   4.846   3.591
 3424SOL    HW210557   2.865   4.760   3.525
 3425SOL     OW10558   2.567   4.774   2.230
 3425SOL    HW110559   2.553   4.781   2.329
 3425SOL    HW210560   2.651   4.723   2.212
 3426SOL     OW10561   2.272   4.537   3.113
 3426SOL    HW110562   2.358   4.549   3.163
 3426SOL    HW210563   2.230   4.450   3.140
 3427SOL     OW10564   3.136   4.110   3.124
 3427SOL    HW110565   3.157   4.184   3.188
 3427SOL    HW210566   3.047   4.127   3.081
 3428SOL     OW10567   1.926   5.288   3.193
 3428SOL    HW110568   1.880   5.370   3.159
 3428SOL    HW210569   2.024   5.307   3.202
 3429SOL     OW10570   2.229   4.824   2.363
 3429SOL    HW110571   2.222   4.907   2.307
 3429SOL    HW210572   2.233   4.744   2.303
 3430SOL     OW10573   2.428   4.261   2.727
 3430SOL    HW110574   2.440   4.327   2.653
 3430SOL    HW210575   2.474   4.295   2.810
 3431SOL     OW10576   3.114   5.072   2.250
 3431SOL    HW110577   3.164   5.149   2.290
 3431SOL    HW210578   3.019   5.074   2.282
 3432SOL     OW10579   3.134   5.169   3.004
 3432SOL    HW110580   3.181   5.182   3.091
 3432SOL    HW210581   3.068   5.095   3.013
 3433SOL     OW10582   3.444   4.363   2.334
 3433SOL    HW110583   3.413   4.424   2.407
 3433SOL    HW210584   3.494   4.415   2.265
 3434SOL     OW10585   2.216   5.234   3.191
 3434SOL    HW110586   2.195   5.190   3.104
 3434SOL    HW210587   2.313   5.260   3.194
 3435SOL     OW10588   2.264   4.475   3.460
 3435SOL    HW110589   2.332   4.530   3.413
 3435SOL    HW210590   2.304   4.387   3.487
 3436SOL     OW10591   3.449   4.503   3.532
 3436SOL    HW110592   3.357   4.541   3.527
 3436SOL    HW210593   3.509   4.550   3.467
 3437SOL     OW10594   2.875   3.829   3.632
 3437SOL    HW110595   2.881   3.914   3.580
 3437SOL    HW210596   2.907   3.753   3.575
 3438SOL     OW10597   2.366   3.774   3.602
 3438SOL    HW110598   2.324   3.717   3.532
 3438SOL    HW210599   2.300   3.843   3.634
 3439SOL     OW10600   2.435   4.594   2.891
 3439SOL    HW110601   2.479   4.683   2.882
 3439SOL    HW210602   2.372   4.594   2.968
 3440SOL     OW10603   3.222   4.586   2.907
 3440SOL    HW110604   3.147   4.586   2.841
 3440SOL    HW210605   3.259   4.494   2.916
 3441SOL     OW10606   3.071   4.249   2.137
 3441SOL    HW110607   3.084   4.165   2.191
 3441SOL    HW210608   3.042   4.323   2.197
 3442SOL     OW10609   2.169   3.937   3.093
 3442SOL    HW110610   2.146   3.974   3.183
 3442SOL    HW210611   2.139   3.842   3.087
 3443SOL     OW10612   1.899   5.034   3.144
 3443SOL    HW110613   1.952   4.985   3.212
 3443SOL    HW210614   1.921   5.132   3.149
 3444SOL     OW10615   2.594   4.358   2.926
 3444SOL    HW110616   2.653   4.332   2.850
 3444SOL    HW210617   2.566   4.454   2.915
 3445SOL     OW10618   3.590   4.659   3.716
 3445SOL    HW110619   3.544   4.652   3.627
 3445SOL    HW210620   3.528   4.703   3.782
 3446SOL     OW10621   2.169   3.787   2.480
 3446SOL    HW110622   2.158   3.881   2.513
 3446SOL    HW210623   2.164   3.724   2.557
 3447SOL     OW10624   3.484   4.091   2.236
 3447SOL    HW110625   3.486   4.015   2.300
 3447SOL    HW210626   3.436   4.168   2.276
 3448SOL     OW10627   2.885   4.490   2.828
 3448SOL    HW110628   2.900   4.511   2.924
 3448SOL    HW210629   2.855   4.395   2.819
 3449SOL     OW10630   2.842   5.297   3.562
 3449SOL    HW110631   2.822   5.341   3.474
 3449SOL    HW210632   2.881   5.206   3.546
 3450SOL     OW10633   3.721   5.242   3.467
 3450SOL    HW110634   3.735   5.269   3.372
 3450SOL    HW210635   3.804   5.264   3.520
 3451SOL     OW10636   2.212   4.622   3.666
 3451SOL    HW110637   2.288   4.666   3.714
 3451SOL    HW210638   2.247   4.575   3.584
 3452SOL     OW10639   3.402   3.998   1.987
 3452SOL    HW110640   3.341   3.923   2.010
 3452SOL    HW210641   3.424   4.050   2.070
 3453SOL     OW10642   3.165   4.562   1.904
 3453SOL    HW110643   3.199   4.469   1.919
 3453SOL    HW210644   3.183   4.589   1.809
 3454SOL     OW10645   2.930   5.057   2.711
 3454SOL    HW110646   2.937   4.973   2.656
 3454SOL    HW210647   2.992   5.126   2.675
 3455SOL     OW10648   2.181   4.534   2.811
 3455SOL    HW110649   2.274   4.570   2.816
 3455SOL    HW210650   2.175   4.449   2.863
 3456SOL     OW10651   2.201   4.233   2.868
 3456SOL    HW110652   2.149   4.150   2.851
 3456SOL    HW210653   2.278   4.238   2.804
 3457SOL     OW10654   3.000   4.104   3.540
 3457SOL    HW110655   2.955   4.167   3.604
 3457SOL    HW210656   3.093   4.135   3.523
 3458SOL     OW10657   3.022   3.931   3.339
 3458SOL    HW110658   3.022   3.995   3.416
 3458SOL    HW210659   3.050   3.979   3.256
 3459SOL     OW10660   1.870   5.050   2.062
 3459SOL    HW110661   1.777   5.071   2.031
 3459SOL    HW210662   1.880   4.951   2.075
 3460SOL     OW10663   1.950   5.525   2.789
 3460SOL    HW110664   1.908   5.439   2.762
 3460SOL    HW210665   2.044   5.528   2.755
 3461SOL     OW10666   2.366   5.292   2.772
 3461SOL    HW110667   2.432   5.366   2.781
 3461SOL    HW210668   2.410   5.213   2.730
 3462SOL     OW10669   2.864   4.520   3.100
 3462SOL    HW110670   2.905   4.488   3.186
 3462SOL    HW210671   2.768   4.493   3.097
 3463SOL     OW10672   1.902   4.268   2.976
 3463SOL    HW110673   1.987   4.235   2.935
 3463SOL    HW210674   1.915   4.283   3.074
 3464SOL     OW10675   2.051   4.244   3.584
 3464SOL    HW110676   2.110   4.204   3.514
 3464SOL    HW210677   1.993   4.315   3.543
 3465SOL     OW10678   3.231   4.674   3.522
 3465SOL    HW110679   3.270   4.763   3.542
 3465SOL    HW210680   3.241   4.654   3.425
 3466SOL     OW10681   2.677   4.296   2.187
 3466SOL    HW110682   2.684   4.207   2.141
 3466SOL    HW210683   2.583   4.330   2.179
 3467SOL     OW10684   3.519   4.328   3.068
 3467SOL    HW110685   3.481   4.259   3.130
 3467SOL    HW210686   3.601   4.292   3.024
 3468SOL     OW10687   2.114   5.288   3.606
 3468SOL    HW110688   2.084   5.345   3.682
 3468SOL    HW210689   2.107   5.191   3.632
 3469SOL     OW10690   2.533   4.188   3.131
 3469SOL    HW110691   2.499   4.099   3.101
 3469SOL    HW210692   2.559   4.242   3.051
 3470SOL     OW10693   2.792   5.402   3.327
 3470SOL    HW110694   2.768   5.384   3.232
 3470SOL    HW210695   2.822   5.496   3.337
 3471SOL     OW10696   2.335   4.224   2.053
 3471SOL    HW110697   2.396   4.304   2.057
 3471SOL    HW210698   2.240   4.255   2.060
 3472SOL     OW10699   2.021   4.861   3.328
 3472SOL    HW110700   2.043   4.800   3.404
 3472SOL    HW210701   2.031   4.812   3.242
 3473SOL     OW10702   3.209   4.783   3.096
 3473SOL    HW110703   3.233   4.720   3.022
 3473SOL    HW210704   3.119   4.823   3.078
 3474SOL     OW10705   3.164   4.579   2.171
 3474SOL    HW110706   3.078   4.548   2.213
 3474SOL    HW210707   3.160   4.565   2.072
 3475SOL     OW10708   3.621   5.471   3.016
 3475SOL    HW110709   3.682   5.501   2.943
 3475SOL    HW210710   3.583   5.382   2.994
 3476SOL     OW10711   3.114   5.455   2.990
 3476SOL    HW110712   3.198   5.460   2.936
 3476SOL    HW210713   3.091   5.359   3.008
 3477SOL     OW10714   1.945   4.982   2.884
 3477SOL    HW110715   1.940   4.981   2.984
 3477SOL    HW210716   1.862   4.941   2.846
 3478SOL     OW10717   2.550   5.386   3.578
 3478SOL    HW110718   2.494   5.467   3.587
 3478SOL    HW210719   2.602   5.390   3.492
 3479SOL     OW10720   3.588   3.859   2.385
 3479SOL    HW110721   3.661   3.842   2.318
 3479SOL    HW210722   3.557   3.772   2.423
 3480SOL     OW10723   3.250   5.297   2.339
 3480SOL    HW110724   3.317   5.309   2.265
 3480SOL    HW210725   3.210   5.386   2.362
 3481SOL     OW10726   1.992   5.518   3.713
 3481SOL    HW110727   1.951   5.444   3.766
 3481SOL    HW210728   2.056   5.569   3.771
 3482SOL     OW10729   3.142   4.651   2.534
 3482SOL    HW110730   3.202   4.570   2.536
 3482SOL    HW210731   3.182   4.720   2.474
 3483SOL     OW10732   2.692   4.997   3.284
 3483SOL    HW110733   2.687   5.030   3.379
 3483SOL    HW210734   2.606   5.016   3.238
 3484SOL     OW10735   2.534   5.340   2.016
 3484SOL    HW110736   2.543   5.350   1.917
 3484SOL    HW210737   2.494   5.251   2.037
 3485SOL     OW10738   3.512   5.444   3.256
 3485SOL    HW110739   3.565   5.454   3.172
 3485SOL    HW210740   3.485   5.534   3.290
 3486SOL     OW10741   3.703   3.899   2.825
 3486SOL    HW110742   3.742   3.814   2.789
 3486SOL    HW210743   3.605   3.901   2.806
 3487SOL     OW10744   2.125   4.050   2.582
 3487SOL    HW110745   2.046   4.101   2.548
 3487SOL    HW210746   2.116   4.035   2.680
 3488SOL     OW10747   3.056   5.336   1.893
 3488SOL    HW110748   3.062   5.243   1.930
 3488SOL    HW210749   2.997   5.336   1.813
 3489SOL     OW10750   2.684   4.726   3.234
 3489SOL    HW110751   2.724   4.725   3.142
 3489SOL    HW210752   2.694   4.818   3.274
 3490SOL     OW10753   2.778   4.634   2.153
 3490SOL    HW110754   2.841   4.672   2.085
 3490SOL    HW210755   2.818   4.551   2.192
 3491SOL     OW10756   3.366   5.331   1.906
 3491SOL    HW110757   3.274   5.368   1.913
 3491SOL    HW210758   3.404   5.351   1.816
 3492SOL     OW10759   2.234   5.012   3.352
 3492SOL    HW110760   2.221   5.105   3.318
 3492SOL    HW210761   2.150   4.960   3.339
 3493SOL     OW10762   3.476   5.016   3.151
 3493SOL    HW110763   3.536   5.019   3.231
 3493SOL    HW210764   3.401   5.080   3.164
 3494SOL     OW10765   2.901   4.822   2.558
 3494SOL    HW110766   2.831   4.775   2.612
 3494SOL    HW210767   2.960   4.754   2.515
 3495SOL     OW10768   2.876   3.960   2.833
 3495SOL    HW110769   2.868   3.924   2.740
 3495SOL    HW210770   2.874   3.884   2.898
 3496SOL     OW10771   2.452   5.211   2.353
 3496SOL    HW110772   2.494   5.153   2.283
 3496SOL    HW210773   2.408   5.290   2.309
 3497SOL     OW10774   3.571   4.109   3.243
 3497SOL    HW110775   3.644   4.178   3.247
 3497SOL    HW210776   3.599   4.034   3.184
 3498SOL     OW10777   2.117   5.072   2.152
 3498SOL    HW110778   2.021   5.073   2.125
 3498SOL    HW210779   2.129   5.125   2.236
 3499SOL     OW10780   1.967   4.737   3.588
 3499SOL    HW110781   1.890   4.704   3.642
 3499SOL    HW210782   2.052   4.707   3.630
 3500SOL     OW10783   2.534   3.927   3.351
 3500SOL    HW110784   2.624   3.911   3.311
 3500SOL    HW210785   2.542   3.932   3.450
 3501SOL     OW10786   1.937   4.069   1.895
 3501SOL    HW110787   1.845   4.041   1.866
 3501SOL    HW210788   1.968   4.146   1.839
 3502SOL     OW10789   3.302   4.580   3.260
 3502SOL    HW110790   3.245   4.632   3.197
 3502SOL    HW210791   3.398   4.592   3.236
 3503SOL     OW10792   1.934   3.890   2.180
 3503SOL    HW110793   1.917   3.973   2.126
 3503SOL    HW210794   2.024   3.853   2.158
 3504SOL     OW10795   3.045   5.059   1.981
 3504SOL    HW110796   2.946   5.048   1.983
 3504SOL    HW210797   3.079   5.074   2.074
 3505SOL     OW10798   2.475   4.566   3.293
 3505SOL    HW110799   2.531   4.647   3.276
 3505SOL    HW210800   2.534   4.486   3.296
 3506SOL     OW10801   3.355   5.491   2.821
 3506SOL    HW110802   3.388   5.555   2.752
 3506SOL    HW210803   3.421   5.485   2.896
 3507SOL     OW10804   2.578   4.289   3.570
 3507SOL    HW110805   2.597   4.354   3.644
 3507SOL    HW210806   2.638   4.209   3.579
 3508SOL     OW10807   3.312   4.944   3.495
 3508SOL    HW110808   3.303   4.934   3.594
 3508SOL    HW210809   3.408   4.937   3.469
 3509SOL     OW10810   2.252   5.465   3.422
 3509SOL    HW110811   2.161   5.506   3.420
 3509SOL    HW210812   2.245   5.371   3.454
 3510SOL     OW10813   3.536   4.607   3.116
 3510SOL    HW110814   3.509   4.518   3.079
 3510SOL    HW210815   3.537   4.675   3.043
 3511SOL     OW10816   3.087   4.049   2.311
 3511SOL    HW110817   3.152   3.975   2.300
 3511SOL    HW210818   3.107   4.099   2.395
 3512SOL     OW10819   2.456   4.469   2.514
 3512SOL    HW110820   2.506   4.554   2.495
 3512SOL    HW210821   2.368   4.471   2.466
 3513SOL     OW10822   3.639   4.066   3.504
 3513SOL    HW110823   3.622   4.097   3.410
 3513SOL    HW210824   3.555   4.029   3.542
 3514SOL     OW10825   3.592   4.658   3.379
 3514SOL    HW110826   3.630   4.749   3.394
 3514SOL    HW210827   3.584   4.641   3.280
 3515SOL     OW10828   2.721   5.098   1.878
 3515SOL    HW110829   2.675   5.113   1.966
 3515SOL    HW210830   2.765   5.183   1.848
 3516SOL     OW10831   2.523   5.514   2.815
 3516SOL    HW110832   2.477   5.602   2.802
 3516SOL    HW210833   2.622   5.526   2.808
 3517SOL     OW10834   2.721   4.680   2.723
 3517SOL    HW110835   2.775   4.611   2.771
 3517SOL    HW210836   2.689   4.749   2.789
 3518SOL     OW10837   2.945   4.708   1.949
 3518SOL    HW110838   2.922   4.761   1.867
 3518SOL    HW210839   3.026   4.652   1.930
 3519SOL     OW10840   3.723   5.293   2.713
 3519SOL    HW110841   3.652   5.281   2.643
 3519SOL    HW210842   3.724   5.214   2.773
 3520SOL     OW10843   2.083   5.038   3.706
 3520SOL    HW110844   2.018   4.965   3.685
 3520SOL    HW210845   2.087   5.052   3.804
 3521SOL     OW10846   1.941   4.964   2.515
 3521SOL    HW110847   1.940   4.917   2.603
 3521SOL    HW210848   2.023   4.936   2.464
 3522SOL     OW10849   2.534   5.115   3.486
 3522SOL    HW110850   2.456   5.065   3.524
 3522SOL    HW210851   2.531   5.210   3.517
 3523SOL     OW10852   3.686   3.916   3.089
 3523SOL    HW110853   3.682   3.826   3.133
 3523SOL    HW210854   3.689   3.905   2.990
 3524SOL     OW10855   2.290   4.148   2.382
 3524SOL    HW110856   2.320   4.076   2.320
 3524SOL    HW210857   2.251   4.108   2.465
 3525SOL     OW10858   3.567   5.211   2.966
 3525SOL    HW110859   3.474   5.186   2.939
 3525SOL    HW210860   3.593   5.161   3.048
 3526SOL     OW10861   2.179   4.271   3.142
 3526SOL    HW110862   2.217   4.212   3.214
 3526SOL    HW210863   2.219   4.245   3.054
 3527SOL     OW10864   2.674   5.310   2.549
 3527SOL    HW110865   2.706   5.320   2.455
 3527SOL    HW210866   2.595   5.248   2.551
 3528SOL     OW10867   3.286   3.938   2.974
 3528SOL    HW110868   3.338   3.873   3.029
 3528SOL    HW210869   3.237   4.001   3.035
 3529SOL     OW10870   2.863   3.758   3.016
 3529SOL    HW110871   2.800   3.686   2.985
 3529SOL    HW210872   2.956   3.722   3.016
 3530SOL     OW10873   2.632   5.054   2.163
 3530SOL    HW110874   2.586   4.967   2.180
 3530SOL    HW210875   2.723   5.051   2.204
 3531SOL     OW10876   2.480   5.291   3.146
 3531SOL    HW110877   2.475   5.373   3.203
 3531SOL    HW210878   2.569   5.288   3.101
 3532SOL     OW10879   3.214   3.776   2.030
 3532SOL    HW110880   3.249   3.735   1.946
 3532SOL    HW210881   3.124   3.738   2.050
 3533SOL     OW10882   3.162   4.177   2.553
 3533SOL    HW110883   3.103   4.257   2.557
 3533SOL    HW210884   3.177   4.142   2.646
 3534SOL     OW10885   3.455   3.945   2.744
 3534SOL    HW110886   3.371   3.944   2.798
 3534SOL    HW210887   3.457   4.028   2.688
 3535SOL     OW10888   1.901   4.801   2.162
 3535SOL    HW110889   2.000   4.790   2.153
 3535SOL    HW210890   1.861   4.715   2.194
 3536SOL     OW10891   2.737   5.370   2.199
 3536SOL    HW110892   2.660   5.335   2.145
 3536SOL    HW210893   2.705   5.441   2.261
 3537SOL     OW10894   2.092   4.352   3.837
 3537SOL    HW110895   1.999   4.350   3.874
 3537SOL    HW210896   2.093   4.313   3.745
 3538SOL     OW10897   2.087   3.999   4.720
 3538SOL    HW110898   2.122   3.982   4.812
 3538SOL    HW210899   1.999   3.954   4.708
 3539SOL     OW10900   1.881   4.092   4.371
 3539SOL    HW110901   1.799   4.135   4.410
 3539SOL    HW210902   1.853   4.019   4.308
 3540SOL     OW10903   2.431   4.999   4.889
 3540SOL    HW110904   2.338   4.992   4.852
 3540SOL    HW210905   2.442   5.088   4.933
 3541SOL     OW10906   3.417   5.235   4.427
 3541SOL    HW110907   3.360   5.219   4.508
 3541SOL    HW210908   3.358   5.245   4.347
 3542SOL     OW10909   2.997   4.427   4.441
 3542SOL    HW110910   3.054   4.505   4.416
 3542SOL    HW210911   2.937   4.453   4.517
 3543SOL     OW10912   3.617   4.331   3.955
 3543SOL    HW110913   3.605   4.318   3.856
 3543SOL    HW210914   3.587   4.250   4.004
 3544SOL     OW10915   2.630   4.868   4.747
 3544SOL    HW110916   2.552   4.885   4.807
 3544SOL    HW210917   2.664   4.955   4.711
 3545SOL     OW10918   2.712   4.522   5.547
 3545SOL    HW110919   2.708   4.598   5.612
 3545SOL    HW210920   2.734   4.558   5.456
 3546SOL     OW10921   2.547   4.736   4.389
 3546SOL    HW110922   2.616   4.720   4.459
 3546SOL    HW210923   2.474   4.793   4.427
 3547SOL     OW10924   2.548   4.885   5.527
 3547SOL    HW110925   2.608   4.964   5.541
 3547SOL    HW210926   2.462   4.916   5.486
 3548SOL     OW10927   2.197   5.159   4.785
 3548SOL    HW110928   2.119   5.128   4.732
 3548SOL    HW210929   2.255   5.217   4.728
 3549SOL     OW10930   3.322   5.229   5.063
 3549SOL    HW110931   3.346   5.323   5.089
 3549SOL    HW210932   3.306   5.175   5.145
 3550SOL     OW10933   2.300   4.116   5.223
 3550SOL    HW110934   2.382   4.060   5.232
 3550SOL    HW210935   2.219   4.058   5.227
 3551SOL     OW10936   3.465   4.171   4.461
 3551SOL    HW110937   3.391   4.217   4.411
 3551SOL    HW210938   3.516   4.239   4.514
 3552SOL     OW10939   2.093   5.437   4.207
 3552SOL    HW110940   2.127   5.514   4.261
 3552SOL    HW210941   2.137   5.437   4.117
 3553SOL     OW10942   2.989   5.065   5.414
 3553SOL    HW110943   3.036   5.065   5.502
 3553SOL    HW210944   2.941   4.978   5.403
 3554SOL     OW10945   2.092   5.158   4.262
 3554SOL    HW110946   2.066   5.254   4.262
 3554SOL    HW210947   2.021   5.104   4.307
 3555SOL     OW10948   2.102   4.815   4.610
 3555SOL    HW110949   2.116   4.731   4.662
 3555SOL    HW210950   2.047   4.879   4.665
 3556SOL     OW10951   2.482   5.510   5.163
 3556SOL    HW110952   2.390   5.493   5.198
 3556SOL    HW210953   2.510   5.602   5.189
 3557SOL     OW10954   2.468   4.688   3.847
 3557SOL    HW110955   2.475   4.772   3.793
 3557SOL    HW210956   2.514   4.701   3.935
 3558SOL     OW10957   3.456   3.838   5.204
 3558SOL    HW110958   3.438   3.905   5.132
 3558SOL    HW210959   3.453   3.884   5.293
 3559SOL     OW10960   1.984   4.367   4.287
 3559SOL    HW110961   1.939   4.279   4.304
 3559SOL    HW210962   1.983   4.421   4.371
 3560SOL     OW10963   3.704   5.491   4.083
 3560SOL    HW110964   3.758   5.462   4.163
 3560SOL    HW210965   3.734   5.581   4.054
 3561SOL     OW10966   1.889   5.320   3.841
 3561SOL    HW110967   1.870   5.224   3.862
 3561SOL    HW210968   1.856   5.378   3.916
 3562SOL     OW10969   3.551   4.646   4.336
 3562SOL    HW110970   3.646   4.617   4.344
 3562SOL    HW210971   3.543   4.711   4.261
 3563SOL     OW10972   3.503   4.832   4.156
 3563SOL    HW110973   3.589   4.834   4.104
 3563SOL    HW210974   3.517   4.879   4.244
 3564SOL     OW10975   1.975   4.461   5.321
 3564SOL    HW110976   2.063   4.448   5.366
 3564SOL    HW210977   1.962   4.558   5.299
 3565SOL     OW10978   2.475   5.089   4.450
 3565SOL    HW110979   2.426   5.002   4.459
 3565SOL    HW210980   2.452   5.132   4.363
 3566SOL     OW10981   3.155   4.952   5.147
 3566SOL    HW110982   3.192   4.879   5.089
 3566SOL    HW210983   3.207   4.957   5.232
 3567SOL     OW10984   2.671   3.728   4.226
 3567SOL    HW110985   2.711   3.819   4.217
 3567SOL    HW210986   2.571   3.736   4.232
 3568SOL     OW10987   2.059   4.700   4.988
 3568SOL    HW110988   2.148   4.655   4.974
 3568SOL    HW210989   1.986   4.635   4.969
 3569SOL     OW10990   3.387   4.723   3.914
 3569SOL    HW110991   3.324   4.647   3.927
 3569SOL    HW210992   3.435   4.741   4.000
 3570SOL     OW10993   3.049   5.516   5.340
 3570SOL    HW110994   3.073   5.576   5.264
 3570SOL    HW210995   3.056   5.421   5.310
 3571SOL     OW10996   2.179   3.975   5.525
 3571SOL    HW110997   2.250   4.046   5.531
 3571SOL    HW210998   2.091   4.014   5.553
 3572SOL     OW10999   3.328   5.141   4.677
 3572SOL    HW111000   3.269   5.147   4.757
 3572SOL    HW211001   3.313   5.053   4.631
 3573SOL     OW11002   3.529   5.438   4.296
 3573SOL    HW111003   3.488   5.415   4.208
 3573SOL    HW211004   3.511   5.364   4.361
 3574SOL     OW11005   2.460   4.453   3.994
 3574SOL    HW111006   2.484   4.522   3.926
 3574SOL    HW211007   2.382   4.486   4.048
 3575SOL     OW11008   3.143   4.069   4.668
 3575SOL    HW111009   3.057   4.019   4.655
 3575SOL    HW211010   3.205   4.015   4.724
 3576SOL     OW11011   3.438   5.386   4.031
 3576SOL    HW111012   3.527   5.432   4.034
 3576SOL    HW211013   3.417   5.362   3.936
 3577SOL     OW11014   2.669   4.329   5.189
 3577SOL    HW111015   2.622   4.326   5.278
 3577SOL    HW211016   2.618   4.274   5.123
 3578SOL     OW11017   3.256   4.193   5.398
 3578SOL    HW111018   3.236   4.236   5.486
 3578SOL    HW211019   3.334   4.131   5.407
 3579SOL     OW11020   2.835   4.614   5.296
 3579SOL    HW111021   2.881   4.530   5.267
 3579SOL    HW211022   2.779   4.648   5.221
 3580SOL     OW11023   2.853   4.134   4.966
 3580SOL    HW111024   2.776   4.168   5.020
 3580SOL    HW211025   2.819   4.083   4.887
 3581SOL     OW11026   2.903   4.425   4.153
 3581SOL    HW111027   2.929   4.421   4.249
 3581SOL    HW211028   2.818   4.374   4.139
 3582SOL     OW11029   1.938   4.535   4.513
 3582SOL    HW111030   2.037   4.523   4.522
 3582SOL    HW211031   1.914   4.630   4.534
 3583SOL     OW11032   1.992   5.545   5.295
 3583SOL    HW111033   1.982   5.530   5.394
 3583SOL    HW211034   1.906   5.581   5.259
 3584SOL     OW11035   2.727   4.072   3.919
 3584SOL    HW111036   2.786   4.135   3.870
 3584SOL    HW211037   2.746   3.978   3.890
 3585SOL     OW11038   3.581   4.309   5.555
 3585SOL    HW111039   3.555   4.398   5.519
 3585SOL    HW211040   3.579   4.241   5.482
 3586SOL     OW11041   3.224   4.868   4.269
 3586SOL    HW111042   3.307   4.839   4.221
 3586SOL    HW211043   3.175   4.935   4.213
 3587SOL     OW11044   2.412   3.920   4.609
 3587SOL    HW111045   2.407   3.915   4.709
 3587SOL    HW211046   2.414   4.016   4.580
 3588SOL     OW11047   2.870   5.180   4.201
 3588SOL    HW111048   2.824   5.252   4.149
 3588SOL    HW211049   2.866   5.200   4.299
 3589SOL     OW11050   2.213   5.525   4.577
 3589SOL    HW111051   2.263   5.439   4.583
 3589SOL    HW211052   2.278   5.602   4.574
 3590SOL     OW11053   3.657   4.790   4.597
 3590SOL    HW111054   3.595   4.775   4.521
 3590SOL    HW211055   3.605   4.801   4.682
 3591SOL     OW11056   3.089   5.274   5.230
 3591SOL    HW111057   3.095   5.197   5.294
 3591SOL    HW211058   3.037   5.248   5.150
 3592SOL     OW11059   2.183   4.667   3.966
 3592SOL    HW111060   2.265   4.706   3.924
 3592SOL    HW211061   2.156   4.585   3.917
 3593SOL     OW11062   3.320   4.459   4.452
 3593SOL    HW111063   3.315   4.394   4.527
 3593SOL    HW211064   3.400   4.518   4.465
 3594SOL     OW11065   2.323   4.990   5.451
 3594SOL    HW111066   2.273   4.991   5.365
 3594SOL    HW211067   2.260   4.972   5.527
 3595SOL     OW11068   2.973   5.500   3.961
 3595SOL    HW111069   2.913   5.438   4.011
 3595SOL    HW211070   3.004   5.456   3.876
 3596SOL     OW11071   2.064   4.009   5.222
 3596SOL    HW111072   1.984   4.069   5.209
 3596SOL    HW211073   2.054   3.960   5.308
 3597SOL     OW11074   3.494   5.101   3.805
 3597SOL    HW111075   3.462   5.195   3.795
 3597SOL    HW211076   3.418   5.038   3.793
 3598SOL     OW11077   2.326   5.467   4.047
 3598SOL    HW111078   2.359   5.506   4.133
 3598SOL    HW211079   2.402   5.460   3.982
 3599SOL     OW11080   3.262   3.831   4.150
 3599SOL    HW111081   3.238   3.794   4.060
 3599SOL    HW211082   3.361   3.847   4.154
 3600SOL     OW11083   2.111   5.509   4.965
 3600SOL    HW111084   2.168   5.444   5.015
 3600SOL    HW211085   2.095   5.476   4.872
 3601SOL     OW11086   2.802   5.422   4.628
 3601SOL    HW111087   2.882   5.365   4.649
 3601SOL    HW211088   2.753   5.382   4.551
 3602SOL     OW11089   2.244   4.424   4.204
 3602SOL    HW111090   2.289   4.334   4.201
 3602SOL    HW211091   2.150   4.413   4.237
 3603SOL     OW11092   3.409   3.946   5.453
 3603SOL    HW111093   3.404   3.983   5.545
 3603SOL    HW211094   3.337   3.877   5.441
 3604SOL     OW11095   2.476   3.846   3.841
 3604SOL    HW111096   2.574   3.824   3.848
 3604SOL    HW211097   2.445   3.829   3.748
 3605SOL     OW11098   2.643   3.988   5.473
 3605SOL    HW111099   2.710   3.927   5.516
 3605SOL    HW211100   2.570   4.007   5.538
 3606SOL     OW11101   2.750   5.238   4.919
 3606SOL    HW111102   2.727   5.213   4.825
 3606SOL    HW211103   2.811   5.169   4.958
 3607SOL     OW11104   3.213   4.314   5.157
 3607SOL    HW111105   3.241   4.271   5.242
 3607SOL    HW211106   3.238   4.410   5.158
 3608SOL     OW11107   2.665   5.126   4.648
 3608SOL    HW111108   2.755   5.140   4.606
 3608SOL    HW211109   2.594   5.128   4.577
 3609SOL     OW11110   2.784   4.227   4.623
 3609SOL    HW111111   2.759   4.218   4.527
 3609SOL    HW211112   2.832   4.145   4.654
 3610SOL     OW11113   2.401   3.788   4.236
 3610SOL    HW111114   2.320   3.789   4.294
 3610SOL    HW211115   2.404   3.871   4.181
 3611SOL     OW11116   3.296   4.912   3.765
 3611SOL    HW111117   3.328   4.836   3.822
 3611SOL    HW211118   3.204   4.939   3.795
 3612SOL     OW11119   2.159   3.759   3.895
 3612SOL    HW111120   2.208   3.843   3.874
 3612SOL    HW211121   2.221   3.694   3.940
 3613SOL     OW11122   2.797   3.960   4.204
 3613SOL    HW111123   2.749   4.001   4.126
 3613SOL    HW211124   2.896   3.958   4.185
 3614SOL     OW11125   2.938   4.407   5.188
 3614SOL    HW111126   2.858   4.346   5.191
 3614SOL    HW211127   3.019   4.354   5.164
 3615SOL     OW11128   3.089   5.294   4.517
 3615SOL    HW111129   3.110   5.368   4.452
 3615SOL    HW211130   3.157   5.294   4.590
 3616SOL     OW11131   2.321   4.876   4.465
 3616SOL    HW111132   2.250   4.849   4.530
 3616SOL    HW211133   2.295   4.848   4.372
 3617SOL     OW11134   3.133   5.521   4.315
 3617SOL    HW111135   3.177   5.585   4.251
 3617SOL    HW211136   3.083   5.573   4.385
 3618SOL     OW11137   2.894   4.273   3.740
 3618SOL    HW111138   2.853   4.355   3.701
 3618SOL    HW211139   2.958   4.299   3.813
 3619SOL     OW11140   1.940   4.280   5.110
 3619SOL    HW111141   2.032   4.279   5.069
 3619SOL    HW211142   1.934   4.354   5.177
 3620SOL     OW11143   2.423   3.946   4.871
 3620SOL    HW111144   2.461   3.862   4.908
 3620SOL    HW211145   2.335   3.965   4.915
 3621SOL     OW11146   2.728   4.178   4.366
 3621SOL    HW111147   2.696   4.250   4.304
 3621SOL    HW211148   2.752   4.097   4.313
 3622SOL     OW11149   2.879   3.763   4.477
 3622SOL    HW111150   2.807   3.768   4.408
 3622SOL    HW211151   2.855   3.694   4.546
 3623SOL     OW11152   3.291   4.897   4.591
 3623SOL    HW111153   3.236   4.813   4.584
 3623SOL    HW211154   3.317   4.926   4.499
 3624SOL     OW11155   3.328   4.314   4.716
 3624SOL    HW111156   3.298   4.219   4.723
 3624SOL    HW211157   3.401   4.330   4.782
 3625SOL     OW11158   3.719   4.557   4.101
 3625SOL    HW111159   3.761   4.493   4.165
 3625SOL    HW211160   3.681   4.506   4.023
 3626SOL     OW11161   2.350   5.109   3.898
 3626SOL    HW111162   2.263   5.094   3.945
 3626SOL    HW211163   2.333   5.135   3.803
 3627SOL     OW11164   3.526   5.004   4.381
 3627SOL    HW111165   3.625   5.012   4.395
 3627SOL    HW211166   3.481   5.088   4.412
 3628SOL     OW11167   3.252   4.299   3.802
 3628SOL    HW111168   3.198   4.278   3.883
 3628SOL    HW211169   3.343   4.258   3.811
 3629SOL     OW11170   2.389   3.980   4.052
 3629SOL    HW111171   2.416   3.921   3.977
 3629SOL    HW211172   2.389   4.075   4.021
 3630SOL     OW11173   3.616   4.947   5.312
 3630SOL    HW111174   3.707   4.908   5.299
 3630SOL    HW211175   3.624   5.043   5.336
 3631SOL     OW11176   2.926   5.071   5.064
 3631SOL    HW111177   2.846   5.048   5.119
 3631SOL    HW211178   3.009   5.045   5.113
 3632SOL     OW11179   3.454   5.353   5.349
 3632SOL    HW111180   3.481   5.387   5.259
 3632SOL    HW211181   3.533   5.315   5.395
 3633SOL     OW11182   2.973   4.919   4.824
 3633SOL    HW111183   2.933   4.963   4.905
 3633SOL    HW211184   2.932   4.956   4.741
 3634SOL     OW11185   3.500   4.823   4.803
 3634SOL    HW111186   3.505   4.904   4.862
 3634SOL    HW211187   3.414   4.825   4.752
 3635SOL     OW11188   2.777   3.813   5.126
 3635SOL    HW111189   2.802   3.793   5.031
 3635SOL    HW211190   2.849   3.869   5.168
 3636SOL     OW11191   2.842   4.840   5.443
 3636SOL    HW111192   2.743   4.846   5.453
 3636SOL    HW211193   2.865   4.760   5.387
 3637SOL     OW11194   2.567   4.774   4.092
 3637SOL    HW111195   2.553   4.781   4.191
 3637SOL    HW211196   2.651   4.723   4.074
 3638SOL     OW11197   2.272   4.537   4.975
 3638SOL    HW111198   2.358   4.549   5.025
 3638SOL    HW211199   2.230   4.450   5.002
 3639SOL     OW11200   3.136   4.110   4.986
 3639SOL    HW111201   3.157   4.184   5.050
 3639SOL    HW211202   3.047   4.127   4.943
 3640SOL     OW11203   1.926   5.288   5.055
 3640SOL    HW111204   1.880   5.370   5.021
 3640SOL    HW211205   2.024   5.307   5.064
 3641SOL     OW11206   2.229   4.824   4.225
 3641SOL    HW111207   2.222   4.907   4.169
 3641SOL    HW211208   2.233   4.744   4.165
 3642SOL     OW11209   2.428   4.261   4.589
 3642SOL    HW111210   2.440   4.327   4.515
 3642SOL    HW211211   2.474   4.295   4.672
 3643SOL     OW11212   3.114   5.072   4.112
 3643SOL    HW111213   3.164   5.149   4.152
 3643SOL    HW211214   3.019   5.074   4.144
 3644SOL     OW11215   3.134   5.169   4.866
 3644SOL    HW111216   3.181   5.182   4.953
 3644SOL    HW211217   3.068   5.095   4.875
 3645SOL     OW11218   3.444   4.363   4.196
 3645SOL    HW111219   3.413   4.424   4.269
 3645SOL    HW211220   3.494   4.415   4.127
 3646SOL     OW11221   2.216   5.234   5.053
 3646SOL    HW111222   2.195   5.190   4.966
 3646SOL    HW211223   2.313   5.260   5.056
 3647SOL     OW11224   2.264   4.475   5.322
 3647SOL    HW111225   2.332   4.530   5.275
 3647SOL    HW211226   2.304   4.387   5.349
 3648SOL     OW11227   3.449   4.503   5.394
 3648SOL    HW111228   3.357   4.541   5.389
 3648SOL    HW211229   3.509   4.550   5.329
 3649SOL     OW11230   2.875   3.829   5.494
 3649SOL    HW111231   2.881   3.914   5.442
 3649SOL    HW211232   2.907   3.753   5.437
 3650SOL     OW11233   2.366   3.774   5.464
 3650SOL    HW111234   2.324   3.717   5.394
 3650SOL    HW211235   2.300   3.843   5.496
 3651SOL     OW11236   2.435   4.594   4.753
 3651SOL    HW111237   2.479   4.683   4.744
 3651SOL    HW211238   2.372   4.594   4.830
 3652SOL     OW11239   3.222   4.586   4.769
 3652SOL    HW111240   3.147   4.586   4.703
 3652SOL    HW211241   3.259   4.494   4.778
 3653SOL     OW11242   3.071   4.249   3.999
 3653SOL    HW111243   3.084   4.165   4.053
 3653SOL    HW211244   3.042   4.323   4.059
 3654SOL     OW11245   2.169   3.937   4.955
 3654SOL    HW111246   2.146   3.974   5.045
 3654SOL    HW211247   2.139   3.842   4.949
 3655SOL     OW11248   1.899   5.034   5.006
 3655SOL    HW111249   1.952   4.985   5.074
 3655SOL    HW211250   1.921   5.132   5.011
 3656SOL     OW11251   2.594   4.358   4.788
 3656SOL    HW111252   2.653   4.332   4.712
 3656SOL    HW211253   2.566   4.454   4.777
 3657SOL     OW11254   3.590   4.659   5.578
 3657SOL    HW111255   3.544   4.652   5.489
 3657SOL    HW211256   3.528   4.703   5.644
 3658SOL     OW11257   2.169   3.787   4.342
 3658SOL    HW111258   2.158   3.881   4.375
 3658SOL    HW211259   2.164   3.724   4.419
 3659SOL     OW11260   3.484   4.091   4.098
 3659SOL    HW111261   3.486   4.015   4.162
 3659SOL    HW211262   3.436   4.168   4.138
 3660SOL     OW11263   2.885   4.490   4.690
 3660SOL    HW111264   2.900   4.511   4.786
 3660SOL    HW211265   2.855   4.395   4.681
 3661SOL     OW11266   2.842   5.297   5.424
 3661SOL    HW111267   2.822   5.341   5.336
 3661SOL    HW211268   2.881   5.206   5.408
 3662SOL     OW11269   3.721   5.242   5.329
 3662SOL    HW111270   3.735   5.269   5.234
 3662SOL    HW211271   3.804   5.264   5.382
 3663SOL     OW11272   2.212   4.622   5.528
 3663SOL    HW111273   2.288   4.666   5.576
 3663SOL    HW211274   2.247   4.575   5.446
 3664SOL     OW11275   3.402   3.998   3.849
 3664SOL    HW111276   3.341   3.923   3.872
 3664SOL    HW211277   3.424   4.050   3.932
 3665SOL     OW11278   3.165   4.562   3.766
 3665SOL    HW111279   3.199   4.469   3.781
 3665SOL    HW211280   3.183   4.589   3.671
 3666SOL     OW11281   2.930   5.057   4.573
 3666SOL    HW111282   2.937   4.973   4.518
 3666SOL    HW211283   2.992   5.126   4.537
 3667SOL     OW11284   2.181   4.534   4.673
 3667SOL    HW111285   2.274   4.570   4.678
 3667SOL    HW211286   2.175   4.449   4.725
 3668SOL     OW11287   2.201   4.233   4.730
 3668SOL    HW111288   2.149   4.150   4.713
 3668SOL    HW211289   2.278   4.238   4.666
 3669SOL     OW11290   3.000   4.104   5.402
 3669SOL    HW111291   2.955   4.167   5.466
 3669SOL    HW211292   3.093   4.135   5.385
 3670SOL     OW11293   3.022   3.931   5.201
 3670SOL    HW111294   3.022   3.995   5.278
 3670SOL    HW211295   3.050   3.979   5.118
 3671SOL     OW11296   1.870   5.050   3.924
 3671SOL    HW111297   1.777   5.071   3.893
 3671SOL    HW211298   1.880   4.951   3.937
 3672SOL     OW11299   1.950   5.525   4.651
 3672SOL    HW111300   1.908   5.439   4.624
 3672SOL    HW211301   2.044   5.528   4.617
 3673SOL     OW11302   2.366   5.292   4.634
 3673SOL    HW111303   2.432   5.366   4.643
 3673SOL    HW211304   2.410   5.213   4.592
 3674SOL     OW11305   2.864   4.520   4.962
 3674SOL    HW111306   2.905   4.488   5.048
 3674SOL    HW211307   2.768   4.493   4.959
 3675SOL     OW11308   1.902   4.268   4.838
 3675SOL    HW111309   1.987   4.235   4.797
 3675SOL    HW211310   1.915   4.283   4.936
 3676SOL     OW11311   2.051   4.244   5.446
 3676SOL    HW111312   2.110   4.204   5.376
 3676SOL    HW211313   1.993   4.315   5.405
 3677SOL     OW11314   3.231   4.674   5.384
 3677SOL    HW111315   3.270   4.763   5.404
 3677SOL    HW211316   3.241   4.654   5.287
 3678SOL     OW11317   2.677   4.296   4.049
 3678SOL    HW111318   2.684   4.207   4.003
 3678SOL    HW211319   2.583   4.330   4.041
 3679SOL     OW11320   3.519   4.328   4.930
 3679SOL    HW111321   3.481   4.259   4.992
 3679SOL    HW211322   3.601   4.292   4.886
 3680SOL     OW11323   2.114   5.288   5.468
 3680SOL    HW111324   2.084   5.345   5.544
 3680SOL    HW211325   2.107   5.191   5.494
 3681SOL     OW11326   2.533   4.188   4.993
 3681SOL    HW111327   2.499   4.099   4.963
 3681SOL    HW211328   2.559   4.242   4.913
 3682SOL     OW11329   2.792   5.402   5.189
 3682SOL    HW111330   2.768   5.384   5.094
 3682SOL    HW211331   2.822   5.496   5.199
 3683SOL     OW11332   2.335   4.224   3.915
 3683SOL    HW111333   2.396   4.304   3.919
 3683SOL    HW211334   2.240   4.255   3.922
 3684SOL     OW11335   2.021   4.861   5.190
 3684SOL    HW111336   2.043   4.800   5.266
 3684SOL    HW211337   2.031   4.812   5.104
 3685SOL     OW11338   3.209   4.783   4.958
 3685SOL    HW111339   3.233   4.720   4.884
 3685SOL    HW211340   3.119   4.823   4.940
 3686SOL     OW11341   3.164   4.579   4.033
 3686SOL    HW111342   3.078   4.548   4.075
 3686SOL    HW211343   3.160   4.565   3.934
 3687SOL     OW11344   3.621   5.471   4.878
 3687SOL    HW111345   3.682   5.501   4.805
 3687SOL    HW211346   3.583   5.382   4.856
 3688SOL     OW11347   3.114   5.455   4.852
 3688SOL    HW111348   3.198   5.460   4.798
 3688SOL    HW211349   3.091   5.359   4.870
 3689SOL     OW11350   1.945   4.982   4.746
 3689SOL    HW111351   1.940   4.981   4.846
 3689SOL    HW211352   1.862   4.941   4.708
 3690SOL     OW11353   2.550   5.386   5.440
 3690SOL    HW111354   2.494   5.467   5.449
 3690SOL    HW211355   2.602   5.390   5.354
 3691SOL     OW11356   3.588   3.859   4.247
 3691SOL    HW111357   3.661   3.842   4.180
 3691SOL    HW211358   3.557   3.772   4.285
 3692SOL     OW11359   3.250   5.297   4.201
 3692SOL    HW111360   3.317   5.309   4.127
 3692SOL    HW211361   3.210   5.386   4.224
 3693SOL     OW11362   1.992   5.518   5.575
 3693SOL    HW111363   1.951   5.444   5.628
 3693SOL    HW211364   2.056   5.569   5.633
 3694SOL     OW11365   3.142   4.651   4.396
 3694SOL    HW111366   3.202   4.570   4.398
 3694SOL    HW211367   3.182   4.720   4.336
 3695SOL     OW11368   2.692   4.997   5.146
 3695SOL    HW111369   2.687   5.030   5.241
 3695SOL    HW211370   2.606   5.016   5.100
 3696SOL     OW11371   2.534   5.340   3.878
 3696SOL    HW111372   2.543   5.350   3.779
 3696SOL    HW211373   2.494   5.251   3.899
 3697SOL     OW11374   3.512   5.444   5.118
 3697SOL    HW111375   3.565   5.454   5.034
 3697SOL    HW211376   3.485   5.534   5.152
 3698SOL     OW11377   3.703   3.899   4.687
 3698SOL    HW111378   3.742   3.814   4.651
 3698SOL    HW211379   3.605   3.901   4.668
 3699SOL     OW11380   2.125   4.050   4.444
 3699SOL    HW111381   2.046   4.101   4.410
 3699SOL    HW211382   2.116   4.035   4.542
 3700SOL     OW11383   3.056   5.336   3.755
 3700SOL    HW111384   3.062   5.243   3.792
 3700SOL    HW211385   2.997   5.336   3.675
 3701SOL     OW11386   2.684   4.726   5.096
 3701SOL    HW111387   2.724   4.725   5.004
 3701SOL    HW211388   2.694   4.818   5.136
 3702SOL     OW11389   2.778   4.634   4.015
 3702SOL    HW111390   2.841   4.672   3.947
 3702SOL    HW211391   2.818   4.551   4.054
 3703SOL     OW11392   3.366   5.331   3.768
 3703SOL    HW111393   3.274   5.368   3.775
 3703SOL    HW211394   3.404   5.351   3.678
 3704SOL     OW11395   2.234   5.012   5.214
 3704SOL    HW111396   2.221   5.105   5.180
 3704SOL    HW211397   2.150   4.960   5.201
 3705SOL     OW11398   3.476   5.016   5.013
 3705SOL    HW111399   3.536   5.019   5.093
 3705SOL    HW211400   3.401   5.080   5.026
 3706SOL     OW11401   2.901   4.822   4.420
 3706SOL    HW111402   2.831   4.775   4.474
 3706SOL    HW211403   2.960   4.754   4.377
 3707SOL     OW11404   2.876   3.960   4.695
 3707SOL    HW111405   2.868   3.924   4.602
 3707SOL    HW211406   2.874   3.884   4.760
 3708SOL     OW11407   2.452   5.211   4.215
 3708SOL    HW111408   2.494   5.153   4.145
 3708SOL    HW211409   2.408   5.290   4.171
 3709SOL     OW11410   3.571   4.109   5.105
 3709SOL    HW111411   3.644   4.178   5.109
 3709SOL    HW211412   3.599   4.034   5.046
 3710SOL     OW11413   2.117   5.072   4.014
 3710SOL    HW111414   2.021   5.073   3.987
 3710SOL    HW211415   2.129   5.125   4.098
 3711SOL     OW11416   1.967   4.737   5.450
 3711SOL    HW111417   1.890   4.704   5.504
 3711SOL    HW211418   2.052   4.707   5.492
 3712SOL     OW11419   2.534   3.927   5.213
 3712SOL    HW111420   2.624   3.911   5.173
 3712SOL    HW211421   2.542   3.932   5.312
 3713SOL     OW11422   1.937   4.069   3.757
 3713SOL    HW111423   1.845   4.041   3.728
 3713SOL    HW211424   1.968   4.146   3.701
 3714SOL     OW11425   3.302   4.580   5.122
 3714SOL    HW111426   3.245   4.632   5.059
 3714SOL    HW211427   3.398   4.592   5.098
 3715SOL     OW11428   1.934   3.890   4.042
 3715SOL    HW111429   1.917   3.973   3.988
 3715SOL    HW211430   2.024   3.853   4.020
 3716SOL     OW11431   3.045   5.059   3.843
 3716SOL    HW111432   2.946   5.048   3.845
 3716SOL    HW211433   3.079   5.074   3.936
 3717SOL     OW11434   2.475   4.566   5.155
 3717SOL    HW111435   2.531   4.647   5.138
 3717SOL    HW211436   2.534   4.486   5.158
 3718SOL     OW11437   3.355   5.491   4.683
 3718SOL    HW111438   3.388   5.555   4.614
 3718SOL    HW211439   3.421   5.485   4.758
 3719SOL     OW11440   2.578   4.289   5.432
 3719SOL    HW111441   2.597   4.354   5.506
 3719SOL    HW211442   2.638   4.209   5.441
 3720SOL     OW11443   3.312   4.944   5.357
 3720SOL    HW111444   3.303   4.934   5.456
 3720SOL    HW211445   3.408   4.937   5.331
 3721SOL     OW11446   2.252   5.465   5.284
 3721SOL    HW111447   2.161   5.506   5.282
 3721SOL    HW211448   2.245   5.371   5.316
 3722SOL     OW11449   3.536   4.607   4.978
 3722SOL    HW111450   3.509   4.518   4.941
 3722SOL    HW211451   3.537   4.675   4.905
 3723SOL     OW11452   3.087   4.049   4.173
 3723SOL    HW111453   3.152   3.975   4.162
 3723SOL    HW211454   3.107   4.099   4.257
 3724SOL     OW11455   2.456   4.469   4.376
 3724SOL    HW111456   2.506   4.554   4.357
 3724SOL    HW211457   2.368   4.471   4.328
 3725SOL     OW11458   3.639   4.066   5.366
 3725SOL    HW111459   3.622   4.097   5.272
 3725SOL    HW211460   3.555   4.029   5.404
 3726SOL     OW11461   3.592   4.658   5.241
 3726SOL    HW111462   3.630   4.749   5.256
 3726SOL    HW211463   3.584   4.641   5.142
 3727SOL     OW11464   2.721   5.098   3.740
 3727SOL    HW111465   2.675   5.113   3.828
 3727SOL    HW211466   2.765   5.183   3.710
 3728SOL     OW11467   2.523   5.514   4.677
 3728SOL    HW111468   2.477   5.602   4.664
 3728SOL    HW211469   2.622   5.526   4.670
 3729SOL     OW11470   2.721   4.680   4.585
 3729SOL    HW111471   2.775   4.611   4.633
 3729SOL    HW211472   2.689   4.749   4.651
 3730SOL     OW11473   2.945   4.708   3.811
 3730SOL    HW111474   2.922   4.761   3.729
 3730SOL    HW211475   3.026   4.652   3.792
 3731SOL     OW11476   3.723   5.293   4.575
 3731SOL    HW111477   3.652   5.281   4.505
 3731SOL    HW211478   3.724   5.214   4.635
 3732SOL     OW11479   2.083   5.038   5.568
 3732SOL    HW111480   2.018   4.965   5.547
 3732SOL    HW211481   2.087   5.052   5.666
 3733SOL     OW11482   1.941   4.964   4.377
 3733SOL    HW111483   1.940   4.917   4.465
 3733SOL    HW211484   2.023   4.936   4.326
 3734SOL     OW11485   2.534   5.115   5.348
 3734SOL    HW111486   2.456   5.065   5.386
 3734SOL    HW211487   2.531   5.210   5.379
 3735SOL     OW11488   3.686   3.916   4.951
 3735SOL    HW111489   3.682   3.826   4.995
 3735SOL    HW211490   3.689   3.905   4.852
 3736SOL     OW11491   2.290   4.148   4.244
 3736SOL    HW111492   2.320   4.076   4.182
 3736SOL    HW211493   2.251   4.108   4.327
 3737SOL     OW11494   3.567   5.211   4.828
 3737SOL    HW111495   3.474   5.186   4.801
 3737SOL    HW211496   3.593   5.161   4.910
 3738SOL     OW11497   2.179   4.271   5.004
 3738SOL    HW111498   2.217   4.212   5.076
 3738SOL    HW211499   2.219   4.245   4.916
 3739SOL     OW11500   2.674   5.310   4.411
 3739SOL    HW111501   2.706   5.320   4.317
 3739SOL    HW211502   2.595   5.248   4.413
 3740SOL     OW11503   3.286   3.938   4.836
 3740SOL    HW111504   3.338   3.873   4.891
 3740SOL    HW211505   3.237   4.001   4.897
 3741SOL     OW11506   2.863   3.758   4.878
 3741SOL    HW111507   2.800   3.686   4.847
 3741SOL    HW211508   2.956   3.722   4.878
 3742SOL     OW11509   2.632   5.054   4.025
 3742SOL    HW111510   2.586   4.967   4.042
 3742SOL    HW211511   2.723   5.051   4.066
 3743SOL     OW11512   2.480   5.291   5.008
 3743SOL    HW111513   2.475   5.373   5.065
 3743SOL    HW211514   2.569   5.288   4.963
 3744SOL     OW11515   3.214   3.776   3.892
 3744SOL    HW111516   3.249   3.735   3.808
 3744SOL    HW211517   3.124   3.738   3.912
 3745SOL     OW11518   3.162   4.177   4.415
 3745SOL    HW111519   3.103   4.257   4.419
 3745SOL    HW211520   3.177   4.142   4.508
 3746SOL     OW11521   3.455   3.945   4.606
 3746SOL    HW111522   3.371   3.944   4.660
 3746SOL    HW211523   3.457   4.028   4.550
 3747SOL     OW11524   1.901   4.801   4.024
 3747SOL    HW111525   2.000   4.790   4.015
 3747SOL    HW211526   1.861   4.715   4.056
 3748SOL     OW11527   2.737   5.370   4.061
 3748SOL    HW111528   2.660   5.335   4.007
 3748SOL    HW211529   2.705   5.441   4.123
 3749SOL     OW11530   2.765   5.672   1.995
 3749SOL    HW111531   2.816   5.673   1.909
 3749SOL    HW211532   2.821   5.630   2.066
 3750SOL     OW11533   2.765   5.672   3.857
 3750SOL    HW111534   2.816   5.673   3.771
 3750SOL    HW211535   2.821   5.630   3.928
 3751SOL     OW11536   2.476   5.708   5.703
 3751SOL    HW111537   2.574   5.686   5.710
 3751SOL    HW211538   2.445   5.691   5.610
 3752SOL     OW11539   2.159   5.621   5.757
 3752SOL    HW111540   2.208   5.705   5.736
 3752SOL    HW211541   2.221   5.556   5.802
 3753SOL     OW11542   2.765   5.672   5.719
 3753SOL    HW111543   2.816   5.673   5.633
 3753SOL    HW211544   2.821   5.630   5.790
 3754SOL     OW11545   1.934   5.752   5.904
 3754SOL    HW111546   1.917   5.835   5.850
 3754SOL    HW211547   2.024   5.715   5.882
 3755SOL     OW11548   3.954   0.628   0.113
 3755SOL    HW111549   3.861   0.626   0.150
 3755SOL    HW211550   3.955   0.589   0.021
 3756SOL     OW11551   3.949   0.275   0.996
 3756SOL    HW111552   3.984   0.258   1.088
 3756SOL    HW211553   3.861   0.230   0.984
 3757SOL     OW11554   3.743   0.368   0.647
 3757SOL    HW111555   3.661   0.411   0.686
 3757SOL    HW211556   3.715   0.295   0.584
 3758SOL     OW11557   4.293   1.275   1.165
 3758SOL    HW111558   4.200   1.268   1.128
 3758SOL    HW211559   4.304   1.364   1.209
 3759SOL     OW11560   5.279   1.511   0.703
 3759SOL    HW111561   5.222   1.495   0.784
 3759SOL    HW211562   5.220   1.521   0.623
 3760SOL     OW11563   4.859   0.703   0.717
 3760SOL    HW111564   4.916   0.781   0.692
 3760SOL    HW211565   4.799   0.729   0.793
 3761SOL     OW11566   5.479   0.607   0.231
 3761SOL    HW111567   5.467   0.594   0.132
 3761SOL    HW211568   5.449   0.526   0.280
 3762SOL     OW11569   4.492   1.144   1.023
 3762SOL    HW111570   4.414   1.161   1.083
 3762SOL    HW211571   4.526   1.231   0.987
 3763SOL     OW11572   4.574   0.798   1.823
 3763SOL    HW111573   4.570   0.874   1.888
 3763SOL    HW211574   4.596   0.834   1.732
 3764SOL     OW11575   4.409   1.012   0.665
 3764SOL    HW111576   4.478   0.996   0.735
 3764SOL    HW211577   4.336   1.069   0.703
 3765SOL     OW11578   4.410   1.161   1.803
 3765SOL    HW111579   4.470   1.240   1.817
 3765SOL    HW211580   4.324   1.192   1.762
 3766SOL     OW11581   4.059   1.435   1.061
 3766SOL    HW111582   3.981   1.404   1.008
 3766SOL    HW211583   4.117   1.493   1.004
 3767SOL     OW11584   5.184   1.505   1.339
 3767SOL    HW111585   5.208   1.599   1.365
 3767SOL    HW211586   5.168   1.451   1.421
 3768SOL     OW11587   4.162   0.392   1.499
 3768SOL    HW111588   4.244   0.336   1.508
 3768SOL    HW211589   4.081   0.334   1.503
 3769SOL     OW11590   5.327   0.447   0.737
 3769SOL    HW111591   5.253   0.493   0.687
 3769SOL    HW211592   5.378   0.515   0.790
 3770SOL     OW11593   3.955   1.713   0.483
 3770SOL    HW111594   3.989   1.790   0.537
 3770SOL    HW211595   3.999   1.713   0.393
 3771SOL     OW11596   4.851   1.341   1.690
 3771SOL    HW111597   4.898   1.341   1.778
 3771SOL    HW211598   4.803   1.254   1.679
 3772SOL     OW11599   3.954   1.434   0.538
 3772SOL    HW111600   3.928   1.530   0.538
 3772SOL    HW211601   3.883   1.380   0.583
 3773SOL     OW11602   3.964   1.091   0.886
 3773SOL    HW111603   3.978   1.007   0.938
 3773SOL    HW211604   3.909   1.155   0.941
 3774SOL     OW11605   4.344   1.786   1.439
 3774SOL    HW111606   4.252   1.769   1.474
 3774SOL    HW211607   4.372   1.878   1.465
 3775SOL     OW11608   4.330   0.964   0.123
 3775SOL    HW111609   4.337   1.048   0.069
 3775SOL    HW211610   4.376   0.977   0.211
 3776SOL     OW11611   5.318   0.114   1.480
 3776SOL    HW111612   5.300   0.181   1.408
 3776SOL    HW211613   5.315   0.160   1.569
 3777SOL     OW11614   3.846   0.643   0.563
 3777SOL    HW111615   3.801   0.555   0.580
 3777SOL    HW211616   3.845   0.697   0.647
 3778SOL     OW11617   5.566   1.767   0.359
 3778SOL    HW111618   5.620   1.738   0.439
 3778SOL    HW211619   5.596   1.857   0.330
 3779SOL     OW11620   3.751   1.596   0.117
 3779SOL    HW111621   3.732   1.500   0.138
 3779SOL    HW211622   3.718   1.654   0.192
 3780SOL     OW11623   5.413   0.922   0.612
 3780SOL    HW111624   5.508   0.893   0.620
 3780SOL    HW211625   5.405   0.987   0.537
 3781SOL     OW11626   5.365   1.108   0.432
 3781SOL    HW111627   5.451   1.110   0.380
 3781SOL    HW211628   5.379   1.155   0.520
 3782SOL     OW11629   3.837   0.737   1.597
 3782SOL    HW111630   3.925   0.724   1.642
 3782SOL    HW211631   3.824   0.834   1.575
 3783SOL     OW11632   4.337   1.365   0.726
 3783SOL    HW111633   4.288   1.278   0.735
 3783SOL    HW211634   4.314   1.408   0.639
 3784SOL     OW11635   5.017   1.228   1.423
 3784SOL    HW111636   5.054   1.155   1.365
 3784SOL    HW211637   5.069   1.233   1.508
 3785SOL     OW11638   4.533   0.004   0.502
 3785SOL    HW111639   4.573   0.095   0.493
 3785SOL    HW211640   4.433   0.012   0.508
 3786SOL     OW11641   3.921   0.976   1.264
 3786SOL    HW111642   4.010   0.931   1.250
 3786SOL    HW211643   3.848   0.911   1.245
 3787SOL     OW11644   5.249   0.999   0.190
 3787SOL    HW111645   5.186   0.923   0.203
 3787SOL    HW211646   5.297   1.017   0.276
 3788SOL     OW11647   4.911   1.792   1.616
 3788SOL    HW111648   4.935   1.852   1.540
 3788SOL    HW211649   4.918   1.697   1.586
 3789SOL     OW11650   4.041   0.251   1.801
 3789SOL    HW111651   4.112   0.322   1.807
 3789SOL    HW211652   3.953   0.290   1.829
 3790SOL     OW11653   5.190   1.417   0.953
 3790SOL    HW111654   5.131   1.423   1.033
 3790SOL    HW211655   5.175   1.329   0.907
 3791SOL     OW11656   5.391   1.714   0.572
 3791SOL    HW111657   5.350   1.691   0.484
 3791SOL    HW211658   5.373   1.640   0.637
 3792SOL     OW11659   4.322   0.729   0.270
 3792SOL    HW111660   4.346   0.798   0.202
 3792SOL    HW211661   4.244   0.762   0.324
 3793SOL     OW11662   5.005   0.345   0.944
 3793SOL    HW111663   4.919   0.295   0.931
 3793SOL    HW211664   5.067   0.291   1.000
 3794SOL     OW11665   5.300   1.662   0.307
 3794SOL    HW111666   5.389   1.708   0.310
 3794SOL    HW211667   5.279   1.638   0.212
 3795SOL     OW11668   4.531   0.605   1.465
 3795SOL    HW111669   4.484   0.602   1.554
 3795SOL    HW211670   4.480   0.550   1.399
 3796SOL     OW11671   5.118   0.469   1.674
 3796SOL    HW111672   5.098   0.512   1.762
 3796SOL    HW211673   5.196   0.407   1.683
 3797SOL     OW11674   4.697   0.890   1.572
 3797SOL    HW111675   4.743   0.806   1.543
 3797SOL    HW211676   4.641   0.924   1.497
 3798SOL     OW11677   4.715   0.410   1.242
 3798SOL    HW111678   4.638   0.444   1.296
 3798SOL    HW211679   4.681   0.359   1.163
 3799SOL     OW11680   4.765   0.701   0.429
 3799SOL    HW111681   4.791   0.697   0.525
 3799SOL    HW211682   4.680   0.650   0.415
 3800SOL     OW11683   3.800   0.811   0.789
 3800SOL    HW111684   3.899   0.799   0.798
 3800SOL    HW211685   3.776   0.906   0.810
 3801SOL     OW11686   3.854   1.821   1.571
 3801SOL    HW111687   3.844   1.806   1.670
 3801SOL    HW211688   3.768   1.857   1.535
 3802SOL     OW11689   4.589   0.348   0.195
 3802SOL    HW111690   4.648   0.411   0.146
 3802SOL    HW211691   4.608   0.254   0.166
 3803SOL     OW11692   5.443   0.585   1.831
 3803SOL    HW111693   5.417   0.674   1.795
 3803SOL    HW211694   5.441   0.517   1.758
 3804SOL     OW11695   5.086   1.144   0.545
 3804SOL    HW111696   5.169   1.115   0.497
 3804SOL    HW211697   5.037   1.211   0.489
 3805SOL     OW11698   4.274   0.196   0.885
 3805SOL    HW111699   4.269   0.191   0.985
 3805SOL    HW211700   4.276   0.292   0.856
 3806SOL     OW11701   4.732   1.456   0.477
 3806SOL    HW111702   4.686   1.528   0.425
 3806SOL    HW211703   4.728   1.476   0.575
 3807SOL     OW11704   4.075   1.801   0.853
 3807SOL    HW111705   4.125   1.715   0.859
 3807SOL    HW211706   4.140   1.878   0.850
 3808SOL     OW11707   5.519   1.066   0.873
 3808SOL    HW111708   5.457   1.051   0.797
 3808SOL    HW211709   5.467   1.077   0.958
 3809SOL     OW11710   4.951   1.550   1.506
 3809SOL    HW111711   4.957   1.473   1.570
 3809SOL    HW211712   4.899   1.524   1.426
 3810SOL     OW11713   4.045   0.943   0.242
 3810SOL    HW111714   4.127   0.982   0.200
 3810SOL    HW211715   4.018   0.861   0.193
 3811SOL     OW11716   5.182   0.735   0.728
 3811SOL    HW111717   5.177   0.670   0.803
 3811SOL    HW211718   5.262   0.794   0.741
 3812SOL     OW11719   4.185   1.266   1.727
 3812SOL    HW111720   4.135   1.267   1.641
 3812SOL    HW211721   4.122   1.248   1.803
 3813SOL     OW11722   4.835   1.776   0.237
 3813SOL    HW111723   4.775   1.714   0.287
 3813SOL    HW211724   4.866   1.732   0.152
 3814SOL     OW11725   3.926   0.285   1.498
 3814SOL    HW111726   3.846   0.345   1.485
 3814SOL    HW211727   3.916   0.236   1.584
 3815SOL     OW11728   5.356   1.377   0.081
 3815SOL    HW111729   5.324   1.471   0.071
 3815SOL    HW211730   5.280   1.314   0.069
 3816SOL     OW11731   4.188   1.743   0.323
 3816SOL    HW111732   4.221   1.782   0.409
 3816SOL    HW211733   4.264   1.736   0.258
 3817SOL     OW11734   5.124   0.107   0.426
 3817SOL    HW111735   5.100   0.070   0.336
 3817SOL    HW211736   5.223   0.123   0.430
 3818SOL     OW11737   3.973   1.785   1.241
 3818SOL    HW111738   4.030   1.720   1.291
 3818SOL    HW211739   3.957   1.752   1.148
 3819SOL     OW11740   4.664   1.698   0.904
 3819SOL    HW111741   4.744   1.641   0.925
 3819SOL    HW211742   4.615   1.658   0.827
 3820SOL     OW11743   4.106   0.700   0.480
 3820SOL    HW111744   4.151   0.610   0.477
 3820SOL    HW211745   4.012   0.689   0.513
 3821SOL     OW11746   5.271   0.222   1.729
 3821SOL    HW111747   5.266   0.259   1.821
 3821SOL    HW211748   5.199   0.153   1.717
 3822SOL     OW11749   4.338   0.122   0.117
 3822SOL    HW111750   4.436   0.100   0.124
 3822SOL    HW211751   4.307   0.105   0.024
 3823SOL     OW11752   4.505   0.264   1.749
 3823SOL    HW111753   4.572   0.203   1.792
 3823SOL    HW211754   4.432   0.283   1.814
 3824SOL     OW11755   4.612   1.514   1.195
 3824SOL    HW111756   4.589   1.489   1.101
 3824SOL    HW211757   4.673   1.445   1.234
 3825SOL     OW11758   5.075   0.590   1.433
 3825SOL    HW111759   5.103   0.547   1.518
 3825SOL    HW211760   5.100   0.686   1.434
 3826SOL     OW11761   4.527   1.402   0.924
 3826SOL    HW111762   4.617   1.416   0.882
 3826SOL    HW211763   4.456   1.404   0.853
 3827SOL     OW11764   4.646   0.503   0.899
 3827SOL    HW111765   4.621   0.494   0.803
 3827SOL    HW211766   4.694   0.421   0.930
 3828SOL     OW11767   4.263   0.064   0.512
 3828SOL    HW111768   4.182   0.065   0.570
 3828SOL    HW211769   4.266   0.147   0.457
 3829SOL     OW11770   5.158   1.188   0.041
 3829SOL    HW111771   5.190   1.112   0.098
 3829SOL    HW211772   5.066   1.215   0.071
 3830SOL     OW11773   4.021   0.035   0.171
 3830SOL    HW111774   4.070   0.119   0.150
 3830SOL    HW211775   4.083  -0.030   0.216
 3831SOL     OW11776   4.659   0.236   0.480
 3831SOL    HW111777   4.611   0.277   0.402
 3831SOL    HW211778   4.758   0.234   0.461
 3832SOL     OW11779   4.800   0.683   1.464
 3832SOL    HW111780   4.720   0.622   1.467
 3832SOL    HW211781   4.881   0.630   1.440
 3833SOL     OW11782   4.951   1.570   0.793
 3833SOL    HW111783   4.972   1.644   0.728
 3833SOL    HW211784   5.019   1.570   0.866
 3834SOL     OW11785   4.183   1.152   0.741
 3834SOL    HW111786   4.112   1.125   0.806
 3834SOL    HW211787   4.157   1.124   0.648
 3835SOL     OW11788   4.995   1.797   0.591
 3835SOL    HW111789   5.039   1.861   0.527
 3835SOL    HW211790   4.945   1.849   0.661
 3836SOL     OW11791   4.756   0.549   0.016
 3836SOL    HW111792   4.715   0.631  -0.023
 3836SOL    HW211793   4.820   0.575   0.089
 3837SOL     OW11794   3.802   0.556   1.386
 3837SOL    HW111795   3.894   0.555   1.345
 3837SOL    HW211796   3.796   0.630   1.453
 3838SOL     OW11797   4.285   0.222   1.147
 3838SOL    HW111798   4.323   0.138   1.184
 3838SOL    HW211799   4.197   0.241   1.191
 3839SOL     OW11800   4.590   0.454   0.642
 3839SOL    HW111801   4.558   0.526   0.580
 3839SOL    HW211802   4.614   0.373   0.589
 3840SOL     OW11803   4.741   0.039   0.753
 3840SOL    HW111804   4.669   0.044   0.684
 3840SOL    HW211805   4.717  -0.030   0.822
 3841SOL     OW11806   5.153   1.173   0.867
 3841SOL    HW111807   5.098   1.089   0.860
 3841SOL    HW211808   5.179   1.202   0.775
 3842SOL     OW11809   5.190   0.590   0.992
 3842SOL    HW111810   5.160   0.495   0.999
 3842SOL    HW211811   5.263   0.606   1.058
 3843SOL     OW11812   5.581   0.833   0.377
 3843SOL    HW111813   5.623   0.769   0.441
 3843SOL    HW211814   5.543   0.782   0.299
 3844SOL     OW11815   4.212   1.385   0.174
 3844SOL    HW111816   4.125   1.370   0.221
 3844SOL    HW211817   4.195   1.411   0.079
 3845SOL     OW11818   5.388   1.280   0.657
 3845SOL    HW111819   5.487   1.288   0.671
 3845SOL    HW211820   5.343   1.364   0.688
 3846SOL     OW11821   5.114   0.575   0.078
 3846SOL    HW111822   5.060   0.554   0.159
 3846SOL    HW211823   5.205   0.534   0.087
 3847SOL     OW11824   4.251   0.256   0.328
 3847SOL    HW111825   4.278   0.197   0.253
 3847SOL    HW211826   4.251   0.351   0.297
 3848SOL     OW11827   5.478   1.223   1.588
 3848SOL    HW111828   5.569   1.184   1.575
 3848SOL    HW211829   5.486   1.319   1.612
 3849SOL     OW11830   4.788   1.347   1.340
 3849SOL    HW111831   4.708   1.324   1.395
 3849SOL    HW211832   4.871   1.321   1.389
 3850SOL     OW11833   5.316   1.629   1.625
 3850SOL    HW111834   5.343   1.663   1.535
 3850SOL    HW211835   5.395   1.591   1.671
 3851SOL     OW11836   4.835   1.195   1.100
 3851SOL    HW111837   4.795   1.239   1.181
 3851SOL    HW211838   4.794   1.232   1.017
 3852SOL     OW11839   5.362   1.099   1.079
 3852SOL    HW111840   5.367   1.180   1.138
 3852SOL    HW211841   5.276   1.101   1.028
 3853SOL     OW11842   4.639   0.089   1.402
 3853SOL    HW111843   4.664   0.069   1.307
 3853SOL    HW211844   4.711   0.145   1.444
 3854SOL     OW11845   4.704   1.116   1.719
 3854SOL    HW111846   4.605   1.122   1.729
 3854SOL    HW211847   4.727   1.036   1.663
 3855SOL     OW11848   4.429   1.050   0.368
 3855SOL    HW111849   4.415   1.057   0.467
 3855SOL    HW211850   4.513   0.999   0.350
 3856SOL     OW11851   4.134   0.813   1.251
 3856SOL    HW111852   4.220   0.825   1.301
 3856SOL    HW211853   4.092   0.726   1.278
 3857SOL     OW11854   4.998   0.386   1.262
 3857SOL    HW111855   5.019   0.460   1.326
 3857SOL    HW211856   4.909   0.403   1.219
 3858SOL     OW11857   3.788   1.564   1.331
 3858SOL    HW111858   3.742   1.646   1.297
 3858SOL    HW211859   3.886   1.583   1.340
 3859SOL     OW11860   4.091   1.100   0.501
 3859SOL    HW111861   4.084   1.183   0.445
 3859SOL    HW211862   4.095   1.020   0.441
 3860SOL     OW11863   4.290   0.537   0.865
 3860SOL    HW111864   4.302   0.603   0.791
 3860SOL    HW211865   4.336   0.571   0.948
 3861SOL     OW11866   4.976   1.348   0.388
 3861SOL    HW111867   5.026   1.425   0.428
 3861SOL    HW211868   4.881   1.350   0.420
 3862SOL     OW11869   4.996   1.445   1.142
 3862SOL    HW111870   5.043   1.458   1.229
 3862SOL    HW211871   4.930   1.371   1.151
 3863SOL     OW11872   5.306   0.639   0.472
 3863SOL    HW111873   5.275   0.700   0.545
 3863SOL    HW211874   5.356   0.691   0.403
 3864SOL     OW11875   4.078   1.510   1.329
 3864SOL    HW111876   4.057   1.466   1.242
 3864SOL    HW211877   4.175   1.536   1.332
 3865SOL     OW11878   4.126   0.751   1.598
 3865SOL    HW111879   4.194   0.806   1.551
 3865SOL    HW211880   4.166   0.663   1.625
 3866SOL     OW11881   5.311   0.779   1.670
 3866SOL    HW111882   5.219   0.817   1.665
 3866SOL    HW211883   5.371   0.826   1.605
 3867SOL     OW11884   4.737   0.105   1.770
 3867SOL    HW111885   4.743   0.190   1.718
 3867SOL    HW211886   4.769   0.029   1.713
 3868SOL     OW11887   4.228   0.050   1.740
 3868SOL    HW111888   4.186  -0.007   1.670
 3868SOL    HW211889   4.162   0.119   1.772
 3869SOL     OW11890   4.297   0.870   1.029
 3869SOL    HW111891   4.341   0.959   1.020
 3869SOL    HW211892   4.234   0.870   1.106
 3870SOL     OW11893   5.084   0.862   1.045
 3870SOL    HW111894   5.009   0.862   0.979
 3870SOL    HW211895   5.121   0.770   1.054
 3871SOL     OW11896   4.933   0.525   0.275
 3871SOL    HW111897   4.946   0.441   0.329
 3871SOL    HW211898   4.904   0.599   0.335
 3872SOL     OW11899   4.031   0.213   1.231
 3872SOL    HW111900   4.008   0.250   1.321
 3872SOL    HW211901   4.001   0.118   1.225
 3873SOL     OW11902   3.761   1.310   1.282
 3873SOL    HW111903   3.814   1.261   1.350
 3873SOL    HW211904   3.783   1.408   1.287
 3874SOL     OW11905   4.456   0.634   1.064
 3874SOL    HW111906   4.515   0.608   0.988
 3874SOL    HW211907   4.428   0.730   1.053
 3875SOL     OW11908   5.452   0.935   1.854
 3875SOL    HW111909   5.406   0.928   1.765
 3875SOL    HW211910   5.390   0.979   1.920
 3876SOL     OW11911   4.031   0.063   0.618
 3876SOL    HW111912   4.020   0.157   0.651
 3876SOL    HW211913   4.026   0.000   0.695
 3877SOL     OW11914   5.346   0.367   0.374
 3877SOL    HW111915   5.348   0.291   0.438
 3877SOL    HW211916   5.298   0.444   0.414
 3878SOL     OW11917   4.747   0.766   0.966
 3878SOL    HW111918   4.762   0.787   1.062
 3878SOL    HW211919   4.717   0.671   0.957
 3879SOL     OW11920   4.704   1.573   1.700
 3879SOL    HW111921   4.684   1.617   1.612
 3879SOL    HW211922   4.743   1.482   1.684
 3880SOL     OW11923   5.583   1.518   1.605
 3880SOL    HW111924   5.597   1.545   1.510
 3880SOL    HW211925   5.666   1.540   1.658
 3881SOL     OW11926   4.074   0.898   1.804
 3881SOL    HW111927   4.150   0.942   1.852
 3881SOL    HW211928   4.109   0.851   1.722
 3882SOL     OW11929   5.264   0.274   0.125
 3882SOL    HW111930   5.203   0.199   0.148
 3882SOL    HW211931   5.286   0.326   0.208
 3883SOL     OW11932   5.027   0.838   0.042
 3883SOL    HW111933   5.061   0.745   0.057
 3883SOL    HW211934   5.045   0.865  -0.053
 3884SOL     OW11935   4.792   1.333   0.849
 3884SOL    HW111936   4.799   1.249   0.794
 3884SOL    HW211937   4.854   1.402   0.813
 3885SOL     OW11938   4.043   0.810   0.949
 3885SOL    HW111939   4.136   0.846   0.954
 3885SOL    HW211940   4.037   0.725   1.001
 3886SOL     OW11941   4.063   0.509   1.006
 3886SOL    HW111942   4.011   0.426   0.989
 3886SOL    HW211943   4.140   0.514   0.942
 3887SOL     OW11944   4.862   0.380   1.678
 3887SOL    HW111945   4.817   0.443   1.742
 3887SOL    HW211946   4.955   0.411   1.661
 3888SOL     OW11947   4.884   0.207   1.477
 3888SOL    HW111948   4.884   0.271   1.554
 3888SOL    HW211949   4.912   0.255   1.394
 3889SOL     OW11950   3.732   1.326   0.200
 3889SOL    HW111951   3.639   1.347   0.169
 3889SOL    HW211952   3.742   1.227   0.213
 3890SOL     OW11953   3.812   1.801   0.927
 3890SOL    HW111954   3.770   1.715   0.900
 3890SOL    HW211955   3.906   1.804   0.893
 3891SOL     OW11956   4.228   1.568   0.910
 3891SOL    HW111957   4.294   1.642   0.919
 3891SOL    HW211958   4.272   1.489   0.868
 3892SOL     OW11959   4.726   0.796   1.238
 3892SOL    HW111960   4.767   0.764   1.324
 3892SOL    HW211961   4.630   0.769   1.235
 3893SOL     OW11962   3.764   0.544   1.114
 3893SOL    HW111963   3.849   0.511   1.073
 3893SOL    HW211964   3.777   0.559   1.212
 3894SOL     OW11965   3.913   0.520   1.722
 3894SOL    HW111966   3.972   0.480   1.652
 3894SOL    HW211967   3.855   0.591   1.681
 3895SOL     OW11968   5.093   0.950   1.660
 3895SOL    HW111969   5.132   1.039   1.680
 3895SOL    HW211970   5.103   0.930   1.563
 3896SOL     OW11971   4.539   0.572   0.325
 3896SOL    HW111972   4.546   0.483   0.279
 3896SOL    HW211973   4.445   0.606   0.317
 3897SOL     OW11974   5.381   0.604   1.206
 3897SOL    HW111975   5.343   0.535   1.268
 3897SOL    HW211976   5.463   0.568   1.162
 3898SOL     OW11977   3.976   1.564   1.744
 3898SOL    HW111978   3.946   1.621   1.820
 3898SOL    HW211979   3.969   1.467   1.770
 3899SOL     OW11980   4.395   0.464   1.269
 3899SOL    HW111981   4.361   0.375   1.239
 3899SOL    HW211982   4.421   0.518   1.189
 3900SOL     OW11983   4.654   1.678   1.465
 3900SOL    HW111984   4.630   1.660   1.370
 3900SOL    HW211985   4.684   1.772   1.475
 3901SOL     OW11986   4.197   0.500   0.191
 3901SOL    HW111987   4.258   0.580   0.195
 3901SOL    HW211988   4.102   0.531   0.198
 3902SOL     OW11989   3.883   1.137   1.466
 3902SOL    HW111990   3.905   1.076   1.542
 3902SOL    HW211991   3.893   1.088   1.380
 3903SOL     OW11992   5.071   1.059   1.234
 3903SOL    HW111993   5.095   0.996   1.160
 3903SOL    HW211994   4.981   1.099   1.216
 3904SOL     OW11995   5.026   0.855   0.309
 3904SOL    HW111996   4.940   0.824   0.351
 3904SOL    HW211997   5.022   0.841   0.210
 3905SOL     OW11998   5.483   1.747   1.154
 3905SOL    HW111999   5.544   1.777   1.081
 3905SOL    HW212000   5.445   1.658   1.132
 3906SOL     OW12001   4.976   1.731   1.128
 3906SOL    HW112002   5.060   1.736   1.074
 3906SOL    HW212003   4.953   1.635   1.146
 3907SOL     OW12004   3.807   1.258   1.022
 3907SOL    HW112005   3.802   1.257   1.122
 3907SOL    HW212006   3.724   1.217   0.984
 3908SOL     OW12007   4.412   1.662   1.716
 3908SOL    HW112008   4.356   1.743   1.725
 3908SOL    HW212009   4.464   1.666   1.630
 3909SOL     OW12010   4.627   0.086   0.133
 3909SOL    HW112011   4.678   0.087   0.047
 3909SOL    HW212012   4.683   0.044   0.204
 3910SOL     OW12013   5.450   0.135   0.523
 3910SOL    HW112014   5.523   0.118   0.456
 3910SOL    HW212015   5.419   0.048   0.561
 3911SOL     OW12016   5.112   1.573   0.477
 3911SOL    HW112017   5.179   1.585   0.403
 3911SOL    HW212018   5.072   1.662   0.500
 3912SOL     OW12019   3.854   1.794   1.851
 3912SOL    HW112020   3.813   1.720   1.904
 3912SOL    HW212021   3.918   1.845   1.909
 3913SOL     OW12022   5.004   0.927   0.672
 3913SOL    HW112023   5.064   0.846   0.674
 3913SOL    HW212024   5.044   0.996   0.612
 3914SOL     OW12025   4.554   1.273   1.422
 3914SOL    HW112026   4.549   1.306   1.517
 3914SOL    HW212027   4.468   1.292   1.376
 3915SOL     OW12028   4.396   1.616   0.154
 3915SOL    HW112029   4.405   1.626   0.055
 3915SOL    HW212030   4.356   1.527   0.175
 3916SOL     OW12031   5.374   1.720   1.394
 3916SOL    HW112032   5.427   1.730   1.310
 3916SOL    HW212033   5.347   1.810   1.428
 3917SOL     OW12034   5.565   0.175   0.963
 3917SOL    HW112035   5.604   0.090   0.927
 3917SOL    HW212036   5.467   0.177   0.944
 3918SOL     OW12037   3.987   0.326   0.720
 3918SOL    HW112038   3.908   0.377   0.686
 3918SOL    HW212039   3.978   0.311   0.818
 3919SOL     OW12040   4.918   1.612   0.031
 3919SOL    HW112041   4.924   1.519   0.068
 3919SOL    HW212042   4.859   1.612  -0.049
 3920SOL     OW12043   4.546   1.002   1.372
 3920SOL    HW112044   4.586   1.001   1.280
 3920SOL    HW212045   4.556   1.094   1.412
 3921SOL     OW12046   4.640   0.910   0.291
 3921SOL    HW112047   4.703   0.948   0.223
 3921SOL    HW212048   4.680   0.827   0.330
 3922SOL     OW12049   5.228   1.607   0.044
 3922SOL    HW112050   5.136   1.644   0.051
 3922SOL    HW212051   5.266   1.627  -0.046
 3923SOL     OW12052   4.096   1.288   1.490
 3923SOL    HW112053   4.083   1.381   1.456
 3923SOL    HW212054   4.012   1.236   1.477
 3924SOL     OW12055   5.338   1.292   1.289
 3924SOL    HW112056   5.398   1.295   1.369
 3924SOL    HW212057   5.263   1.356   1.302
 3925SOL     OW12058   4.763   1.098   0.696
 3925SOL    HW112059   4.693   1.051   0.750
 3925SOL    HW212060   4.822   1.030   0.653
 3926SOL     OW12061   4.738   0.236   0.971
 3926SOL    HW112062   4.730   0.200   0.878
 3926SOL    HW212063   4.736   0.160   1.036
 3927SOL     OW12064   4.314   1.487   0.491
 3927SOL    HW112065   4.356   1.429   0.421
 3927SOL    HW212066   4.270   1.566   0.447
 3928SOL     OW12067   5.433   0.385   1.381
 3928SOL    HW112068   5.506   0.454   1.385
 3928SOL    HW212069   5.461   0.310   1.322
 3929SOL     OW12070   3.979   1.348   0.290
 3929SOL    HW112071   3.883   1.349   0.263
 3929SOL    HW212072   3.991   1.401   0.374
 3930SOL     OW12073   3.829   1.013   1.726
 3930SOL    HW112074   3.752   0.980   1.780
 3930SOL    HW212075   3.914   0.983   1.768
 3931SOL     OW12076   4.396   0.203   1.489
 3931SOL    HW112077   4.486   0.187   1.449
 3931SOL    HW212078   4.404   0.208   1.588
 3932SOL     OW12079   3.799   0.345   0.033
 3932SOL    HW112080   3.707   0.317   0.004
 3932SOL    HW212081   3.830   0.422  -0.023
 3933SOL     OW12082   5.164   0.856   1.398
 3933SOL    HW112083   5.107   0.908   1.335
 3933SOL    HW212084   5.260   0.868   1.374
 3934SOL     OW12085   3.796   0.166   0.318
 3934SOL    HW112086   3.779   0.249   0.264
 3934SOL    HW212087   3.886   0.129   0.296
 3935SOL     OW12088   4.907   1.335   0.119
 3935SOL    HW112089   4.808   1.324   0.121
 3935SOL    HW212090   4.941   1.350   0.212
 3936SOL     OW12091   4.337   0.842   1.431
 3936SOL    HW112092   4.393   0.923   1.414
 3936SOL    HW212093   4.396   0.762   1.434
 3937SOL     OW12094   5.217   1.767   0.959
 3937SOL    HW112095   5.250   1.831   0.890
 3937SOL    HW212096   5.283   1.761   1.034
 3938SOL     OW12097   4.440   0.565   1.708
 3938SOL    HW112098   4.459   0.630   1.782
 3938SOL    HW212099   4.500   0.485   1.717
 3939SOL     OW12100   5.174   1.220   1.633
 3939SOL    HW112101   5.165   1.210   1.732
 3939SOL    HW212102   5.270   1.213   1.607
 3940SOL     OW12103   4.114   1.741   1.560
 3940SOL    HW112104   4.023   1.782   1.558
 3940SOL    HW212105   4.107   1.647   1.592
 3941SOL     OW12106   5.398   0.883   1.254
 3941SOL    HW112107   5.371   0.794   1.217
 3941SOL    HW212108   5.399   0.951   1.181
 3942SOL     OW12109   4.949   0.325   0.449
 3942SOL    HW112110   5.014   0.251   0.438
 3942SOL    HW212111   4.969   0.375   0.533
 3943SOL     OW12112   4.318   0.745   0.652
 3943SOL    HW112113   4.368   0.830   0.633
 3943SOL    HW212114   4.230   0.747   0.604
 3944SOL     OW12115   5.501   0.342   1.642
 3944SOL    HW112116   5.484   0.373   1.548
 3944SOL    HW212117   5.417   0.305   1.680
 3945SOL     OW12118   5.454   0.934   1.517
 3945SOL    HW112119   5.492   1.025   1.532
 3945SOL    HW212120   5.446   0.917   1.418
 3946SOL     OW12121   4.583   1.374   0.016
 3946SOL    HW112122   4.537   1.389   0.104
 3946SOL    HW212123   4.627   1.459  -0.014
 3947SOL     OW12124   4.385   1.790   0.953
 3947SOL    HW112125   4.339   1.878   0.940
 3947SOL    HW212126   4.484   1.802   0.946
 3948SOL     OW12127   4.583   0.956   0.861
 3948SOL    HW112128   4.637   0.887   0.909
 3948SOL    HW212129   4.551   1.025   0.927
 3949SOL     OW12130   4.807   0.984   0.087
 3949SOL    HW112131   4.784   1.037   0.005
 3949SOL    HW212132   4.888   0.928   0.068
 3950SOL     OW12133   5.585   1.569   0.851
 3950SOL    HW112134   5.514   1.557   0.781
 3950SOL    HW212135   5.586   1.490   0.911
 3951SOL     OW12136   3.945   1.314   1.844
 3951SOL    HW112137   3.880   1.241   1.823
 3951SOL    HW212138   3.949   1.328   1.942
 3952SOL     OW12139   3.803   1.240   0.653
 3952SOL    HW112140   3.802   1.193   0.741
 3952SOL    HW212141   3.885   1.212   0.602
 3953SOL     OW12142   4.396   1.391   1.624
 3953SOL    HW112143   4.318   1.341   1.662
 3953SOL    HW212144   4.393   1.486   1.655
 3954SOL     OW12145   5.548   0.192   1.227
 3954SOL    HW112146   5.544   0.102   1.271
 3954SOL    HW212147   5.551   0.181   1.128
 3955SOL     OW12148   4.152   0.424   0.520
 3955SOL    HW112149   4.182   0.352   0.458
 3955SOL    HW212150   4.113   0.384   0.603
 3956SOL     OW12151   5.429   1.487   1.104
 3956SOL    HW112152   5.336   1.462   1.077
 3956SOL    HW212153   5.455   1.437   1.186
 3957SOL     OW12154   4.041   0.547   1.280
 3957SOL    HW112155   4.079   0.488   1.352
 3957SOL    HW212156   4.081   0.521   1.192
 3958SOL     OW12157   4.536   1.586   0.687
 3958SOL    HW112158   4.568   1.596   0.593
 3958SOL    HW212159   4.457   1.524   0.689
 3959SOL     OW12160   5.148   0.214   1.112
 3959SOL    HW112161   5.200   0.149   1.167
 3959SOL    HW212162   5.099   0.277   1.173
 3960SOL     OW12163   4.725   0.034   1.154
 3960SOL    HW112164   4.662  -0.038   1.123
 3960SOL    HW212165   4.818  -0.002   1.154
 3961SOL     OW12166   4.494   1.330   0.301
 3961SOL    HW112167   4.448   1.243   0.318
 3961SOL    HW212168   4.585   1.327   0.342
 3962SOL     OW12169   4.342   1.567   1.284
 3962SOL    HW112170   4.337   1.649   1.341
 3962SOL    HW212171   4.431   1.564   1.239
 3963SOL     OW12172   5.076   0.052   0.168
 3963SOL    HW112173   5.111   0.011   0.084
 3963SOL    HW212174   4.986   0.014   0.188
 3964SOL     OW12175   5.024   0.453   0.691
 3964SOL    HW112176   4.965   0.533   0.695
 3964SOL    HW212177   5.039   0.418   0.784
 3965SOL     OW12178   5.317   0.221   0.882
 3965SOL    HW112179   5.233   0.220   0.936
 3965SOL    HW212180   5.319   0.304   0.826
 3966SOL     OW12181   3.763   1.077   0.300
 3966SOL    HW112182   3.862   1.066   0.291
 3966SOL    HW212183   3.723   0.991   0.332
 3967SOL     OW12184   4.599   1.646   0.337
 3967SOL    HW112185   4.522   1.611   0.283
 3967SOL    HW212186   4.567   1.717   0.399
 3968SOL     OW12187   3.954   0.628   1.975
 3968SOL    HW112188   3.861   0.626   2.012
 3968SOL    HW212189   3.955   0.589   1.883
 3969SOL     OW12190   3.949   0.275   2.858
 3969SOL    HW112191   3.984   0.258   2.950
 3969SOL    HW212192   3.861   0.230   2.846
 3970SOL     OW12193   3.743   0.368   2.509
 3970SOL    HW112194   3.661   0.411   2.548
 3970SOL    HW212195   3.715   0.295   2.446
 3971SOL     OW12196   4.293   1.275   3.027
 3971SOL    HW112197   4.200   1.268   2.990
 3971SOL    HW212198   4.304   1.364   3.071
 3972SOL     OW12199   5.279   1.511   2.565
 3972SOL    HW112200   5.222   1.495   2.646
 3972SOL    HW212201   5.220   1.521   2.485
 3973SOL     OW12202   4.859   0.703   2.579
 3973SOL    HW112203   4.916   0.781   2.554
 3973SOL    HW212204   4.799   0.729   2.655
 3974SOL     OW12205   5.479   0.607   2.093
 3974SOL    HW112206   5.467   0.594   1.994
 3974SOL    HW212207   5.449   0.526   2.142
 3975SOL     OW12208   4.492   1.144   2.885
 3975SOL    HW112209   4.414   1.161   2.945
 3975SOL    HW212210   4.526   1.231   2.849
 3976SOL     OW12211   4.574   0.798   3.685
 3976SOL    HW112212   4.570   0.874   3.750
 3976SOL    HW212213   4.596   0.834   3.594
 3977SOL     OW12214   4.409   1.012   2.527
 3977SOL    HW112215   4.478   0.996   2.597
 3977SOL    HW212216   4.336   1.069   2.565
 3978SOL     OW12217   4.410   1.161   3.665
 3978SOL    HW112218   4.470   1.240   3.679
 3978SOL    HW212219   4.324   1.192   3.624
 3979SOL     OW12220   4.059   1.435   2.923
 3979SOL    HW112221   3.981   1.404   2.870
 3979SOL    HW212222   4.117   1.493   2.866
 3980SOL     OW12223   5.184   1.505   3.201
 3980SOL    HW112224   5.208   1.599   3.227
 3980SOL    HW212225   5.168   1.451   3.283
 3981SOL     OW12226   4.162   0.392   3.361
 3981SOL    HW112227   4.244   0.336   3.370
 3981SOL    HW212228   4.081   0.334   3.365
 3982SOL     OW12229   5.327   0.447   2.599
 3982SOL    HW112230   5.253   0.493   2.549
 3982SOL    HW212231   5.378   0.515   2.652
 3983SOL     OW12232   3.955   1.713   2.345
 3983SOL    HW112233   3.989   1.790   2.399
 3983SOL    HW212234   3.999   1.713   2.255
 3984SOL     OW12235   4.851   1.341   3.552
 3984SOL    HW112236   4.898   1.341   3.640
 3984SOL    HW212237   4.803   1.254   3.541
 3985SOL     OW12238   3.954   1.434   2.400
 3985SOL    HW112239   3.928   1.530   2.400
 3985SOL    HW212240   3.883   1.380   2.445
 3986SOL     OW12241   3.964   1.091   2.748
 3986SOL    HW112242   3.978   1.007   2.800
 3986SOL    HW212243   3.909   1.155   2.803
 3987SOL     OW12244   4.344   1.786   3.301
 3987SOL    HW112245   4.252   1.769   3.336
 3987SOL    HW212246   4.372   1.878   3.327
 3988SOL     OW12247   4.330   0.964   1.985
 3988SOL    HW112248   4.337   1.048   1.931
 3988SOL    HW212249   4.376   0.977   2.073
 3989SOL     OW12250   5.318   0.114   3.342
 3989SOL    HW112251   5.300   0.181   3.270
 3989SOL    HW212252   5.315   0.160   3.431
 3990SOL     OW12253   3.846   0.643   2.425
 3990SOL    HW112254   3.801   0.555   2.442
 3990SOL    HW212255   3.845   0.697   2.509
 3991SOL     OW12256   5.566   1.767   2.221
 3991SOL    HW112257   5.620   1.738   2.301
 3991SOL    HW212258   5.596   1.857   2.192
 3992SOL     OW12259   3.751   1.596   1.979
 3992SOL    HW112260   3.732   1.500   2.000
 3992SOL    HW212261   3.718   1.654   2.054
 3993SOL     OW12262   5.413   0.922   2.474
 3993SOL    HW112263   5.508   0.893   2.482
 3993SOL    HW212264   5.405   0.987   2.399
 3994SOL     OW12265   5.365   1.108   2.294
 3994SOL    HW112266   5.451   1.110   2.242
 3994SOL    HW212267   5.379   1.155   2.382
 3995SOL     OW12268   3.837   0.737   3.459
 3995SOL    HW112269   3.925   0.724   3.504
 3995SOL    HW212270   3.824   0.834   3.437
 3996SOL     OW12271   4.337   1.365   2.588
 3996SOL    HW112272   4.288   1.278   2.597
 3996SOL    HW212273   4.314   1.408   2.501
 3997SOL     OW12274   5.017   1.228   3.285
 3997SOL    HW112275   5.054   1.155   3.227
 3997SOL    HW212276   5.069   1.233   3.370
 3998SOL     OW12277   4.533   0.004   2.364
 3998SOL    HW112278   4.573   0.095   2.355
 3998SOL    HW212279   4.433   0.012   2.370
 3999SOL     OW12280   3.921   0.976   3.126
 3999SOL    HW112281   4.010   0.931   3.112
 3999SOL    HW212282   3.848   0.911   3.107
 4000SOL     OW12283   5.249   0.999   2.052
 4000SOL    HW112284   5.186   0.923   2.065
 4000SOL    HW212285   5.297   1.017   2.138
 4001SOL     OW12286   4.911   1.792   3.478
 4001SOL    HW112287   4.935   1.852   3.402
 4001SOL    HW212288   4.918   1.697   3.448
 4002SOL     OW12289   4.041   0.251   3.663
 4002SOL    HW112290   4.112   0.322   3.669
 4002SOL    HW212291   3.953   0.290   3.691
 4003SOL     OW12292   5.190   1.417   2.815
 4003SOL    HW112293   5.131   1.423   2.895
 4003SOL    HW212294   5.175   1.329   2.769
 4004SOL     OW12295   5.391   1.714   2.434
 4004SOL    HW112296   5.350   1.691   2.346
 4004SOL    HW212297   5.373   1.640   2.499
 4005SOL     OW12298   4.322   0.729   2.132
 4005SOL    HW112299   4.346   0.798   2.064
 4005SOL    HW212300   4.244   0.762   2.186
 4006SOL     OW12301   5.005   0.345   2.806
 4006SOL    HW112302   4.919   0.295   2.793
 4006SOL    HW212303   5.067   0.291   2.862
 4007SOL     OW12304   5.300   1.662   2.169
 4007SOL    HW112305   5.389   1.708   2.172
 4007SOL    HW212306   5.279   1.638   2.074
 4008SOL     OW12307   4.531   0.605   3.327
 4008SOL    HW112308   4.484   0.602   3.416
 4008SOL    HW212309   4.480   0.550   3.261
 4009SOL     OW12310   5.118   0.469   3.536
 4009SOL    HW112311   5.098   0.512   3.624
 4009SOL    HW212312   5.196   0.407   3.545
 4010SOL     OW12313   4.697   0.890   3.434
 4010SOL    HW112314   4.743   0.806   3.405
 4010SOL    HW212315   4.641   0.924   3.359
 4011SOL     OW12316   4.715   0.410   3.104
 4011SOL    HW112317   4.638   0.444   3.158
 4011SOL    HW212318   4.681   0.359   3.025
 4012SOL     OW12319   4.765   0.701   2.291
 4012SOL    HW112320   4.791   0.697   2.387
 4012SOL    HW212321   4.680   0.650   2.277
 4013SOL     OW12322   3.800   0.811   2.651
 4013SOL    HW112323   3.899   0.799   2.660
 4013SOL    HW212324   3.776   0.906   2.672
 4014SOL     OW12325   3.854   1.821   3.433
 4014SOL    HW112326   3.844   1.806   3.532
 4014SOL    HW212327   3.768   1.857   3.397
 4015SOL     OW12328   4.589   0.348   2.057
 4015SOL    HW112329   4.648   0.411   2.008
 4015SOL    HW212330   4.608   0.254   2.028
 4016SOL     OW12331   5.443   0.585   3.693
 4016SOL    HW112332   5.417   0.674   3.657
 4016SOL    HW212333   5.441   0.517   3.620
 4017SOL     OW12334   5.086   1.144   2.407
 4017SOL    HW112335   5.169   1.115   2.359
 4017SOL    HW212336   5.037   1.211   2.351
 4018SOL     OW12337   4.274   0.196   2.747
 4018SOL    HW112338   4.269   0.191   2.847
 4018SOL    HW212339   4.276   0.292   2.718
 4019SOL     OW12340   4.732   1.456   2.339
 4019SOL    HW112341   4.686   1.528   2.287
 4019SOL    HW212342   4.728   1.476   2.437
 4020SOL     OW12343   4.075   1.801   2.715
 4020SOL    HW112344   4.125   1.715   2.721
 4020SOL    HW212345   4.140   1.878   2.712
 4021SOL     OW12346   5.519   1.066   2.735
 4021SOL    HW112347   5.457   1.051   2.659
 4021SOL    HW212348   5.467   1.077   2.820
 4022SOL     OW12349   4.951   1.550   3.368
 4022SOL    HW112350   4.957   1.473   3.432
 4022SOL    HW212351   4.899   1.524   3.288
 4023SOL     OW12352   4.045   0.943   2.104
 4023SOL    HW112353   4.127   0.982   2.062
 4023SOL    HW212354   4.018   0.861   2.055
 4024SOL     OW12355   5.182   0.735   2.590
 4024SOL    HW112356   5.177   0.670   2.665
 4024SOL    HW212357   5.262   0.794   2.603
 4025SOL     OW12358   4.185   1.266   3.589
 4025SOL    HW112359   4.135   1.267   3.503
 4025SOL    HW212360   4.122   1.248   3.665
 4026SOL     OW12361   4.835   1.776   2.099
 4026SOL    HW112362   4.775   1.714   2.149
 4026SOL    HW212363   4.866   1.732   2.014
 4027SOL     OW12364   3.926   0.285   3.360
 4027SOL    HW112365   3.846   0.345   3.347
 4027SOL    HW212366   3.916   0.236   3.446
 4028SOL     OW12367   5.356   1.377   1.943
 4028SOL    HW112368   5.324   1.471   1.933
 4028SOL    HW212369   5.280   1.314   1.931
 4029SOL     OW12370   4.188   1.743   2.185
 4029SOL    HW112371   4.221   1.782   2.271
 4029SOL    HW212372   4.264   1.736   2.120
 4030SOL     OW12373   5.124   0.107   2.288
 4030SOL    HW112374   5.100   0.070   2.198
 4030SOL    HW212375   5.223   0.123   2.292
 4031SOL     OW12376   3.973   1.785   3.103
 4031SOL    HW112377   4.030   1.720   3.153
 4031SOL    HW212378   3.957   1.752   3.010
 4032SOL     OW12379   4.664   1.698   2.766
 4032SOL    HW112380   4.744   1.641   2.787
 4032SOL    HW212381   4.615   1.658   2.689
 4033SOL     OW12382   4.106   0.700   2.342
 4033SOL    HW112383   4.151   0.610   2.339
 4033SOL    HW212384   4.012   0.689   2.375
 4034SOL     OW12385   5.271   0.222   3.591
 4034SOL    HW112386   5.266   0.259   3.683
 4034SOL    HW212387   5.199   0.153   3.579
 4035SOL     OW12388   4.338   0.122   1.979
 4035SOL    HW112389   4.436   0.100   1.986
 4035SOL    HW212390   4.307   0.105   1.886
 4036SOL     OW12391   4.505   0.264   3.611
 4036SOL    HW112392   4.572   0.203   3.654
 4036SOL    HW212393   4.432   0.283   3.676
 4037SOL     OW12394   4.612   1.514   3.057
 4037SOL    HW112395   4.589   1.489   2.963
 4037SOL    HW212396   4.673   1.445   3.096
 4038SOL     OW12397   5.075   0.590   3.295
 4038SOL    HW112398   5.103   0.547   3.380
 4038SOL    HW212399   5.100   0.686   3.296
 4039SOL     OW12400   4.527   1.402   2.786
 4039SOL    HW112401   4.617   1.416   2.744
 4039SOL    HW212402   4.456   1.404   2.715
 4040SOL     OW12403   4.646   0.503   2.761
 4040SOL    HW112404   4.621   0.494   2.665
 4040SOL    HW212405   4.694   0.421   2.792
 4041SOL     OW12406   4.263   0.064   2.374
 4041SOL    HW112407   4.182   0.065   2.432
 4041SOL    HW212408   4.266   0.147   2.319
 4042SOL     OW12409   5.158   1.188   1.903
 4042SOL    HW112410   5.190   1.112   1.960
 4042SOL    HW212411   5.066   1.215   1.933
 4043SOL     OW12412   4.021   0.035   2.033
 4043SOL    HW112413   4.070   0.119   2.012
 4043SOL    HW212414   4.083  -0.030   2.078
 4044SOL     OW12415   4.659   0.236   2.342
 4044SOL    HW112416   4.611   0.277   2.264
 4044SOL    HW212417   4.758   0.234   2.323
 4045SOL     OW12418   4.800   0.683   3.326
 4045SOL    HW112419   4.720   0.622   3.329
 4045SOL    HW212420   4.881   0.630   3.302
 4046SOL     OW12421   4.951   1.570   2.655
 4046SOL    HW112422   4.972   1.644   2.590
 4046SOL    HW212423   5.019   1.570   2.728
 4047SOL     OW12424   4.183   1.152   2.603
 4047SOL    HW112425   4.112   1.125   2.668
 4047SOL    HW212426   4.157   1.124   2.510
 4048SOL     OW12427   4.995   1.797   2.453
 4048SOL    HW112428   5.039   1.861   2.389
 4048SOL    HW212429   4.945   1.849   2.523
 4049SOL     OW12430   4.756   0.549   1.878
 4049SOL    HW112431   4.715   0.631   1.839
 4049SOL    HW212432   4.820   0.575   1.951
 4050SOL     OW12433   3.802   0.556   3.248
 4050SOL    HW112434   3.894   0.555   3.207
 4050SOL    HW212435   3.796   0.630   3.315
 4051SOL     OW12436   4.285   0.222   3.009
 4051SOL    HW112437   4.323   0.138   3.046
 4051SOL    HW212438   4.197   0.241   3.053
 4052SOL     OW12439   4.590   0.454   2.504
 4052SOL    HW112440   4.558   0.526   2.442
 4052SOL    HW212441   4.614   0.373   2.451
 4053SOL     OW12442   4.741   0.039   2.615
 4053SOL    HW112443   4.669   0.044   2.546
 4053SOL    HW212444   4.717  -0.030   2.684
 4054SOL     OW12445   5.153   1.173   2.729
 4054SOL    HW112446   5.098   1.089   2.722
 4054SOL    HW212447   5.179   1.202   2.637
 4055SOL     OW12448   5.190   0.590   2.854
 4055SOL    HW112449   5.160   0.495   2.861
 4055SOL    HW212450   5.263   0.606   2.920
 4056SOL     OW12451   5.581   0.833   2.239
 4056SOL    HW112452   5.623   0.769   2.303
 4056SOL    HW212453   5.543   0.782   2.161
 4057SOL     OW12454   4.212   1.385   2.036
 4057SOL    HW112455   4.125   1.370   2.083
 4057SOL    HW212456   4.195   1.411   1.941
 4058SOL     OW12457   5.388   1.280   2.519
 4058SOL    HW112458   5.487   1.288   2.533
 4058SOL    HW212459   5.343   1.364   2.550
 4059SOL     OW12460   5.114   0.575   1.940
 4059SOL    HW112461   5.060   0.554   2.021
 4059SOL    HW212462   5.205   0.534   1.949
 4060SOL     OW12463   4.251   0.256   2.190
 4060SOL    HW112464   4.278   0.197   2.115
 4060SOL    HW212465   4.251   0.351   2.159
 4061SOL     OW12466   5.478   1.223   3.450
 4061SOL    HW112467   5.569   1.184   3.437
 4061SOL    HW212468   5.486   1.319   3.474
 4062SOL     OW12469   4.788   1.347   3.202
 4062SOL    HW112470   4.708   1.324   3.257
 4062SOL    HW212471   4.871   1.321   3.251
 4063SOL     OW12472   5.316   1.629   3.487
 4063SOL    HW112473   5.343   1.663   3.397
 4063SOL    HW212474   5.395   1.591   3.533
 4064SOL     OW12475   4.835   1.195   2.962
 4064SOL    HW112476   4.795   1.239   3.043
 4064SOL    HW212477   4.794   1.232   2.879
 4065SOL     OW12478   5.362   1.099   2.941
 4065SOL    HW112479   5.367   1.180   3.000
 4065SOL    HW212480   5.276   1.101   2.890
 4066SOL     OW12481   4.639   0.089   3.264
 4066SOL    HW112482   4.664   0.069   3.169
 4066SOL    HW212483   4.711   0.145   3.306
 4067SOL     OW12484   4.704   1.116   3.581
 4067SOL    HW112485   4.605   1.122   3.591
 4067SOL    HW212486   4.727   1.036   3.525
 4068SOL     OW12487   4.429   1.050   2.230
 4068SOL    HW112488   4.415   1.057   2.329
 4068SOL    HW212489   4.513   0.999   2.212
 4069SOL     OW12490   4.134   0.813   3.113
 4069SOL    HW112491   4.220   0.825   3.163
 4069SOL    HW212492   4.092   0.726   3.140
 4070SOL     OW12493   4.998   0.386   3.124
 4070SOL    HW112494   5.019   0.460   3.188
 4070SOL    HW212495   4.909   0.403   3.081
 4071SOL     OW12496   3.788   1.564   3.193
 4071SOL    HW112497   3.742   1.646   3.159
 4071SOL    HW212498   3.886   1.583   3.202
 4072SOL     OW12499   4.091   1.100   2.363
 4072SOL    HW112500   4.084   1.183   2.307
 4072SOL    HW212501   4.095   1.020   2.303
 4073SOL     OW12502   4.290   0.537   2.727
 4073SOL    HW112503   4.302   0.603   2.653
 4073SOL    HW212504   4.336   0.571   2.810
 4074SOL     OW12505   4.976   1.348   2.250
 4074SOL    HW112506   5.026   1.425   2.290
 4074SOL    HW212507   4.881   1.350   2.282
 4075SOL     OW12508   4.996   1.445   3.004
 4075SOL    HW112509   5.043   1.458   3.091
 4075SOL    HW212510   4.930   1.371   3.013
 4076SOL     OW12511   5.306   0.639   2.334
 4076SOL    HW112512   5.275   0.700   2.407
 4076SOL    HW212513   5.356   0.691   2.265
 4077SOL     OW12514   4.078   1.510   3.191
 4077SOL    HW112515   4.057   1.466   3.104
 4077SOL    HW212516   4.175   1.536   3.194
 4078SOL     OW12517   4.126   0.751   3.460
 4078SOL    HW112518   4.194   0.806   3.413
 4078SOL    HW212519   4.166   0.663   3.487
 4079SOL     OW12520   5.311   0.779   3.532
 4079SOL    HW112521   5.219   0.817   3.527
 4079SOL    HW212522   5.371   0.826   3.467
 4080SOL     OW12523   4.737   0.105   3.632
 4080SOL    HW112524   4.743   0.190   3.580
 4080SOL    HW212525   4.769   0.029   3.575
 4081SOL     OW12526   4.228   0.050   3.602
 4081SOL    HW112527   4.186  -0.007   3.532
 4081SOL    HW212528   4.162   0.119   3.634
 4082SOL     OW12529   4.297   0.870   2.891
 4082SOL    HW112530   4.341   0.959   2.882
 4082SOL    HW212531   4.234   0.870   2.968
 4083SOL     OW12532   5.084   0.862   2.907
 4083SOL    HW112533   5.009   0.862   2.841
 4083SOL    HW212534   5.121   0.770   2.916
 4084SOL     OW12535   4.933   0.525   2.137
 4084SOL    HW112536   4.946   0.441   2.191
 4084SOL    HW212537   4.904   0.599   2.197
 4085SOL     OW12538   4.031   0.213   3.093
 4085SOL    HW112539   4.008   0.250   3.183
 4085SOL    HW212540   4.001   0.118   3.087
 4086SOL     OW12541   3.761   1.310   3.144
 4086SOL    HW112542   3.814   1.261   3.212
 4086SOL    HW212543   3.783   1.408   3.149
 4087SOL     OW12544   4.456   0.634   2.926
 4087SOL    HW112545   4.515   0.608   2.850
 4087SOL    HW212546   4.428   0.730   2.915
 4088SOL     OW12547   5.452   0.935   3.716
 4088SOL    HW112548   5.406   0.928   3.627
 4088SOL    HW212549   5.390   0.979   3.782
 4089SOL     OW12550   4.031   0.063   2.480
 4089SOL    HW112551   4.020   0.157   2.513
 4089SOL    HW212552   4.026   0.000   2.557
 4090SOL     OW12553   5.346   0.367   2.236
 4090SOL    HW112554   5.348   0.291   2.300
 4090SOL    HW212555   5.298   0.444   2.276
 4091SOL     OW12556   4.747   0.766   2.828
 4091SOL    HW112557   4.762   0.787   2.924
 4091SOL    HW212558   4.717   0.671   2.819
 4092SOL     OW12559   4.704   1.573   3.562
 4092SOL    HW112560   4.684   1.617   3.474
 4092SOL    HW212561   4.743   1.482   3.546
 4093SOL     OW12562   5.583   1.518   3.467
 4093SOL    HW112563   5.597   1.545   3.372
 4093SOL    HW212564   5.666   1.540   3.520
 4094SOL     OW12565   4.074   0.898   3.666
 4094SOL    HW112566   4.150   0.942   3.714
 4094SOL    HW212567   4.109   0.851   3.584
 4095SOL     OW12568   5.264   0.274   1.987
 4095SOL    HW112569   5.203   0.199   2.010
 4095SOL    HW212570   5.286   0.326   2.070
 4096SOL     OW12571   5.027   0.838   1.904
 4096SOL    HW112572   5.061   0.745   1.919
 4096SOL    HW212573   5.045   0.865   1.809
 4097SOL     OW12574   4.792   1.333   2.711
 4097SOL    HW112575   4.799   1.249   2.656
 4097SOL    HW212576   4.854   1.402   2.675
 4098SOL     OW12577   4.043   0.810   2.811
 4098SOL    HW112578   4.136   0.846   2.816
 4098SOL    HW212579   4.037   0.725   2.863
 4099SOL     OW12580   4.063   0.509   2.868
 4099SOL    HW112581   4.011   0.426   2.851
 4099SOL    HW212582   4.140   0.514   2.804
 4100SOL     OW12583   4.862   0.380   3.540
 4100SOL    HW112584   4.817   0.443   3.604
 4100SOL    HW212585   4.955   0.411   3.523
 4101SOL     OW12586   4.884   0.207   3.339
 4101SOL    HW112587   4.884   0.271   3.416
 4101SOL    HW212588   4.912   0.255   3.256
 4102SOL     OW12589   3.732   1.326   2.062
 4102SOL    HW112590   3.639   1.347   2.031
 4102SOL    HW212591   3.742   1.227   2.075
 4103SOL     OW12592   3.812   1.801   2.789
 4103SOL    HW112593   3.770   1.715   2.762
 4103SOL    HW212594   3.906   1.804   2.755
 4104SOL     OW12595   4.228   1.568   2.772
 4104SOL    HW112596   4.294   1.642   2.781
 4104SOL    HW212597   4.272   1.489   2.730
 4105SOL     OW12598   4.726   0.796   3.100
 4105SOL    HW112599   4.767   0.764   3.186
 4105SOL    HW212600   4.630   0.769   3.097
 4106SOL     OW12601   3.764   0.544   2.976
 4106SOL    HW112602   3.849   0.511   2.935
 4106SOL    HW212603   3.777   0.559   3.074
 4107SOL     OW12604   3.913   0.520   3.584
 4107SOL    HW112605   3.972   0.480   3.514
 4107SOL    HW212606   3.855   0.591   3.543
 4108SOL     OW12607   5.093   0.950   3.522
 4108SOL    HW112608   5.132   1.039   3.542
 4108SOL    HW212609   5.103   0.930   3.425
 4109SOL     OW12610   4.539   0.572   2.187
 4109SOL    HW112611   4.546   0.483   2.141
 4109SOL    HW212612   4.445   0.606   2.179
 4110SOL     OW12613   5.381   0.604   3.068
 4110SOL    HW112614   5.343   0.535   3.130
 4110SOL    HW212615   5.463   0.568   3.024
 4111SOL     OW12616   3.976   1.564   3.606
 4111SOL    HW112617   3.946   1.621   3.682
 4111SOL    HW212618   3.969   1.467   3.632
 4112SOL     OW12619   4.395   0.464   3.131
 4112SOL    HW112620   4.361   0.375   3.101
 4112SOL    HW212621   4.421   0.518   3.051
 4113SOL     OW12622   4.654   1.678   3.327
 4113SOL    HW112623   4.630   1.660   3.232
 4113SOL    HW212624   4.684   1.772   3.337
 4114SOL     OW12625   4.197   0.500   2.053
 4114SOL    HW112626   4.258   0.580   2.057
 4114SOL    HW212627   4.102   0.531   2.060
 4115SOL     OW12628   3.883   1.137   3.328
 4115SOL    HW112629   3.905   1.076   3.404
 4115SOL    HW212630   3.893   1.088   3.242
 4116SOL     OW12631   5.071   1.059   3.096
 4116SOL    HW112632   5.095   0.996   3.022
 4116SOL    HW212633   4.981   1.099   3.078
 4117SOL     OW12634   5.026   0.855   2.171
 4117SOL    HW112635   4.940   0.824   2.213
 4117SOL    HW212636   5.022   0.841   2.072
 4118SOL     OW12637   5.483   1.747   3.016
 4118SOL    HW112638   5.544   1.777   2.943
 4118SOL    HW212639   5.445   1.658   2.994
 4119SOL     OW12640   4.976   1.731   2.990
 4119SOL    HW112641   5.060   1.736   2.936
 4119SOL    HW212642   4.953   1.635   3.008
 4120SOL     OW12643   3.807   1.258   2.884
 4120SOL    HW112644   3.802   1.257   2.984
 4120SOL    HW212645   3.724   1.217   2.846
 4121SOL     OW12646   4.412   1.662   3.578
 4121SOL    HW112647   4.356   1.743   3.587
 4121SOL    HW212648   4.464   1.666   3.492
 4122SOL     OW12649   5.450   0.135   2.385
 4122SOL    HW112650   5.523   0.118   2.318
 4122SOL    HW212651   5.419   0.048   2.423
 4123SOL     OW12652   5.112   1.573   2.339
 4123SOL    HW112653   5.179   1.585   2.265
 4123SOL    HW212654   5.072   1.662   2.362
 4124SOL     OW12655   3.854   1.794   3.713
 4124SOL    HW112656   3.813   1.720   3.766
 4124SOL    HW212657   3.918   1.845   3.771
 4125SOL     OW12658   5.004   0.927   2.534
 4125SOL    HW112659   5.064   0.846   2.536
 4125SOL    HW212660   5.044   0.996   2.474
 4126SOL     OW12661   4.554   1.273   3.284
 4126SOL    HW112662   4.549   1.306   3.379
 4126SOL    HW212663   4.468   1.292   3.238
 4127SOL     OW12664   4.396   1.616   2.016
 4127SOL    HW112665   4.405   1.626   1.917
 4127SOL    HW212666   4.356   1.527   2.037
 4128SOL     OW12667   5.374   1.720   3.256
 4128SOL    HW112668   5.427   1.730   3.172
 4128SOL    HW212669   5.347   1.810   3.290
 4129SOL     OW12670   5.565   0.175   2.825
 4129SOL    HW112671   5.604   0.090   2.789
 4129SOL    HW212672   5.467   0.177   2.806
 4130SOL     OW12673   3.987   0.326   2.582
 4130SOL    HW112674   3.908   0.377   2.548
 4130SOL    HW212675   3.978   0.311   2.680
 4131SOL     OW12676   4.918   1.612   1.893
 4131SOL    HW112677   4.924   1.519   1.930
 4131SOL    HW212678   4.859   1.612   1.813
 4132SOL     OW12679   4.546   1.002   3.234
 4132SOL    HW112680   4.586   1.001   3.142
 4132SOL    HW212681   4.556   1.094   3.274
 4133SOL     OW12682   4.640   0.910   2.153
 4133SOL    HW112683   4.703   0.948   2.085
 4133SOL    HW212684   4.680   0.827   2.192
 4134SOL     OW12685   5.228   1.607   1.906
 4134SOL    HW112686   5.136   1.644   1.913
 4134SOL    HW212687   5.266   1.627   1.816
 4135SOL     OW12688   4.096   1.288   3.352
 4135SOL    HW112689   4.083   1.381   3.318
 4135SOL    HW212690   4.012   1.236   3.339
 4136SOL     OW12691   5.338   1.292   3.151
 4136SOL    HW112692   5.398   1.295   3.231
 4136SOL    HW212693   5.263   1.356   3.164
 4137SOL     OW12694   4.763   1.098   2.558
 4137SOL    HW112695   4.693   1.051   2.612
 4137SOL    HW212696   4.822   1.030   2.515
 4138SOL     OW12697   4.738   0.236   2.833
 4138SOL    HW112698   4.730   0.200   2.740
 4138SOL    HW212699   4.736   0.160   2.898
 4139SOL     OW12700   4.314   1.487   2.353
 4139SOL    HW112701   4.356   1.429   2.283
 4139SOL    HW212702   4.270   1.566   2.309
 4140SOL     OW12703   5.433   0.385   3.243
 4140SOL    HW112704   5.506   0.454   3.247
 4140SOL    HW212705   5.461   0.310   3.184
 4141SOL     OW12706   3.979   1.348   2.152
 4141SOL    HW112707   3.883   1.349   2.125
 4141SOL    HW212708   3.991   1.401   2.236
 4142SOL     OW12709   3.829   1.013   3.588
 4142SOL    HW112710   3.752   0.980   3.642
 4142SOL    HW212711   3.914   0.983   3.630
 4143SOL     OW12712   4.396   0.203   3.351
 4143SOL    HW112713   4.486   0.187   3.311
 4143SOL    HW212714   4.404   0.208   3.450
 4144SOL     OW12715   3.799   0.345   1.895
 4144SOL    HW112716   3.707   0.317   1.866
 4144SOL    HW212717   3.830   0.422   1.839
 4145SOL     OW12718   5.164   0.856   3.260
 4145SOL    HW112719   5.107   0.908   3.197
 4145SOL    HW212720   5.260   0.868   3.236
 4146SOL     OW12721   3.796   0.166   2.180
 4146SOL    HW112722   3.779   0.249   2.126
 4146SOL    HW212723   3.886   0.129   2.158
 4147SOL     OW12724   4.907   1.335   1.981
 4147SOL    HW112725   4.808   1.324   1.983
 4147SOL    HW212726   4.941   1.350   2.074
 4148SOL     OW12727   4.337   0.842   3.293
 4148SOL    HW112728   4.393   0.923   3.276
 4148SOL    HW212729   4.396   0.762   3.296
 4149SOL     OW12730   5.217   1.767   2.821
 4149SOL    HW112731   5.250   1.831   2.752
 4149SOL    HW212732   5.283   1.761   2.896
 4150SOL     OW12733   4.440   0.565   3.570
 4150SOL    HW112734   4.459   0.630   3.644
 4150SOL    HW212735   4.500   0.485   3.579
 4151SOL     OW12736   5.174   1.220   3.495
 4151SOL    HW112737   5.165   1.210   3.594
 4151SOL    HW212738   5.270   1.213   3.469
 4152SOL     OW12739   4.114   1.741   3.422
 4152SOL    HW112740   4.023   1.782   3.420
 4152SOL    HW212741   4.107   1.647   3.454
 4153SOL     OW12742   5.398   0.883   3.116
 4153SOL    HW112743   5.371   0.794   3.079
 4153SOL    HW212744   5.399   0.951   3.043
 4154SOL     OW12745   4.949   0.325   2.311
 4154SOL    HW112746   5.014   0.251   2.300
 4154SOL    HW212747   4.969   0.375   2.395
 4155SOL     OW12748   4.318   0.745   2.514
 4155SOL    HW112749   4.368   0.830   2.495
 4155SOL    HW212750   4.230   0.747   2.466
 4156SOL     OW12751   5.501   0.342   3.504
 4156SOL    HW112752   5.484   0.373   3.410
 4156SOL    HW212753   5.417   0.305   3.542
 4157SOL     OW12754   5.454   0.934   3.379
 4157SOL    HW112755   5.492   1.025   3.394
 4157SOL    HW212756   5.446   0.917   3.280
 4158SOL     OW12757   4.583   1.374   1.878
 4158SOL    HW112758   4.537   1.389   1.966
 4158SOL    HW212759   4.627   1.459   1.848
 4159SOL     OW12760   4.385   1.790   2.815
 4159SOL    HW112761   4.339   1.878   2.802
 4159SOL    HW212762   4.484   1.802   2.808
 4160SOL     OW12763   4.583   0.956   2.723
 4160SOL    HW112764   4.637   0.887   2.771
 4160SOL    HW212765   4.551   1.025   2.789
 4161SOL     OW12766   4.807   0.984   1.949
 4161SOL    HW112767   4.784   1.037   1.867
 4161SOL    HW212768   4.888   0.928   1.930
 4162SOL     OW12769   5.585   1.569   2.713
 4162SOL    HW112770   5.514   1.557   2.643
 4162SOL    HW212771   5.586   1.490   2.773
 4163SOL     OW12772   3.945   1.314   3.706
 4163SOL    HW112773   3.880   1.241   3.685
 4163SOL    HW212774   3.949   1.328   3.804
 4164SOL     OW12775   3.803   1.240   2.515
 4164SOL    HW112776   3.802   1.193   2.603
 4164SOL    HW212777   3.885   1.212   2.464
 4165SOL     OW12778   4.396   1.391   3.486
 4165SOL    HW112779   4.318   1.341   3.524
 4165SOL    HW212780   4.393   1.486   3.517
 4166SOL     OW12781   5.548   0.192   3.089
 4166SOL    HW112782   5.544   0.102   3.133
 4166SOL    HW212783   5.551   0.181   2.990
 4167SOL     OW12784   4.152   0.424   2.382
 4167SOL    HW112785   4.182   0.352   2.320
 4167SOL    HW212786   4.113   0.384   2.465
 4168SOL     OW12787   5.429   1.487   2.966
 4168SOL    HW112788   5.336   1.462   2.939
 4168SOL    HW212789   5.455   1.437   3.048
 4169SOL     OW12790   4.041   0.547   3.142
 4169SOL    HW112791   4.079   0.488   3.214
 4169SOL    HW212792   4.081   0.521   3.054
 4170SOL     OW12793   4.536   1.586   2.549
 4170SOL    HW112794   4.568   1.596   2.455
 4170SOL    HW212795   4.457   1.524   2.551
 4171SOL     OW12796   5.148   0.214   2.974
 4171SOL    HW112797   5.200   0.149   3.029
 4171SOL    HW212798   5.099   0.277   3.035
 4172SOL     OW12799   4.725   0.034   3.016
 4172SOL    HW112800   4.662  -0.038   2.985
 4172SOL    HW212801   4.818  -0.002   3.016
 4173SOL     OW12802   4.494   1.330   2.163
 4173SOL    HW112803   4.448   1.243   2.180
 4173SOL    HW212804   4.585   1.327   2.204
 4174SOL     OW12805   4.342   1.567   3.146
 4174SOL    HW112806   4.337   1.649   3.203
 4174SOL    HW212807   4.431   1.564   3.101
 4175SOL     OW12808   5.076   0.052   2.030
 4175SOL    HW112809   5.111   0.011   1.946
 4175SOL    HW212810   4.986   0.014   2.050
 4176SOL     OW12811   5.024   0.453   2.553
 4176SOL    HW112812   4.965   0.533   2.557
 4176SOL    HW212813   5.039   0.418   2.646
 4177SOL     OW12814   5.317   0.221   2.744
 4177SOL    HW112815   5.233   0.220   2.798
 4177SOL    HW212816   5.319   0.304   2.688
 4178SOL     OW12817   3.763   1.077   2.162
 4178SOL    HW112818   3.862   1.066   2.153
 4178SOL    HW212819   3.723   0.991   2.194
 4179SOL     OW12820   4.599   1.646   2.199
 4179SOL    HW112821   4.522   1.611   2.145
 4179SOL    HW212822   4.567   1.717   2.261
 4180SOL     OW12823   3.954   0.628   3.837
 4180SOL    HW112824   3.861   0.626   3.874
 4180SOL    HW212825   3.955   0.589   3.745
 4181SOL     OW12826   3.949   0.275   4.720
 4181SOL    HW112827   3.984   0.258   4.812
 4181SOL    HW212828   3.861   0.230   4.708
 4182SOL     OW12829   3.743   0.368   4.371
 4182SOL    HW112830   3.661   0.411   4.410
 4182SOL    HW212831   3.715   0.295   4.308
 4183SOL     OW12832   4.293   1.275   4.889
 4183SOL    HW112833   4.200   1.268   4.852
 4183SOL    HW212834   4.304   1.364   4.933
 4184SOL     OW12835   5.279   1.511   4.427
 4184SOL    HW112836   5.222   1.495   4.508
 4184SOL    HW212837   5.220   1.521   4.347
 4185SOL     OW12838   4.859   0.703   4.441
 4185SOL    HW112839   4.916   0.781   4.416
 4185SOL    HW212840   4.799   0.729   4.517
 4186SOL     OW12841   5.479   0.607   3.955
 4186SOL    HW112842   5.467   0.594   3.856
 4186SOL    HW212843   5.449   0.526   4.004
 4187SOL     OW12844   4.492   1.144   4.747
 4187SOL    HW112845   4.414   1.161   4.807
 4187SOL    HW212846   4.526   1.231   4.711
 4188SOL     OW12847   4.574   0.798   5.547
 4188SOL    HW112848   4.570   0.874   5.612
 4188SOL    HW212849   4.596   0.834   5.456
 4189SOL     OW12850   4.409   1.012   4.389
 4189SOL    HW112851   4.478   0.996   4.459
 4189SOL    HW212852   4.336   1.069   4.427
 4190SOL     OW12853   4.410   1.161   5.527
 4190SOL    HW112854   4.470   1.240   5.541
 4190SOL    HW212855   4.324   1.192   5.486
 4191SOL     OW12856   4.059   1.435   4.785
 4191SOL    HW112857   3.981   1.404   4.732
 4191SOL    HW212858   4.117   1.493   4.728
 4192SOL     OW12859   5.184   1.505   5.063
 4192SOL    HW112860   5.208   1.599   5.089
 4192SOL    HW212861   5.168   1.451   5.145
 4193SOL     OW12862   4.162   0.392   5.223
 4193SOL    HW112863   4.244   0.336   5.232
 4193SOL    HW212864   4.081   0.334   5.227
 4194SOL     OW12865   5.327   0.447   4.461
 4194SOL    HW112866   5.253   0.493   4.411
 4194SOL    HW212867   5.378   0.515   4.514
 4195SOL     OW12868   3.955   1.713   4.207
 4195SOL    HW112869   3.989   1.790   4.261
 4195SOL    HW212870   3.999   1.713   4.117
 4196SOL     OW12871   4.851   1.341   5.414
 4196SOL    HW112872   4.898   1.341   5.502
 4196SOL    HW212873   4.803   1.254   5.403
 4197SOL     OW12874   3.954   1.434   4.262
 4197SOL    HW112875   3.928   1.530   4.262
 4197SOL    HW212876   3.883   1.380   4.307
 4198SOL     OW12877   3.964   1.091   4.610
 4198SOL    HW112878   3.978   1.007   4.662
 4198SOL    HW212879   3.909   1.155   4.665
 4199SOL     OW12880   4.344   1.786   5.163
 4199SOL    HW112881   4.252   1.769   5.198
 4199SOL    HW212882   4.372   1.878   5.189
 4200SOL     OW12883   4.330   0.964   3.847
 4200SOL    HW112884   4.337   1.048   3.793
 4200SOL    HW212885   4.376   0.977   3.935
 4201SOL     OW12886   5.318   0.114   5.204
 4201SOL    HW112887   5.300   0.181   5.132
 4201SOL    HW212888   5.315   0.160   5.293
 4202SOL     OW12889   3.846   0.643   4.287
 4202SOL    HW112890   3.801   0.555   4.304
 4202SOL    HW212891   3.845   0.697   4.371
 4203SOL     OW12892   5.566   1.767   4.083
 4203SOL    HW112893   5.620   1.738   4.163
 4203SOL    HW212894   5.596   1.857   4.054
 4204SOL     OW12895   3.751   1.596   3.841
 4204SOL    HW112896   3.732   1.500   3.862
 4204SOL    HW212897   3.718   1.654   3.916
 4205SOL     OW12898   5.413   0.922   4.336
 4205SOL    HW112899   5.508   0.893   4.344
 4205SOL    HW212900   5.405   0.987   4.261
 4206SOL     OW12901   5.365   1.108   4.156
 4206SOL    HW112902   5.451   1.110   4.104
 4206SOL    HW212903   5.379   1.155   4.244
 4207SOL     OW12904   3.837   0.737   5.321
 4207SOL    HW112905   3.925   0.724   5.366
 4207SOL    HW212906   3.824   0.834   5.299
 4208SOL     OW12907   4.337   1.365   4.450
 4208SOL    HW112908   4.288   1.278   4.459
 4208SOL    HW212909   4.314   1.408   4.363
 4209SOL     OW12910   5.017   1.228   5.147
 4209SOL    HW112911   5.054   1.155   5.089
 4209SOL    HW212912   5.069   1.233   5.232
 4210SOL     OW12913   4.533   0.004   4.226
 4210SOL    HW112914   4.573   0.095   4.217
 4210SOL    HW212915   4.433   0.012   4.232
 4211SOL     OW12916   3.921   0.976   4.988
 4211SOL    HW112917   4.010   0.931   4.974
 4211SOL    HW212918   3.848   0.911   4.969
 4212SOL     OW12919   5.249   0.999   3.914
 4212SOL    HW112920   5.186   0.923   3.927
 4212SOL    HW212921   5.297   1.017   4.000
 4213SOL     OW12922   4.911   1.792   5.340
 4213SOL    HW112923   4.935   1.852   5.264
 4213SOL    HW212924   4.918   1.697   5.310
 4214SOL     OW12925   4.041   0.251   5.525
 4214SOL    HW112926   4.112   0.322   5.531
 4214SOL    HW212927   3.953   0.290   5.553
 4215SOL     OW12928   5.190   1.417   4.677
 4215SOL    HW112929   5.131   1.423   4.757
 4215SOL    HW212930   5.175   1.329   4.631
 4216SOL     OW12931   5.391   1.714   4.296
 4216SOL    HW112932   5.350   1.691   4.208
 4216SOL    HW212933   5.373   1.640   4.361
 4217SOL     OW12934   4.322   0.729   3.994
 4217SOL    HW112935   4.346   0.798   3.926
 4217SOL    HW212936   4.244   0.762   4.048
 4218SOL     OW12937   5.005   0.345   4.668
 4218SOL    HW112938   4.919   0.295   4.655
 4218SOL    HW212939   5.067   0.291   4.724
 4219SOL     OW12940   5.300   1.662   4.031
 4219SOL    HW112941   5.389   1.708   4.034
 4219SOL    HW212942   5.279   1.638   3.936
 4220SOL     OW12943   4.531   0.605   5.189
 4220SOL    HW112944   4.484   0.602   5.278
 4220SOL    HW212945   4.480   0.550   5.123
 4221SOL     OW12946   5.118   0.469   5.398
 4221SOL    HW112947   5.098   0.512   5.486
 4221SOL    HW212948   5.196   0.407   5.407
 4222SOL     OW12949   4.697   0.890   5.296
 4222SOL    HW112950   4.743   0.806   5.267
 4222SOL    HW212951   4.641   0.924   5.221
 4223SOL     OW12952   4.715   0.410   4.966
 4223SOL    HW112953   4.638   0.444   5.020
 4223SOL    HW212954   4.681   0.359   4.887
 4224SOL     OW12955   4.765   0.701   4.153
 4224SOL    HW112956   4.791   0.697   4.249
 4224SOL    HW212957   4.680   0.650   4.139
 4225SOL     OW12958   3.800   0.811   4.513
 4225SOL    HW112959   3.899   0.799   4.522
 4225SOL    HW212960   3.776   0.906   4.534
 4226SOL     OW12961   3.854   1.821   5.295
 4226SOL    HW112962   3.844   1.806   5.394
 4226SOL    HW212963   3.768   1.857   5.259
 4227SOL     OW12964   4.589   0.348   3.919
 4227SOL    HW112965   4.648   0.411   3.870
 4227SOL    HW212966   4.608   0.254   3.890
 4228SOL     OW12967   5.443   0.585   5.555
 4228SOL    HW112968   5.417   0.674   5.519
 4228SOL    HW212969   5.441   0.517   5.482
 4229SOL     OW12970   5.086   1.144   4.269
 4229SOL    HW112971   5.169   1.115   4.221
 4229SOL    HW212972   5.037   1.211   4.213
 4230SOL     OW12973   4.274   0.196   4.609
 4230SOL    HW112974   4.269   0.191   4.709
 4230SOL    HW212975   4.276   0.292   4.580
 4231SOL     OW12976   4.732   1.456   4.201
 4231SOL    HW112977   4.686   1.528   4.149
 4231SOL    HW212978   4.728   1.476   4.299
 4232SOL     OW12979   4.075   1.801   4.577
 4232SOL    HW112980   4.125   1.715   4.583
 4232SOL    HW212981   4.140   1.878   4.574
 4233SOL     OW12982   5.519   1.066   4.597
 4233SOL    HW112983   5.457   1.051   4.521
 4233SOL    HW212984   5.467   1.077   4.682
 4234SOL     OW12985   4.951   1.550   5.230
 4234SOL    HW112986   4.957   1.473   5.294
 4234SOL    HW212987   4.899   1.524   5.150
 4235SOL     OW12988   4.045   0.943   3.966
 4235SOL    HW112989   4.127   0.982   3.924
 4235SOL    HW212990   4.018   0.861   3.917
 4236SOL     OW12991   5.182   0.735   4.452
 4236SOL    HW112992   5.177   0.670   4.527
 4236SOL    HW212993   5.262   0.794   4.465
 4237SOL     OW12994   4.185   1.266   5.451
 4237SOL    HW112995   4.135   1.267   5.365
 4237SOL    HW212996   4.122   1.248   5.527
 4238SOL     OW12997   4.835   1.776   3.961
 4238SOL    HW112998   4.775   1.714   4.011
 4238SOL    HW212999   4.866   1.732   3.876
 4239SOL     OW13000   3.926   0.285   5.222
 4239SOL    HW113001   3.846   0.345   5.209
 4239SOL    HW213002   3.916   0.236   5.308
 4240SOL     OW13003   5.356   1.377   3.805
 4240SOL    HW113004   5.324   1.471   3.795
 4240SOL    HW213005   5.280   1.314   3.793
 4241SOL     OW13006   4.188   1.743   4.047
 4241SOL    HW113007   4.221   1.782   4.133
 4241SOL    HW213008   4.264   1.736   3.982
 4242SOL     OW13009   5.124   0.107   4.150
 4242SOL    HW113010   5.100   0.070   4.060
 4242SOL    HW213011   5.223   0.123   4.154
 4243SOL     OW13012   3.973   1.785   4.965
 4243SOL    HW113013   4.030   1.720   5.015
 4243SOL    HW213014   3.957   1.752   4.872
 4244SOL     OW13015   4.664   1.698   4.628
 4244SOL    HW113016   4.744   1.641   4.649
 4244SOL    HW213017   4.615   1.658   4.551
 4245SOL     OW13018   4.106   0.700   4.204
 4245SOL    HW113019   4.151   0.610   4.201
 4245SOL    HW213020   4.012   0.689   4.237
 4246SOL     OW13021   5.271   0.222   5.453
 4246SOL    HW113022   5.266   0.259   5.545
 4246SOL    HW213023   5.199   0.153   5.441
 4247SOL     OW13024   4.338   0.122   3.841
 4247SOL    HW113025   4.436   0.100   3.848
 4247SOL    HW213026   4.307   0.105   3.748
 4248SOL     OW13027   4.505   0.264   5.473
 4248SOL    HW113028   4.572   0.203   5.516
 4248SOL    HW213029   4.432   0.283   5.538
 4249SOL     OW13030   4.612   1.514   4.919
 4249SOL    HW113031   4.589   1.489   4.825
 4249SOL    HW213032   4.673   1.445   4.958
 4250SOL     OW13033   5.075   0.590   5.157
 4250SOL    HW113034   5.103   0.547   5.242
 4250SOL    HW213035   5.100   0.686   5.158
 4251SOL     OW13036   4.527   1.402   4.648
 4251SOL    HW113037   4.617   1.416   4.606
 4251SOL    HW213038   4.456   1.404   4.577
 4252SOL     OW13039   4.646   0.503   4.623
 4252SOL    HW113040   4.621   0.494   4.527
 4252SOL    HW213041   4.694   0.421   4.654
 4253SOL     OW13042   4.263   0.064   4.236
 4253SOL    HW113043   4.182   0.065   4.294
 4253SOL    HW213044   4.266   0.147   4.181
 4254SOL     OW13045   5.158   1.188   3.765
 4254SOL    HW113046   5.190   1.112   3.822
 4254SOL    HW213047   5.066   1.215   3.795
 4255SOL     OW13048   4.021   0.035   3.895
 4255SOL    HW113049   4.070   0.119   3.874
 4255SOL    HW213050   4.083  -0.030   3.940
 4256SOL     OW13051   4.659   0.236   4.204
 4256SOL    HW113052   4.611   0.277   4.126
 4256SOL    HW213053   4.758   0.234   4.185
 4257SOL     OW13054   4.800   0.683   5.188
 4257SOL    HW113055   4.720   0.622   5.191
 4257SOL    HW213056   4.881   0.630   5.164
 4258SOL     OW13057   4.951   1.570   4.517
 4258SOL    HW113058   4.972   1.644   4.452
 4258SOL    HW213059   5.019   1.570   4.590
 4259SOL     OW13060   4.183   1.152   4.465
 4259SOL    HW113061   4.112   1.125   4.530
 4259SOL    HW213062   4.157   1.124   4.372
 4260SOL     OW13063   4.995   1.797   4.315
 4260SOL    HW113064   5.039   1.861   4.251
 4260SOL    HW213065   4.945   1.849   4.385
 4261SOL     OW13066   4.756   0.549   3.740
 4261SOL    HW113067   4.715   0.631   3.701
 4261SOL    HW213068   4.820   0.575   3.813
 4262SOL     OW13069   3.802   0.556   5.110
 4262SOL    HW113070   3.894   0.555   5.069
 4262SOL    HW213071   3.796   0.630   5.177
 4263SOL     OW13072   4.285   0.222   4.871
 4263SOL    HW113073   4.323   0.138   4.908
 4263SOL    HW213074   4.197   0.241   4.915
 4264SOL     OW13075   4.590   0.454   4.366
 4264SOL    HW113076   4.558   0.526   4.304
 4264SOL    HW213077   4.614   0.373   4.313
 4265SOL     OW13078   4.741   0.039   4.477
 4265SOL    HW113079   4.669   0.044   4.408
 4265SOL    HW213080   4.717  -0.030   4.546
 4266SOL     OW13081   5.153   1.173   4.591
 4266SOL    HW113082   5.098   1.089   4.584
 4266SOL    HW213083   5.179   1.202   4.499
 4267SOL     OW13084   5.190   0.590   4.716
 4267SOL    HW113085   5.160   0.495   4.723
 4267SOL    HW213086   5.263   0.606   4.782
 4268SOL     OW13087   5.581   0.833   4.101
 4268SOL    HW113088   5.623   0.769   4.165
 4268SOL    HW213089   5.543   0.782   4.023
 4269SOL     OW13090   4.212   1.385   3.898
 4269SOL    HW113091   4.125   1.370   3.945
 4269SOL    HW213092   4.195   1.411   3.803
 4270SOL     OW13093   5.388   1.280   4.381
 4270SOL    HW113094   5.487   1.288   4.395
 4270SOL    HW213095   5.343   1.364   4.412
 4271SOL     OW13096   5.114   0.575   3.802
 4271SOL    HW113097   5.060   0.554   3.883
 4271SOL    HW213098   5.205   0.534   3.811
 4272SOL     OW13099   4.251   0.256   4.052
 4272SOL    HW113100   4.278   0.197   3.977
 4272SOL    HW213101   4.251   0.351   4.021
 4273SOL     OW13102   5.478   1.223   5.312
 4273SOL    HW113103   5.569   1.184   5.299
 4273SOL    HW213104   5.486   1.319   5.336
 4274SOL     OW13105   4.788   1.347   5.064
 4274SOL    HW113106   4.708   1.324   5.119
 4274SOL    HW213107   4.871   1.321   5.113
 4275SOL     OW13108   5.316   1.629   5.349
 4275SOL    HW113109   5.343   1.663   5.259
 4275SOL    HW213110   5.395   1.591   5.395
 4276SOL     OW13111   4.835   1.195   4.824
 4276SOL    HW113112   4.795   1.239   4.905
 4276SOL    HW213113   4.794   1.232   4.741
 4277SOL     OW13114   5.362   1.099   4.803
 4277SOL    HW113115   5.367   1.180   4.862
 4277SOL    HW213116   5.276   1.101   4.752
 4278SOL     OW13117   4.639   0.089   5.126
 4278SOL    HW113118   4.664   0.069   5.031
 4278SOL    HW213119   4.711   0.145   5.168
 4279SOL     OW13120   4.704   1.116   5.443
 4279SOL    HW113121   4.605   1.122   5.453
 4279SOL    HW213122   4.727   1.036   5.387
 4280SOL     OW13123   4.429   1.050   4.092
 4280SOL    HW113124   4.415   1.057   4.191
 4280SOL    HW213125   4.513   0.999   4.074
 4281SOL     OW13126   4.134   0.813   4.975
 4281SOL    HW113127   4.220   0.825   5.025
 4281SOL    HW213128   4.092   0.726   5.002
 4282SOL     OW13129   4.998   0.386   4.986
 4282SOL    HW113130   5.019   0.460   5.050
 4282SOL    HW213131   4.909   0.403   4.943
 4283SOL     OW13132   3.788   1.564   5.055
 4283SOL    HW113133   3.742   1.646   5.021
 4283SOL    HW213134   3.886   1.583   5.064
 4284SOL     OW13135   4.091   1.100   4.225
 4284SOL    HW113136   4.084   1.183   4.169
 4284SOL    HW213137   4.095   1.020   4.165
 4285SOL     OW13138   4.290   0.537   4.589
 4285SOL    HW113139   4.302   0.603   4.515
 4285SOL    HW213140   4.336   0.571   4.672
 4286SOL     OW13141   4.976   1.348   4.112
 4286SOL    HW113142   5.026   1.425   4.152
 4286SOL    HW213143   4.881   1.350   4.144
 4287SOL     OW13144   4.996   1.445   4.866
 4287SOL    HW113145   5.043   1.458   4.953
 4287SOL    HW213146   4.930   1.371   4.875
 4288SOL     OW13147   5.306   0.639   4.196
 4288SOL    HW113148   5.275   0.700   4.269
 4288SOL    HW213149   5.356   0.691   4.127
 4289SOL     OW13150   4.078   1.510   5.053
 4289SOL    HW113151   4.057   1.466   4.966
 4289SOL    HW213152   4.175   1.536   5.056
 4290SOL     OW13153   4.126   0.751   5.322
 4290SOL    HW113154   4.194   0.806   5.275
 4290SOL    HW213155   4.166   0.663   5.349
 4291SOL     OW13156   5.311   0.779   5.394
 4291SOL    HW113157   5.219   0.817   5.389
 4291SOL    HW213158   5.371   0.826   5.329
 4292SOL     OW13159   4.737   0.105   5.494
 4292SOL    HW113160   4.743   0.190   5.442
 4292SOL    HW213161   4.769   0.029   5.437
 4293SOL     OW13162   4.228   0.050   5.464
 4293SOL    HW113163   4.186  -0.007   5.394
 4293SOL    HW213164   4.162   0.119   5.496
 4294SOL     OW13165   4.297   0.870   4.753
 4294SOL    HW113166   4.341   0.959   4.744
 4294SOL    HW213167   4.234   0.870   4.830
 4295SOL     OW13168   5.084   0.862   4.769
 4295SOL    HW113169   5.009   0.862   4.703
 4295SOL    HW213170   5.121   0.770   4.778
 4296SOL     OW13171   4.933   0.525   3.999
 4296SOL    HW113172   4.946   0.441   4.053
 4296SOL    HW213173   4.904   0.599   4.059
 4297SOL     OW13174   4.031   0.213   4.955
 4297SOL    HW113175   4.008   0.250   5.045
 4297SOL    HW213176   4.001   0.118   4.949
 4298SOL     OW13177   3.761   1.310   5.006
 4298SOL    HW113178   3.814   1.261   5.074
 4298SOL    HW213179   3.783   1.408   5.011
 4299SOL     OW13180   4.456   0.634   4.788
 4299SOL    HW113181   4.515   0.608   4.712
 4299SOL    HW213182   4.428   0.730   4.777
 4300SOL     OW13183   5.452   0.935   5.578
 4300SOL    HW113184   5.406   0.928   5.489
 4300SOL    HW213185   5.390   0.979   5.644
 4301SOL     OW13186   4.031   0.063   4.342
 4301SOL    HW113187   4.020   0.157   4.375
 4301SOL    HW213188   4.026   0.000   4.419
 4302SOL     OW13189   5.346   0.367   4.098
 4302SOL    HW113190   5.348   0.291   4.162
 4302SOL    HW213191   5.298   0.444   4.138
 4303SOL     OW13192   4.747   0.766   4.690
 4303SOL    HW113193   4.762   0.787   4.786
 4303SOL    HW213194   4.717   0.671   4.681
 4304SOL     OW13195   4.704   1.573   5.424
 4304SOL    HW113196   4.684   1.617   5.336
 4304SOL    HW213197   4.743   1.482   5.408
 4305SOL     OW13198   5.583   1.518   5.329
 4305SOL    HW113199   5.597   1.545   5.234
 4305SOL    HW213200   5.666   1.540   5.382
 4306SOL     OW13201   4.074   0.898   5.528
 4306SOL    HW113202   4.150   0.942   5.576
 4306SOL    HW213203   4.109   0.851   5.446
 4307SOL     OW13204   5.264   0.274   3.849
 4307SOL    HW113205   5.203   0.199   3.872
 4307SOL    HW213206   5.286   0.326   3.932
 4308SOL     OW13207   5.027   0.838   3.766
 4308SOL    HW113208   5.061   0.745   3.781
 4308SOL    HW213209   5.045   0.865   3.671
 4309SOL     OW13210   4.792   1.333   4.573
 4309SOL    HW113211   4.799   1.249   4.518
 4309SOL    HW213212   4.854   1.402   4.537
 4310SOL     OW13213   4.043   0.810   4.673
 4310SOL    HW113214   4.136   0.846   4.678
 4310SOL    HW213215   4.037   0.725   4.725
 4311SOL     OW13216   4.063   0.509   4.730
 4311SOL    HW113217   4.011   0.426   4.713
 4311SOL    HW213218   4.140   0.514   4.666
 4312SOL     OW13219   4.862   0.380   5.402
 4312SOL    HW113220   4.817   0.443   5.466
 4312SOL    HW213221   4.955   0.411   5.385
 4313SOL     OW13222   4.884   0.207   5.201
 4313SOL    HW113223   4.884   0.271   5.278
 4313SOL    HW213224   4.912   0.255   5.118
 4314SOL     OW13225   3.732   1.326   3.924
 4314SOL    HW113226   3.639   1.347   3.893
 4314SOL    HW213227   3.742   1.227   3.937
 4315SOL     OW13228   3.812   1.801   4.651
 4315SOL    HW113229   3.770   1.715   4.624
 4315SOL    HW213230   3.906   1.804   4.617
 4316SOL     OW13231   4.228   1.568   4.634
 4316SOL    HW113232   4.294   1.642   4.643
 4316SOL    HW213233   4.272   1.489   4.592
 4317SOL     OW13234   4.726   0.796   4.962
 4317SOL    HW113235   4.767   0.764   5.048
 4317SOL    HW213236   4.630   0.769   4.959
 4318SOL     OW13237   3.764   0.544   4.838
 4318SOL    HW113238   3.849   0.511   4.797
 4318SOL    HW213239   3.777   0.559   4.936
 4319SOL     OW13240   3.913   0.520   5.446
 4319SOL    HW113241   3.972   0.480   5.376
 4319SOL    HW213242   3.855   0.591   5.405
 4320SOL     OW13243   5.093   0.950   5.384
 4320SOL    HW113244   5.132   1.039   5.404
 4320SOL    HW213245   5.103   0.930   5.287
 4321SOL     OW13246   4.539   0.572   4.049
 4321SOL    HW113247   4.546   0.483   4.003
 4321SOL    HW213248   4.445   0.606   4.041
 4322SOL     OW13249   5.381   0.604   4.930
 4322SOL    HW113250   5.343   0.535   4.992
 4322SOL    HW213251   5.463   0.568   4.886
 4323SOL     OW13252   3.976   1.564   5.468
 4323SOL    HW113253   3.946   1.621   5.544
 4323SOL    HW213254   3.969   1.467   5.494
 4324SOL     OW13255   4.395   0.464   4.993
 4324SOL    HW113256   4.361   0.375   4.963
 4324SOL    HW213257   4.421   0.518   4.913
 4325SOL     OW13258   4.654   1.678   5.189
 4325SOL    HW113259   4.630   1.660   5.094
 4325SOL    HW213260   4.684   1.772   5.199
 4326SOL     OW13261   4.197   0.500   3.915
 4326SOL    HW113262   4.258   0.580   3.919
 4326SOL    HW213263   4.102   0.531   3.922
 4327SOL     OW13264   3.883   1.137   5.190
 4327SOL    HW113265   3.905   1.076   5.266
 4327SOL    HW213266   3.893   1.088   5.104
 4328SOL     OW13267   5.071   1.059   4.958
 4328SOL    HW113268   5.095   0.996   4.884
 4328SOL    HW213269   4.981   1.099   4.940
 4329SOL     OW13270   5.026   0.855   4.033
 4329SOL    HW113271   4.940   0.824   4.075
 4329SOL    HW213272   5.022   0.841   3.934
 4330SOL     OW13273   5.483   1.747   4.878
 4330SOL    HW113274   5.544   1.777   4.805
 4330SOL    HW213275   5.445   1.658   4.856
 4331SOL     OW13276   4.976   1.731   4.852
 4331SOL    HW113277   5.060   1.736   4.798
 4331SOL    HW213278   4.953   1.635   4.870
 4332SOL     OW13279   3.807   1.258   4.746
 4332SOL    HW113280   3.802   1.257   4.846
 4332SOL    HW213281   3.724   1.217   4.708
 4333SOL     OW13282   4.412   1.662   5.440
 4333SOL    HW113283   4.356   1.743   5.449
 4333SOL    HW213284   4.464   1.666   5.354
 4334SOL     OW13285   5.450   0.135   4.247
 4334SOL    HW113286   5.523   0.118   4.180
 4334SOL    HW213287   5.419   0.048   4.285
 4335SOL     OW13288   5.112   1.573   4.201
 4335SOL    HW113289   5.179   1.585   4.127
 4335SOL    HW213290   5.072   1.662   4.224
 4336SOL     OW13291   3.854   1.794   5.575
 4336SOL    HW113292   3.813   1.720   5.628
 4336SOL    HW213293   3.918   1.845   5.633
 4337SOL     OW13294   5.004   0.927   4.396
 4337SOL    HW113295   5.064   0.846   4.398
 4337SOL    HW213296   5.044   0.996   4.336
 4338SOL     OW13297   4.554   1.273   5.146
 4338SOL    HW113298   4.549   1.306   5.241
 4338SOL    HW213299   4.468   1.292   5.100
 4339SOL     OW13300   4.396   1.616   3.878
 4339SOL    HW113301   4.405   1.626   3.779
 4339SOL    HW213302   4.356   1.527   3.899
 4340SOL     OW13303   5.374   1.720   5.118
 4340SOL    HW113304   5.427   1.730   5.034
 4340SOL    HW213305   5.347   1.810   5.152
 4341SOL     OW13306   5.565   0.175   4.687
 4341SOL    HW113307   5.604   0.090   4.651
 4341SOL    HW213308   5.467   0.177   4.668
 4342SOL     OW13309   3.987   0.326   4.444
 4342SOL    HW113310   3.908   0.377   4.410
 4342SOL    HW213311   3.978   0.311   4.542
 4343SOL     OW13312   4.918   1.612   3.755
 4343SOL    HW113313   4.924   1.519   3.792
 4343SOL    HW213314   4.859   1.612   3.675
 4344SOL     OW13315   4.546   1.002   5.096
 4344SOL    HW113316   4.586   1.001   5.004
 4344SOL    HW213317   4.556   1.094   5.136
 4345SOL     OW13318   4.640   0.910   4.015
 4345SOL    HW113319   4.703   0.948   3.947
 4345SOL    HW213320   4.680   0.827   4.054
 4346SOL     OW13321   5.228   1.607   3.768
 4346SOL    HW113322   5.136   1.644   3.775
 4346SOL    HW213323   5.266   1.627   3.678
 4347SOL     OW13324   4.096   1.288   5.214
 4347SOL    HW113325   4.083   1.381   5.180
 4347SOL    HW213326   4.012   1.236   5.201
 4348SOL     OW13327   5.338   1.292   5.013
 4348SOL    HW113328   5.398   1.295   5.093
 4348SOL    HW213329   5.263   1.356   5.026
 4349SOL     OW13330   4.763   1.098   4.420
 4349SOL    HW113331   4.693   1.051   4.474
 4349SOL    HW213332   4.822   1.030   4.377
 4350SOL     OW13333   4.738   0.236   4.695
 4350SOL    HW113334   4.730   0.200   4.602
 4350SOL    HW213335   4.736   0.160   4.760
 4351SOL     OW13336   4.314   1.487   4.215
 4351SOL    HW113337   4.356   1.429   4.145
 4351SOL    HW213338   4.270   1.566   4.171
 4352SOL     OW13339   5.433   0.385   5.105
 4352SOL    HW113340   5.506   0.454   5.109
 4352SOL    HW213341   5.461   0.310   5.046
 4353SOL     OW13342   3.979   1.348   4.014
 4353SOL    HW113343   3.883   1.349   3.987
 4353SOL    HW213344   3.991   1.401   4.098
 4354SOL     OW13345   3.829   1.013   5.450
 4354SOL    HW113346   3.752   0.980   5.504
 4354SOL    HW213347   3.914   0.983   5.492
 4355SOL     OW13348   4.396   0.203   5.213
 4355SOL    HW113349   4.486   0.187   5.173
 4355SOL    HW213350   4.404   0.208   5.312
 4356SOL     OW13351   3.799   0.345   3.757
 4356SOL    HW113352   3.707   0.317   3.728
 4356SOL    HW213353   3.830   0.422   3.701
 4357SOL     OW13354   5.164   0.856   5.122
 4357SOL    HW113355   5.107   0.908   5.059
 4357SOL    HW213356   5.260   0.868   5.098
 4358SOL     OW13357   3.796   0.166   4.042
 4358SOL    HW113358   3.779   0.249   3.988
 4358SOL    HW213359   3.886   0.129   4.020
 4359SOL     OW13360   4.907   1.335   3.843
 4359SOL    HW113361   4.808   1.324   3.845
 4359SOL    HW213362   4.941   1.350   3.936
 4360SOL     OW13363   4.337   0.842   5.155
 4360SOL    HW113364   4.393   0.923   5.138
 4360SOL    HW213365   4.396   0.762   5.158
 4361SOL     OW13366   5.217   1.767   4.683
 4361SOL    HW113367   5.250   1.831   4.614
 4361SOL    HW213368   5.283   1.761   4.758
 4362SOL     OW13369   4.440   0.565   5.432
 4362SOL    HW113370   4.459   0.630   5.506
 4362SOL    HW213371   4.500   0.485   5.441
 4363SOL     OW13372   5.174   1.220   5.357
 4363SOL    HW113373   5.165   1.210   5.456
 4363SOL    HW213374   5.270   1.213   5.331
 4364SOL     OW13375   4.114   1.741   5.284
 4364SOL    HW113376   4.023   1.782   5.282
 4364SOL    HW213377   4.107   1.647   5.316
 4365SOL     OW13378   5.398   0.883   4.978
 4365SOL    HW113379   5.371   0.794   4.941
 4365SOL    HW213380   5.399   0.951   4.905
 4366SOL     OW13381   4.949   0.325   4.173
 4366SOL    HW113382   5.014   0.251   4.162
 4366SOL    HW213383   4.969   0.375   4.257
 4367SOL     OW13384   4.318   0.745   4.376
 4367SOL    HW113385   4.368   0.830   4.357
 4367SOL    HW213386   4.230   0.747   4.328
 4368SOL     OW13387   5.501   0.342   5.366
 4368SOL    HW113388   5.484   0.373   5.272
 4368SOL    HW213389   5.417   0.305   5.404
 4369SOL     OW13390   5.454   0.934   5.241
 4369SOL    HW113391   5.492   1.025   5.256
 4369SOL    HW213392   5.446   0.917   5.142
 4370SOL     OW13393   4.583   1.374   3.740
 4370SOL    HW113394   4.537   1.389   3.828
 4370SOL    HW213395   4.627   1.459   3.710
 4371SOL     OW13396   4.385   1.790   4.677
 4371SOL    HW113397   4.339   1.878   4.664
 4371SOL    HW213398   4.484   1.802   4.670
 4372SOL     OW13399   4.583   0.956   4.585
 4372SOL    HW113400   4.637   0.887   4.633
 4372SOL    HW213401   4.551   1.025   4.651
 4373SOL     OW13402   4.807   0.984   3.811
 4373SOL    HW113403   4.784   1.037   3.729
 4373SOL    HW213404   4.888   0.928   3.792
 4374SOL     OW13405   5.585   1.569   4.575
 4374SOL    HW113406   5.514   1.557   4.505
 4374SOL    HW213407   5.586   1.490   4.635
 4375SOL     OW13408   3.945   1.314   5.568
 4375SOL    HW113409   3.880   1.241   5.547
 4375SOL    HW213410   3.949   1.328   5.666
 4376SOL     OW13411   3.803   1.240   4.377
 4376SOL    HW113412   3.802   1.193   4.465
 4376SOL    HW213413   3.885   1.212   4.326
 4377SOL     OW13414   4.396   1.391   5.348
 4377SOL    HW113415   4.318   1.341   5.386
 4377SOL    HW213416   4.393   1.486   5.379
 4378SOL     OW13417   5.548   0.192   4.951
 4378SOL    HW113418   5.544   0.102   4.995
 4378SOL    HW213419   5.551   0.181   4.852
 4379SOL     OW13420   4.152   0.424   4.244
 4379SOL    HW113421   4.182   0.352   4.182
 4379SOL    HW213422   4.113   0.384   4.327
 4380SOL     OW13423   5.429   1.487   4.828
 4380SOL    HW113424   5.336   1.462   4.801
 4380SOL    HW213425   5.455   1.437   4.910
 4381SOL     OW13426   4.041   0.547   5.004
 4381SOL    HW113427   4.079   0.488   5.076
 4381SOL    HW213428   4.081   0.521   4.916
 4382SOL     OW13429   4.536   1.586   4.411
 4382SOL    HW113430   4.568   1.596   4.317
 4382SOL    HW213431   4.457   1.524   4.413
 4383SOL     OW13432   5.148   0.214   4.836
 4383SOL    HW113433   5.200   0.149   4.891
 4383SOL    HW213434   5.099   0.277   4.897
 4384SOL     OW13435   4.725   0.034   4.878
 4384SOL    HW113436   4.662  -0.038   4.847
 4384SOL    HW213437   4.818  -0.002   4.878
 4385SOL     OW13438   4.494   1.330   4.025
 4385SOL    HW113439   4.448   1.243   4.042
 4385SOL    HW213440   4.585   1.327   4.066
 4386SOL     OW13441   4.342   1.567   5.008
 4386SOL    HW113442   4.337   1.649   5.065
 4386SOL    HW213443   4.431   1.564   4.963
 4387SOL     OW13444   5.076   0.052   3.892
 4387SOL    HW113445   5.111   0.011   3.808
 4387SOL    HW213446   4.986   0.014   3.912
 4388SOL     OW13447   5.024   0.453   4.415
 4388SOL    HW113448   4.965   0.533   4.419
 4388SOL    HW213449   5.039   0.418   4.508
 4389SOL     OW13450   5.317   0.221   4.606
 4389SOL    HW113451   5.233   0.220   4.660
 4389SOL    HW213452   5.319   0.304   4.550
 4390SOL     OW13453   3.763   1.077   4.024
 4390SOL    HW113454   3.862   1.066   4.015
 4390SOL    HW213455   3.723   0.991   4.056
 4391SOL     OW13456   4.599   1.646   4.061
 4391SOL    HW113457   4.522   1.611   4.007
 4391SOL    HW213458   4.567   1.717   4.123
 4392SOL     OW13459   3.954   2.490   0.113
 4392SOL    HW113460   3.861   2.488   0.150
 4392SOL    HW213461   3.955   2.451   0.021
 4393SOL     OW13462   3.949   2.137   0.996
 4393SOL    HW113463   3.984   2.120   1.088
 4393SOL    HW213464   3.861   2.092   0.984
 4394SOL     OW13465   3.743   2.230   0.647
 4394SOL    HW113466   3.661   2.273   0.686
 4394SOL    HW213467   3.715   2.157   0.584
 4395SOL     OW13468   4.293   3.137   1.165
 4395SOL    HW113469   4.200   3.130   1.128
 4395SOL    HW213470   4.304   3.226   1.209
 4396SOL     OW13471   5.279   3.373   0.703
 4396SOL    HW113472   5.222   3.357   0.784
 4396SOL    HW213473   5.220   3.383   0.623
 4397SOL     OW13474   4.859   2.565   0.717
 4397SOL    HW113475   4.916   2.643   0.692
 4397SOL    HW213476   4.799   2.591   0.793
 4398SOL     OW13477   5.479   2.469   0.231
 4398SOL    HW113478   5.467   2.456   0.132
 4398SOL    HW213479   5.449   2.388   0.280
 4399SOL     OW13480   4.492   3.006   1.023
 4399SOL    HW113481   4.414   3.023   1.083
 4399SOL    HW213482   4.526   3.093   0.987
 4400SOL     OW13483   4.574   2.660   1.823
 4400SOL    HW113484   4.570   2.736   1.888
 4400SOL    HW213485   4.596   2.696   1.732
 4401SOL     OW13486   4.409   2.874   0.665
 4401SOL    HW113487   4.478   2.858   0.735
 4401SOL    HW213488   4.336   2.931   0.703
 4402SOL     OW13489   4.410   3.023   1.803
 4402SOL    HW113490   4.470   3.102   1.817
 4402SOL    HW213491   4.324   3.054   1.762
 4403SOL     OW13492   4.059   3.297   1.061
 4403SOL    HW113493   3.981   3.266   1.008
 4403SOL    HW213494   4.117   3.355   1.004
 4404SOL     OW13495   5.184   3.367   1.339
 4404SOL    HW113496   5.208   3.461   1.365
 4404SOL    HW213497   5.168   3.313   1.421
 4405SOL     OW13498   4.162   2.254   1.499
 4405SOL    HW113499   4.244   2.198   1.508
 4405SOL    HW213500   4.081   2.196   1.503
 4406SOL     OW13501   5.327   2.309   0.737
 4406SOL    HW113502   5.253   2.355   0.687
 4406SOL    HW213503   5.378   2.377   0.790
 4407SOL     OW13504   3.955   3.575   0.483
 4407SOL    HW113505   3.989   3.652   0.537
 4407SOL    HW213506   3.999   3.575   0.393
 4408SOL     OW13507   4.851   3.203   1.690
 4408SOL    HW113508   4.898   3.203   1.778
 4408SOL    HW213509   4.803   3.116   1.679
 4409SOL     OW13510   3.954   3.296   0.538
 4409SOL    HW113511   3.928   3.392   0.538
 4409SOL    HW213512   3.883   3.242   0.583
 4410SOL     OW13513   3.964   2.953   0.886
 4410SOL    HW113514   3.978   2.869   0.938
 4410SOL    HW213515   3.909   3.017   0.941
 4411SOL     OW13516   4.344   3.648   1.439
 4411SOL    HW113517   4.252   3.631   1.474
 4411SOL    HW213518   4.372   3.740   1.465
 4412SOL     OW13519   4.330   2.826   0.123
 4412SOL    HW113520   4.337   2.910   0.069
 4412SOL    HW213521   4.376   2.839   0.211
 4413SOL     OW13522   5.318   1.976   1.480
 4413SOL    HW113523   5.300   2.043   1.408
 4413SOL    HW213524   5.315   2.022   1.569
 4414SOL     OW13525   3.846   2.505   0.563
 4414SOL    HW113526   3.801   2.417   0.580
 4414SOL    HW213527   3.845   2.559   0.647
 4415SOL     OW13528   5.566   3.629   0.359
 4415SOL    HW113529   5.620   3.600   0.439
 4415SOL    HW213530   5.596   3.719   0.330
 4416SOL     OW13531   3.751   3.458   0.117
 4416SOL    HW113532   3.732   3.362   0.138
 4416SOL    HW213533   3.718   3.516   0.192
 4417SOL     OW13534   5.413   2.784   0.612
 4417SOL    HW113535   5.508   2.755   0.620
 4417SOL    HW213536   5.405   2.849   0.537
 4418SOL     OW13537   5.365   2.970   0.432
 4418SOL    HW113538   5.451   2.972   0.380
 4418SOL    HW213539   5.379   3.017   0.520
 4419SOL     OW13540   3.837   2.599   1.597
 4419SOL    HW113541   3.925   2.586   1.642
 4419SOL    HW213542   3.824   2.696   1.575
 4420SOL     OW13543   4.337   3.227   0.726
 4420SOL    HW113544   4.288   3.140   0.735
 4420SOL    HW213545   4.314   3.270   0.639
 4421SOL     OW13546   5.017   3.090   1.423
 4421SOL    HW113547   5.054   3.017   1.365
 4421SOL    HW213548   5.069   3.095   1.508
 4422SOL     OW13549   4.533   1.866   0.502
 4422SOL    HW113550   4.573   1.957   0.493
 4422SOL    HW213551   4.433   1.874   0.508
 4423SOL     OW13552   3.921   2.838   1.264
 4423SOL    HW113553   4.010   2.793   1.250
 4423SOL    HW213554   3.848   2.773   1.245
 4424SOL     OW13555   5.249   2.861   0.190
 4424SOL    HW113556   5.186   2.785   0.203
 4424SOL    HW213557   5.297   2.879   0.276
 4425SOL     OW13558   4.911   3.654   1.616
 4425SOL    HW113559   4.935   3.714   1.540
 4425SOL    HW213560   4.918   3.559   1.586
 4426SOL     OW13561   4.041   2.113   1.801
 4426SOL    HW113562   4.112   2.184   1.807
 4426SOL    HW213563   3.953   2.152   1.829
 4427SOL     OW13564   5.190   3.279   0.953
 4427SOL    HW113565   5.131   3.285   1.033
 4427SOL    HW213566   5.175   3.191   0.907
 4428SOL     OW13567   5.391   3.576   0.572
 4428SOL    HW113568   5.350   3.553   0.484
 4428SOL    HW213569   5.373   3.502   0.637
 4429SOL     OW13570   4.322   2.591   0.270
 4429SOL    HW113571   4.346   2.660   0.202
 4429SOL    HW213572   4.244   2.624   0.324
 4430SOL     OW13573   5.005   2.207   0.944
 4430SOL    HW113574   4.919   2.157   0.931
 4430SOL    HW213575   5.067   2.153   1.000
 4431SOL     OW13576   5.300   3.524   0.307
 4431SOL    HW113577   5.389   3.570   0.310
 4431SOL    HW213578   5.279   3.500   0.212
 4432SOL     OW13579   4.531   2.467   1.465
 4432SOL    HW113580   4.484   2.464   1.554
 4432SOL    HW213581   4.480   2.412   1.399
 4433SOL     OW13582   5.118   2.331   1.674
 4433SOL    HW113583   5.098   2.374   1.762
 4433SOL    HW213584   5.196   2.269   1.683
 4434SOL     OW13585   4.697   2.752   1.572
 4434SOL    HW113586   4.743   2.668   1.543
 4434SOL    HW213587   4.641   2.786   1.497
 4435SOL     OW13588   4.715   2.272   1.242
 4435SOL    HW113589   4.638   2.306   1.296
 4435SOL    HW213590   4.681   2.221   1.163
 4436SOL     OW13591   4.765   2.563   0.429
 4436SOL    HW113592   4.791   2.559   0.525
 4436SOL    HW213593   4.680   2.512   0.415
 4437SOL     OW13594   3.800   2.673   0.789
 4437SOL    HW113595   3.899   2.661   0.798
 4437SOL    HW213596   3.776   2.768   0.810
 4438SOL     OW13597   3.854   3.683   1.571
 4438SOL    HW113598   3.844   3.668   1.670
 4438SOL    HW213599   3.768   3.719   1.535
 4439SOL     OW13600   4.589   2.210   0.195
 4439SOL    HW113601   4.648   2.273   0.146
 4439SOL    HW213602   4.608   2.116   0.166
 4440SOL     OW13603   5.443   2.447   1.831
 4440SOL    HW113604   5.417   2.536   1.795
 4440SOL    HW213605   5.441   2.379   1.758
 4441SOL     OW13606   5.086   3.006   0.545
 4441SOL    HW113607   5.169   2.977   0.497
 4441SOL    HW213608   5.037   3.073   0.489
 4442SOL     OW13609   4.274   2.058   0.885
 4442SOL    HW113610   4.269   2.053   0.985
 4442SOL    HW213611   4.276   2.154   0.856
 4443SOL     OW13612   4.732   3.318   0.477
 4443SOL    HW113613   4.686   3.390   0.425
 4443SOL    HW213614   4.728   3.338   0.575
 4444SOL     OW13615   4.075   3.663   0.853
 4444SOL    HW113616   4.125   3.577   0.859
 4444SOL    HW213617   4.140   3.740   0.850
 4445SOL     OW13618   5.519   2.928   0.873
 4445SOL    HW113619   5.457   2.913   0.797
 4445SOL    HW213620   5.467   2.939   0.958
 4446SOL     OW13621   4.951   3.412   1.506
 4446SOL    HW113622   4.957   3.335   1.570
 4446SOL    HW213623   4.899   3.386   1.426
 4447SOL     OW13624   4.045   2.805   0.242
 4447SOL    HW113625   4.127   2.844   0.200
 4447SOL    HW213626   4.018   2.723   0.193
 4448SOL     OW13627   5.182   2.597   0.728
 4448SOL    HW113628   5.177   2.532   0.803
 4448SOL    HW213629   5.262   2.656   0.741
 4449SOL     OW13630   4.185   3.128   1.727
 4449SOL    HW113631   4.135   3.129   1.641
 4449SOL    HW213632   4.122   3.110   1.803
 4450SOL     OW13633   4.835   3.638   0.237
 4450SOL    HW113634   4.775   3.576   0.287
 4450SOL    HW213635   4.866   3.594   0.152
 4451SOL     OW13636   3.926   2.147   1.498
 4451SOL    HW113637   3.846   2.207   1.485
 4451SOL    HW213638   3.916   2.098   1.584
 4452SOL     OW13639   5.356   3.239   0.081
 4452SOL    HW113640   5.324   3.333   0.071
 4452SOL    HW213641   5.280   3.176   0.069
 4453SOL     OW13642   4.188   3.605   0.323
 4453SOL    HW113643   4.221   3.644   0.409
 4453SOL    HW213644   4.264   3.598   0.258
 4454SOL     OW13645   5.124   1.969   0.426
 4454SOL    HW113646   5.100   1.932   0.336
 4454SOL    HW213647   5.223   1.985   0.430
 4455SOL     OW13648   3.973   3.647   1.241
 4455SOL    HW113649   4.030   3.582   1.291
 4455SOL    HW213650   3.957   3.614   1.148
 4456SOL     OW13651   4.664   3.560   0.904
 4456SOL    HW113652   4.744   3.503   0.925
 4456SOL    HW213653   4.615   3.520   0.827
 4457SOL     OW13654   4.106   2.562   0.480
 4457SOL    HW113655   4.151   2.472   0.477
 4457SOL    HW213656   4.012   2.551   0.513
 4458SOL     OW13657   5.271   2.084   1.729
 4458SOL    HW113658   5.266   2.121   1.821
 4458SOL    HW213659   5.199   2.015   1.717
 4459SOL     OW13660   4.338   1.984   0.117
 4459SOL    HW113661   4.436   1.962   0.124
 4459SOL    HW213662   4.307   1.967   0.024
 4460SOL     OW13663   4.505   2.126   1.749
 4460SOL    HW113664   4.572   2.065   1.792
 4460SOL    HW213665   4.432   2.145   1.814
 4461SOL     OW13666   4.612   3.376   1.195
 4461SOL    HW113667   4.589   3.351   1.101
 4461SOL    HW213668   4.673   3.307   1.234
 4462SOL     OW13669   5.075   2.452   1.433
 4462SOL    HW113670   5.103   2.409   1.518
 4462SOL    HW213671   5.100   2.548   1.434
 4463SOL     OW13672   4.527   3.264   0.924
 4463SOL    HW113673   4.617   3.278   0.882
 4463SOL    HW213674   4.456   3.266   0.853
 4464SOL     OW13675   4.646   2.365   0.899
 4464SOL    HW113676   4.621   2.356   0.803
 4464SOL    HW213677   4.694   2.283   0.930
 4465SOL     OW13678   4.263   1.926   0.512
 4465SOL    HW113679   4.182   1.927   0.570
 4465SOL    HW213680   4.266   2.009   0.457
 4466SOL     OW13681   5.158   3.050   0.041
 4466SOL    HW113682   5.190   2.974   0.098
 4466SOL    HW213683   5.066   3.077   0.071
 4467SOL     OW13684   4.021   1.897   0.171
 4467SOL    HW113685   4.070   1.981   0.150
 4467SOL    HW213686   4.083   1.832   0.216
 4468SOL     OW13687   4.659   2.098   0.480
 4468SOL    HW113688   4.611   2.139   0.402
 4468SOL    HW213689   4.758   2.096   0.461
 4469SOL     OW13690   4.800   2.545   1.464
 4469SOL    HW113691   4.720   2.484   1.467
 4469SOL    HW213692   4.881   2.492   1.440
 4470SOL     OW13693   4.951   3.432   0.793
 4470SOL    HW113694   4.972   3.506   0.728
 4470SOL    HW213695   5.019   3.432   0.866
 4471SOL     OW13696   4.183   3.014   0.741
 4471SOL    HW113697   4.112   2.987   0.806
 4471SOL    HW213698   4.157   2.986   0.648
 4472SOL     OW13699   4.995   3.659   0.591
 4472SOL    HW113700   5.039   3.723   0.527
 4472SOL    HW213701   4.945   3.711   0.661
 4473SOL     OW13702   4.756   2.411   0.016
 4473SOL    HW113703   4.715   2.493  -0.023
 4473SOL    HW213704   4.820   2.437   0.089
 4474SOL     OW13705   3.802   2.418   1.386
 4474SOL    HW113706   3.894   2.417   1.345
 4474SOL    HW213707   3.796   2.492   1.453
 4475SOL     OW13708   4.285   2.084   1.147
 4475SOL    HW113709   4.323   2.000   1.184
 4475SOL    HW213710   4.197   2.103   1.191
 4476SOL     OW13711   4.590   2.316   0.642
 4476SOL    HW113712   4.558   2.388   0.580
 4476SOL    HW213713   4.614   2.235   0.589
 4477SOL     OW13714   4.741   1.901   0.753
 4477SOL    HW113715   4.669   1.906   0.684
 4477SOL    HW213716   4.717   1.832   0.822
 4478SOL     OW13717   5.153   3.035   0.867
 4478SOL    HW113718   5.098   2.951   0.860
 4478SOL    HW213719   5.179   3.064   0.775
 4479SOL     OW13720   5.190   2.452   0.992
 4479SOL    HW113721   5.160   2.357   0.999
 4479SOL    HW213722   5.263   2.468   1.058
 4480SOL     OW13723   5.581   2.695   0.377
 4480SOL    HW113724   5.623   2.631   0.441
 4480SOL    HW213725   5.543   2.644   0.299
 4481SOL     OW13726   4.212   3.247   0.174
 4481SOL    HW113727   4.125   3.232   0.221
 4481SOL    HW213728   4.195   3.273   0.079
 4482SOL     OW13729   5.388   3.142   0.657
 4482SOL    HW113730   5.487   3.150   0.671
 4482SOL    HW213731   5.343   3.226   0.688
 4483SOL     OW13732   5.114   2.437   0.078
 4483SOL    HW113733   5.060   2.416   0.159
 4483SOL    HW213734   5.205   2.396   0.087
 4484SOL     OW13735   4.251   2.118   0.328
 4484SOL    HW113736   4.278   2.059   0.253
 4484SOL    HW213737   4.251   2.213   0.297
 4485SOL     OW13738   5.478   3.085   1.588
 4485SOL    HW113739   5.569   3.046   1.575
 4485SOL    HW213740   5.486   3.181   1.612
 4486SOL     OW13741   4.788   3.209   1.340
 4486SOL    HW113742   4.708   3.186   1.395
 4486SOL    HW213743   4.871   3.183   1.389
 4487SOL     OW13744   5.316   3.491   1.625
 4487SOL    HW113745   5.343   3.525   1.535
 4487SOL    HW213746   5.395   3.453   1.671
 4488SOL     OW13747   4.835   3.057   1.100
 4488SOL    HW113748   4.795   3.101   1.181
 4488SOL    HW213749   4.794   3.094   1.017
 4489SOL     OW13750   5.362   2.961   1.079
 4489SOL    HW113751   5.367   3.042   1.138
 4489SOL    HW213752   5.276   2.963   1.028
 4490SOL     OW13753   4.639   1.951   1.402
 4490SOL    HW113754   4.664   1.931   1.307
 4490SOL    HW213755   4.711   2.007   1.444
 4491SOL     OW13756   4.704   2.978   1.719
 4491SOL    HW113757   4.605   2.984   1.729
 4491SOL    HW213758   4.727   2.898   1.663
 4492SOL     OW13759   4.429   2.912   0.368
 4492SOL    HW113760   4.415   2.919   0.467
 4492SOL    HW213761   4.513   2.861   0.350
 4493SOL     OW13762   4.134   2.675   1.251
 4493SOL    HW113763   4.220   2.687   1.301
 4493SOL    HW213764   4.092   2.588   1.278
 4494SOL     OW13765   4.998   2.248   1.262
 4494SOL    HW113766   5.019   2.322   1.326
 4494SOL    HW213767   4.909   2.265   1.219
 4495SOL     OW13768   3.788   3.426   1.331
 4495SOL    HW113769   3.742   3.508   1.297
 4495SOL    HW213770   3.886   3.445   1.340
 4496SOL     OW13771   4.091   2.962   0.501
 4496SOL    HW113772   4.084   3.045   0.445
 4496SOL    HW213773   4.095   2.882   0.441
 4497SOL     OW13774   4.290   2.399   0.865
 4497SOL    HW113775   4.302   2.465   0.791
 4497SOL    HW213776   4.336   2.433   0.948
 4498SOL     OW13777   4.976   3.210   0.388
 4498SOL    HW113778   5.026   3.287   0.428
 4498SOL    HW213779   4.881   3.212   0.420
 4499SOL     OW13780   4.996   3.307   1.142
 4499SOL    HW113781   5.043   3.320   1.229
 4499SOL    HW213782   4.930   3.233   1.151
 4500SOL     OW13783   5.306   2.501   0.472
 4500SOL    HW113784   5.275   2.562   0.545
 4500SOL    HW213785   5.356   2.553   0.403
 4501SOL     OW13786   4.078   3.372   1.329
 4501SOL    HW113787   4.057   3.328   1.242
 4501SOL    HW213788   4.175   3.398   1.332
 4502SOL     OW13789   4.126   2.613   1.598
 4502SOL    HW113790   4.194   2.668   1.551
 4502SOL    HW213791   4.166   2.525   1.625
 4503SOL     OW13792   5.311   2.641   1.670
 4503SOL    HW113793   5.219   2.679   1.665
 4503SOL    HW213794   5.371   2.688   1.605
 4504SOL     OW13795   4.737   1.967   1.770
 4504SOL    HW113796   4.743   2.052   1.718
 4504SOL    HW213797   4.769   1.891   1.713
 4505SOL     OW13798   4.228   1.912   1.740
 4505SOL    HW113799   4.186   1.855   1.670
 4505SOL    HW213800   4.162   1.981   1.772
 4506SOL     OW13801   4.297   2.732   1.029
 4506SOL    HW113802   4.341   2.821   1.020
 4506SOL    HW213803   4.234   2.732   1.106
 4507SOL     OW13804   5.084   2.724   1.045
 4507SOL    HW113805   5.009   2.724   0.979
 4507SOL    HW213806   5.121   2.632   1.054
 4508SOL     OW13807   4.933   2.387   0.275
 4508SOL    HW113808   4.946   2.303   0.329
 4508SOL    HW213809   4.904   2.461   0.335
 4509SOL     OW13810   4.031   2.075   1.231
 4509SOL    HW113811   4.008   2.112   1.321
 4509SOL    HW213812   4.001   1.980   1.225
 4510SOL     OW13813   3.761   3.172   1.282
 4510SOL    HW113814   3.814   3.123   1.350
 4510SOL    HW213815   3.783   3.270   1.287
 4511SOL     OW13816   4.456   2.496   1.064
 4511SOL    HW113817   4.515   2.470   0.988
 4511SOL    HW213818   4.428   2.592   1.053
 4512SOL     OW13819   5.452   2.797   1.854
 4512SOL    HW113820   5.406   2.790   1.765
 4512SOL    HW213821   5.390   2.841   1.920
 4513SOL     OW13822   4.031   1.925   0.618
 4513SOL    HW113823   4.020   2.019   0.651
 4513SOL    HW213824   4.026   1.862   0.695
 4514SOL     OW13825   5.346   2.229   0.374
 4514SOL    HW113826   5.348   2.153   0.438
 4514SOL    HW213827   5.298   2.306   0.414
 4515SOL     OW13828   4.747   2.628   0.966
 4515SOL    HW113829   4.762   2.649   1.062
 4515SOL    HW213830   4.717   2.533   0.957
 4516SOL     OW13831   4.704   3.435   1.700
 4516SOL    HW113832   4.684   3.479   1.612
 4516SOL    HW213833   4.743   3.344   1.684
 4517SOL     OW13834   5.583   3.380   1.605
 4517SOL    HW113835   5.597   3.407   1.510
 4517SOL    HW213836   5.666   3.402   1.658
 4518SOL     OW13837   4.074   2.760   1.804
 4518SOL    HW113838   4.150   2.804   1.852
 4518SOL    HW213839   4.109   2.713   1.722
 4519SOL     OW13840   5.264   2.136   0.125
 4519SOL    HW113841   5.203   2.061   0.148
 4519SOL    HW213842   5.286   2.188   0.208
 4520SOL     OW13843   5.027   2.700   0.042
 4520SOL    HW113844   5.061   2.607   0.057
 4520SOL    HW213845   5.045   2.727  -0.053
 4521SOL     OW13846   4.792   3.195   0.849
 4521SOL    HW113847   4.799   3.111   0.794
 4521SOL    HW213848   4.854   3.264   0.813
 4522SOL     OW13849   4.043   2.672   0.949
 4522SOL    HW113850   4.136   2.708   0.954
 4522SOL    HW213851   4.037   2.587   1.001
 4523SOL     OW13852   4.063   2.371   1.006
 4523SOL    HW113853   4.011   2.288   0.989
 4523SOL    HW213854   4.140   2.376   0.942
 4524SOL     OW13855   4.862   2.242   1.678
 4524SOL    HW113856   4.817   2.305   1.742
 4524SOL    HW213857   4.955   2.273   1.661
 4525SOL     OW13858   4.884   2.069   1.477
 4525SOL    HW113859   4.884   2.133   1.554
 4525SOL    HW213860   4.912   2.117   1.394
 4526SOL     OW13861   3.732   3.188   0.200
 4526SOL    HW113862   3.639   3.209   0.169
 4526SOL    HW213863   3.742   3.089   0.213
 4527SOL     OW13864   3.812   3.663   0.927
 4527SOL    HW113865   3.770   3.577   0.900
 4527SOL    HW213866   3.906   3.666   0.893
 4528SOL     OW13867   4.228   3.430   0.910
 4528SOL    HW113868   4.294   3.504   0.919
 4528SOL    HW213869   4.272   3.351   0.868
 4529SOL     OW13870   4.726   2.658   1.238
 4529SOL    HW113871   4.767   2.626   1.324
 4529SOL    HW213872   4.630   2.631   1.235
 4530SOL     OW13873   3.764   2.406   1.114
 4530SOL    HW113874   3.849   2.373   1.073
 4530SOL    HW213875   3.777   2.421   1.212
 4531SOL     OW13876   3.913   2.382   1.722
 4531SOL    HW113877   3.972   2.342   1.652
 4531SOL    HW213878   3.855   2.453   1.681
 4532SOL     OW13879   5.093   2.812   1.660
 4532SOL    HW113880   5.132   2.901   1.680
 4532SOL    HW213881   5.103   2.792   1.563
 4533SOL     OW13882   4.539   2.434   0.325
 4533SOL    HW113883   4.546   2.345   0.279
 4533SOL    HW213884   4.445   2.468   0.317
 4534SOL     OW13885   5.381   2.466   1.206
 4534SOL    HW113886   5.343   2.397   1.268
 4534SOL    HW213887   5.463   2.430   1.162
 4535SOL     OW13888   3.976   3.426   1.744
 4535SOL    HW113889   3.946   3.483   1.820
 4535SOL    HW213890   3.969   3.329   1.770
 4536SOL     OW13891   4.395   2.326   1.269
 4536SOL    HW113892   4.361   2.237   1.239
 4536SOL    HW213893   4.421   2.380   1.189
 4537SOL     OW13894   4.654   3.540   1.465
 4537SOL    HW113895   4.630   3.522   1.370
 4537SOL    HW213896   4.684   3.634   1.475
 4538SOL     OW13897   4.197   2.362   0.191
 4538SOL    HW113898   4.258   2.442   0.195
 4538SOL    HW213899   4.102   2.393   0.198
 4539SOL     OW13900   3.883   2.999   1.466
 4539SOL    HW113901   3.905   2.938   1.542
 4539SOL    HW213902   3.893   2.950   1.380
 4540SOL     OW13903   5.071   2.921   1.234
 4540SOL    HW113904   5.095   2.858   1.160
 4540SOL    HW213905   4.981   2.961   1.216
 4541SOL     OW13906   5.026   2.717   0.309
 4541SOL    HW113907   4.940   2.686   0.351
 4541SOL    HW213908   5.022   2.703   0.210
 4542SOL     OW13909   5.483   3.609   1.154
 4542SOL    HW113910   5.544   3.639   1.081
 4542SOL    HW213911   5.445   3.520   1.132
 4543SOL     OW13912   4.976   3.593   1.128
 4543SOL    HW113913   5.060   3.598   1.074
 4543SOL    HW213914   4.953   3.497   1.146
 4544SOL     OW13915   3.807   3.120   1.022
 4544SOL    HW113916   3.802   3.119   1.122
 4544SOL    HW213917   3.724   3.079   0.984
 4545SOL     OW13918   4.412   3.524   1.716
 4545SOL    HW113919   4.356   3.605   1.725
 4545SOL    HW213920   4.464   3.528   1.630
 4546SOL     OW13921   4.627   1.948   0.133
 4546SOL    HW113922   4.678   1.949   0.047
 4546SOL    HW213923   4.683   1.906   0.204
 4547SOL     OW13924   5.450   1.997   0.523
 4547SOL    HW113925   5.523   1.980   0.456
 4547SOL    HW213926   5.419   1.910   0.561
 4548SOL     OW13927   5.112   3.435   0.477
 4548SOL    HW113928   5.179   3.447   0.403
 4548SOL    HW213929   5.072   3.524   0.500
 4549SOL     OW13930   3.854   3.656   1.851
 4549SOL    HW113931   3.813   3.582   1.904
 4549SOL    HW213932   3.918   3.707   1.909
 4550SOL     OW13933   5.004   2.789   0.672
 4550SOL    HW113934   5.064   2.708   0.674
 4550SOL    HW213935   5.044   2.858   0.612
 4551SOL     OW13936   4.554   3.135   1.422
 4551SOL    HW113937   4.549   3.168   1.517
 4551SOL    HW213938   4.468   3.154   1.376
 4552SOL     OW13939   4.396   3.478   0.154
 4552SOL    HW113940   4.405   3.488   0.055
 4552SOL    HW213941   4.356   3.389   0.175
 4553SOL     OW13942   5.374   3.582   1.394
 4553SOL    HW113943   5.427   3.592   1.310
 4553SOL    HW213944   5.347   3.672   1.428
 4554SOL     OW13945   5.565   2.037   0.963
 4554SOL    HW113946   5.604   1.952   0.927
 4554SOL    HW213947   5.467   2.039   0.944
 4555SOL     OW13948   3.987   2.188   0.720
 4555SOL    HW113949   3.908   2.239   0.686
 4555SOL    HW213950   3.978   2.173   0.818
 4556SOL     OW13951   4.918   3.474   0.031
 4556SOL    HW113952   4.924   3.381   0.068
 4556SOL    HW213953   4.859   3.474  -0.049
 4557SOL     OW13954   4.546   2.864   1.372
 4557SOL    HW113955   4.586   2.863   1.280
 4557SOL    HW213956   4.556   2.956   1.412
 4558SOL     OW13957   4.640   2.772   0.291
 4558SOL    HW113958   4.703   2.810   0.223
 4558SOL    HW213959   4.680   2.689   0.330
 4559SOL     OW13960   5.228   3.469   0.044
 4559SOL    HW113961   5.136   3.506   0.051
 4559SOL    HW213962   5.266   3.489  -0.046
 4560SOL     OW13963   4.096   3.150   1.490
 4560SOL    HW113964   4.083   3.243   1.456
 4560SOL    HW213965   4.012   3.098   1.477
 4561SOL     OW13966   5.338   3.154   1.289
 4561SOL    HW113967   5.398   3.157   1.369
 4561SOL    HW213968   5.263   3.218   1.302
 4562SOL     OW13969   4.763   2.960   0.696
 4562SOL    HW113970   4.693   2.913   0.750
 4562SOL    HW213971   4.822   2.892   0.653
 4563SOL     OW13972   4.738   2.098   0.971
 4563SOL    HW113973   4.730   2.062   0.878
 4563SOL    HW213974   4.736   2.022   1.036
 4564SOL     OW13975   4.314   3.349   0.491
 4564SOL    HW113976   4.356   3.291   0.421
 4564SOL    HW213977   4.270   3.428   0.447
 4565SOL     OW13978   5.433   2.247   1.381
 4565SOL    HW113979   5.506   2.316   1.385
 4565SOL    HW213980   5.461   2.172   1.322
 4566SOL     OW13981   3.979   3.210   0.290
 4566SOL    HW113982   3.883   3.211   0.263
 4566SOL    HW213983   3.991   3.263   0.374
 4567SOL     OW13984   3.829   2.875   1.726
 4567SOL    HW113985   3.752   2.842   1.780
 4567SOL    HW213986   3.914   2.845   1.768
 4568SOL     OW13987   4.396   2.065   1.489
 4568SOL    HW113988   4.486   2.049   1.449
 4568SOL    HW213989   4.404   2.070   1.588
 4569SOL     OW13990   3.799   2.207   0.033
 4569SOL    HW113991   3.707   2.179   0.004
 4569SOL    HW213992   3.830   2.284  -0.023
 4570SOL     OW13993   5.164   2.718   1.398
 4570SOL    HW113994   5.107   2.770   1.335
 4570SOL    HW213995   5.260   2.730   1.374
 4571SOL     OW13996   3.796   2.028   0.318
 4571SOL    HW113997   3.779   2.111   0.264
 4571SOL    HW213998   3.886   1.991   0.296
 4572SOL     OW13999   4.907   3.197   0.119
 4572SOL    HW114000   4.808   3.186   0.121
 4572SOL    HW214001   4.941   3.212   0.212
 4573SOL     OW14002   4.337   2.704   1.431
 4573SOL    HW114003   4.393   2.785   1.414
 4573SOL    HW214004   4.396   2.624   1.434
 4574SOL     OW14005   5.217   3.629   0.959
 4574SOL    HW114006   5.250   3.693   0.890
 4574SOL    HW214007   5.283   3.623   1.034
 4575SOL     OW14008   4.440   2.427   1.708
 4575SOL    HW114009   4.459   2.492   1.782
 4575SOL    HW214010   4.500   2.347   1.717
 4576SOL     OW14011   5.174   3.082   1.633
 4576SOL    HW114012   5.165   3.072   1.732
 4576SOL    HW214013   5.270   3.075   1.607
 4577SOL     OW14014   4.114   3.603   1.560
 4577SOL    HW114015   4.023   3.644   1.558
 4577SOL    HW214016   4.107   3.509   1.592
 4578SOL     OW14017   5.398   2.745   1.254
 4578SOL    HW114018   5.371   2.656   1.217
 4578SOL    HW214019   5.399   2.813   1.181
 4579SOL     OW14020   4.949   2.187   0.449
 4579SOL    HW114021   5.014   2.113   0.438
 4579SOL    HW214022   4.969   2.237   0.533
 4580SOL     OW14023   4.318   2.607   0.652
 4580SOL    HW114024   4.368   2.692   0.633
 4580SOL    HW214025   4.230   2.609   0.604
 4581SOL     OW14026   5.501   2.204   1.642
 4581SOL    HW114027   5.484   2.235   1.548
 4581SOL    HW214028   5.417   2.167   1.680
 4582SOL     OW14029   5.454   2.796   1.517
 4582SOL    HW114030   5.492   2.887   1.532
 4582SOL    HW214031   5.446   2.779   1.418
 4583SOL     OW14032   4.583   3.236   0.016
 4583SOL    HW114033   4.537   3.251   0.104
 4583SOL    HW214034   4.627   3.321  -0.014
 4584SOL     OW14035   4.385   3.652   0.953
 4584SOL    HW114036   4.339   3.740   0.940
 4584SOL    HW214037   4.484   3.664   0.946
 4585SOL     OW14038   4.583   2.818   0.861
 4585SOL    HW114039   4.637   2.749   0.909
 4585SOL    HW214040   4.551   2.887   0.927
 4586SOL     OW14041   4.807   2.846   0.087
 4586SOL    HW114042   4.784   2.899   0.005
 4586SOL    HW214043   4.888   2.790   0.068
 4587SOL     OW14044   5.585   3.431   0.851
 4587SOL    HW114045   5.514   3.419   0.781
 4587SOL    HW214046   5.586   3.352   0.911
 4588SOL     OW14047   3.945   3.176   1.844
 4588SOL    HW114048   3.880   3.103   1.823
 4588SOL    HW214049   3.949   3.190   1.942
 4589SOL     OW14050   3.803   3.102   0.653
 4589SOL    HW114051   3.802   3.055   0.741
 4589SOL    HW214052   3.885   3.074   0.602
 4590SOL     OW14053   4.396   3.253   1.624
 4590SOL    HW114054   4.318   3.203   1.662
 4590SOL    HW214055   4.393   3.348   1.655
 4591SOL     OW14056   5.548   2.054   1.227
 4591SOL    HW114057   5.544   1.964   1.271
 4591SOL    HW214058   5.551   2.043   1.128
 4592SOL     OW14059   4.152   2.286   0.520
 4592SOL    HW114060   4.182   2.214   0.458
 4592SOL    HW214061   4.113   2.246   0.603
 4593SOL     OW14062   5.429   3.349   1.104
 4593SOL    HW114063   5.336   3.324   1.077
 4593SOL    HW214064   5.455   3.299   1.186
 4594SOL     OW14065   4.041   2.409   1.280
 4594SOL    HW114066   4.079   2.350   1.352
 4594SOL    HW214067   4.081   2.383   1.192
 4595SOL     OW14068   4.536   3.448   0.687
 4595SOL    HW114069   4.568   3.458   0.593
 4595SOL    HW214070   4.457   3.386   0.689
 4596SOL     OW14071   5.148   2.076   1.112
 4596SOL    HW114072   5.200   2.011   1.167
 4596SOL    HW214073   5.099   2.139   1.173
 4597SOL     OW14074   4.725   1.896   1.154
 4597SOL    HW114075   4.662   1.824   1.123
 4597SOL    HW214076   4.818   1.860   1.154
 4598SOL     OW14077   4.494   3.192   0.301
 4598SOL    HW114078   4.448   3.105   0.318
 4598SOL    HW214079   4.585   3.189   0.342
 4599SOL     OW14080   4.342   3.429   1.284
 4599SOL    HW114081   4.337   3.511   1.341
 4599SOL    HW214082   4.431   3.426   1.239
 4600SOL     OW14083   5.076   1.914   0.168
 4600SOL    HW114084   5.111   1.873   0.084
 4600SOL    HW214085   4.986   1.876   0.188
 4601SOL     OW14086   5.024   2.315   0.691
 4601SOL    HW114087   4.965   2.395   0.695
 4601SOL    HW214088   5.039   2.280   0.784
 4602SOL     OW14089   5.317   2.083   0.882
 4602SOL    HW114090   5.233   2.082   0.936
 4602SOL    HW214091   5.319   2.166   0.826
 4603SOL     OW14092   3.763   2.939   0.300
 4603SOL    HW114093   3.862   2.928   0.291
 4603SOL    HW214094   3.723   2.853   0.332
 4604SOL     OW14095   4.599   3.508   0.337
 4604SOL    HW114096   4.522   3.473   0.283
 4604SOL    HW214097   4.567   3.579   0.399
 4605SOL     OW14098   3.954   2.490   1.975
 4605SOL    HW114099   3.861   2.488   2.012
 4605SOL    HW214100   3.955   2.451   1.883
 4606SOL     OW14101   3.949   2.137   2.858
 4606SOL    HW114102   3.984   2.120   2.950
 4606SOL    HW214103   3.861   2.092   2.846
 4607SOL     OW14104   3.743   2.230   2.509
 4607SOL    HW114105   3.661   2.273   2.548
 4607SOL    HW214106   3.715   2.157   2.446
 4608SOL     OW14107   4.293   3.137   3.027
 4608SOL    HW114108   4.200   3.130   2.990
 4608SOL    HW214109   4.304   3.226   3.071
 4609SOL     OW14110   5.279   3.373   2.565
 4609SOL    HW114111   5.222   3.357   2.646
 4609SOL    HW214112   5.220   3.383   2.485
 4610SOL     OW14113   4.859   2.565   2.579
 4610SOL    HW114114   4.916   2.643   2.554
 4610SOL    HW214115   4.799   2.591   2.655
 4611SOL     OW14116   5.479   2.469   2.093
 4611SOL    HW114117   5.467   2.456   1.994
 4611SOL    HW214118   5.449   2.388   2.142
 4612SOL     OW14119   4.492   3.006   2.885
 4612SOL    HW114120   4.414   3.023   2.945
 4612SOL    HW214121   4.526   3.093   2.849
 4613SOL     OW14122   4.574   2.660   3.685
 4613SOL    HW114123   4.570   2.736   3.750
 4613SOL    HW214124   4.596   2.696   3.594
 4614SOL     OW14125   4.409   2.874   2.527
 4614SOL    HW114126   4.478   2.858   2.597
 4614SOL    HW214127   4.336   2.931   2.565
 4615SOL     OW14128   4.410   3.023   3.665
 4615SOL    HW114129   4.470   3.102   3.679
 4615SOL    HW214130   4.324   3.054   3.624
 4616SOL     OW14131   4.059   3.297   2.923
 4616SOL    HW114132   3.981   3.266   2.870
 4616SOL    HW214133   4.117   3.355   2.866
 4617SOL     OW14134   5.184   3.367   3.201
 4617SOL    HW114135   5.208   3.461   3.227
 4617SOL    HW214136   5.168   3.313   3.283
 4618SOL     OW14137   4.162   2.254   3.361
 4618SOL    HW114138   4.244   2.198   3.370
 4618SOL    HW214139   4.081   2.196   3.365
 4619SOL     OW14140   5.327   2.309   2.599
 4619SOL    HW114141   5.253   2.355   2.549
 4619SOL    HW214142   5.378   2.377   2.652
 4620SOL     OW14143   3.955   3.575   2.345
 4620SOL    HW114144   3.989   3.652   2.399
 4620SOL    HW214145   3.999   3.575   2.255
 4621SOL     OW14146   4.851   3.203   3.552
 4621SOL    HW114147   4.898   3.203   3.640
 4621SOL    HW214148   4.803   3.116   3.541
 4622SOL     OW14149   3.954   3.296   2.400
 4622SOL    HW114150   3.928   3.392   2.400
 4622SOL    HW214151   3.883   3.242   2.445
 4623SOL     OW14152   3.964   2.953   2.748
 4623SOL    HW114153   3.978   2.869   2.800
 4623SOL    HW214154   3.909   3.017   2.803
 4624SOL     OW14155   4.344   3.648   3.301
 4624SOL    HW114156   4.252   3.631   3.336
 4624SOL    HW214157   4.372   3.740   3.327
 4625SOL     OW14158   4.330   2.826   1.985
 4625SOL    HW114159   4.337   2.910   1.931
 4625SOL    HW214160   4.376   2.839   2.073
 4626SOL     OW14161   5.318   1.976   3.342
 4626SOL    HW114162   5.300   2.043   3.270
 4626SOL    HW214163   5.315   2.022   3.431
 4627SOL     OW14164   3.846   2.505   2.425
 4627SOL    HW114165   3.801   2.417   2.442
 4627SOL    HW214166   3.845   2.559   2.509
 4628SOL     OW14167   5.566   3.629   2.221
 4628SOL    HW114168   5.620   3.600   2.301
 4628SOL    HW214169   5.596   3.719   2.192
 4629SOL     OW14170   3.751   3.458   1.979
 4629SOL    HW114171   3.732   3.362   2.000
 4629SOL    HW214172   3.718   3.516   2.054
 4630SOL     OW14173   5.413   2.784   2.474
 4630SOL    HW114174   5.508   2.755   2.482
 4630SOL    HW214175   5.405   2.849   2.399
 4631SOL     OW14176   5.365   2.970   2.294
 4631SOL    HW114177   5.451   2.972   2.242
 4631SOL    HW214178   5.379   3.017   2.382
 4632SOL     OW14179   3.837   2.599   3.459
 4632SOL    HW114180   3.925   2.586   3.504
 4632SOL    HW214181   3.824   2.696   3.437
 4633SOL     OW14182   4.337   3.227   2.588
 4633SOL    HW114183   4.288   3.140   2.597
 4633SOL    HW214184   4.314   3.270   2.501
 4634SOL     OW14185   5.017   3.090   3.285
 4634SOL    HW114186   5.054   3.017   3.227
 4634SOL    HW214187   5.069   3.095   3.370
 4635SOL     OW14188   4.533   1.866   2.364
 4635SOL    HW114189   4.573   1.957   2.355
 4635SOL    HW214190   4.433   1.874   2.370
 4636SOL     OW14191   3.921   2.838   3.126
 4636SOL    HW114192   4.010   2.793   3.112
 4636SOL    HW214193   3.848   2.773   3.107
 4637SOL     OW14194   5.249   2.861   2.052
 4637SOL    HW114195   5.186   2.785   2.065
 4637SOL    HW214196   5.297   2.879   2.138
 4638SOL     OW14197   4.911   3.654   3.478
 4638SOL    HW114198   4.935   3.714   3.402
 4638SOL    HW214199   4.918   3.559   3.448
 4639SOL     OW14200   4.041   2.113   3.663
 4639SOL    HW114201   4.112   2.184   3.669
 4639SOL    HW214202   3.953   2.152   3.691
 4640SOL     OW14203   5.190   3.279   2.815
 4640SOL    HW114204   5.131   3.285   2.895
 4640SOL    HW214205   5.175   3.191   2.769
 4641SOL     OW14206   5.391   3.576   2.434
 4641SOL    HW114207   5.350   3.553   2.346
 4641SOL    HW214208   5.373   3.502   2.499
 4642SOL     OW14209   4.322   2.591   2.132
 4642SOL    HW114210   4.346   2.660   2.064
 4642SOL    HW214211   4.244   2.624   2.186
 4643SOL     OW14212   5.005   2.207   2.806
 4643SOL    HW114213   4.919   2.157   2.793
 4643SOL    HW214214   5.067   2.153   2.862
 4644SOL     OW14215   5.300   3.524   2.169
 4644SOL    HW114216   5.389   3.570   2.172
 4644SOL    HW214217   5.279   3.500   2.074
 4645SOL     OW14218   4.531   2.467   3.327
 4645SOL    HW114219   4.484   2.464   3.416
 4645SOL    HW214220   4.480   2.412   3.261
 4646SOL     OW14221   5.118   2.331   3.536
 4646SOL    HW114222   5.098   2.374   3.624
 4646SOL    HW214223   5.196   2.269   3.545
 4647SOL     OW14224   4.697   2.752   3.434
 4647SOL    HW114225   4.743   2.668   3.405
 4647SOL    HW214226   4.641   2.786   3.359
 4648SOL     OW14227   4.715   2.272   3.104
 4648SOL    HW114228   4.638   2.306   3.158
 4648SOL    HW214229   4.681   2.221   3.025
 4649SOL     OW14230   4.765   2.563   2.291
 4649SOL    HW114231   4.791   2.559   2.387
 4649SOL    HW214232   4.680   2.512   2.277
 4650SOL     OW14233   3.800   2.673   2.651
 4650SOL    HW114234   3.899   2.661   2.660
 4650SOL    HW214235   3.776   2.768   2.672
 4651SOL     OW14236   3.854   3.683   3.433
 4651SOL    HW114237   3.844   3.668   3.532
 4651SOL    HW214238   3.768   3.719   3.397
 4652SOL     OW14239   4.589   2.210   2.057
 4652SOL    HW114240   4.648   2.273   2.008
 4652SOL    HW214241   4.608   2.116   2.028
 4653SOL     OW14242   5.443   2.447   3.693
 4653SOL    HW114243   5.417   2.536   3.657
 4653SOL    HW214244   5.441   2.379   3.620
 4654SOL     OW14245   5.086   3.006   2.407
 4654SOL    HW114246   5.169   2.977   2.359
 4654SOL    HW214247   5.037   3.073   2.351
 4655SOL     OW14248   4.274   2.058   2.747
 4655SOL    HW114249   4.269   2.053   2.847
 4655SOL    HW214250   4.276   2.154   2.718
 4656SOL     OW14251   4.732   3.318   2.339
 4656SOL    HW114252   4.686   3.390   2.287
 4656SOL    HW214253   4.728   3.338   2.437
 4657SOL     OW14254   4.075   3.663   2.715
 4657SOL    HW114255   4.125   3.577   2.721
 4657SOL    HW214256   4.140   3.740   2.712
 4658SOL     OW14257   5.519   2.928   2.735
 4658SOL    HW114258   5.457   2.913   2.659
 4658SOL    HW214259   5.467   2.939   2.820
 4659SOL     OW14260   4.951   3.412   3.368
 4659SOL    HW114261   4.957   3.335   3.432
 4659SOL    HW214262   4.899   3.386   3.288
 4660SOL     OW14263   4.045   2.805   2.104
 4660SOL    HW114264   4.127   2.844   2.062
 4660SOL    HW214265   4.018   2.723   2.055
 4661SOL     OW14266   5.182   2.597   2.590
 4661SOL    HW114267   5.177   2.532   2.665
 4661SOL    HW214268   5.262   2.656   2.603
 4662SOL     OW14269   4.185   3.128   3.589
 4662SOL    HW114270   4.135   3.129   3.503
 4662SOL    HW214271   4.122   3.110   3.665
 4663SOL     OW14272   4.835   3.638   2.099
 4663SOL    HW114273   4.775   3.576   2.149
 4663SOL    HW214274   4.866   3.594   2.014
 4664SOL     OW14275   3.926   2.147   3.360
 4664SOL    HW114276   3.846   2.207   3.347
 4664SOL    HW214277   3.916   2.098   3.446
 4665SOL     OW14278   5.356   3.239   1.943
 4665SOL    HW114279   5.324   3.333   1.933
 4665SOL    HW214280   5.280   3.176   1.931
 4666SOL     OW14281   4.188   3.605   2.185
 4666SOL    HW114282   4.221   3.644   2.271
 4666SOL    HW214283   4.264   3.598   2.120
 4667SOL     OW14284   5.124   1.969   2.288
 4667SOL    HW114285   5.100   1.932   2.198
 4667SOL    HW214286   5.223   1.985   2.292
 4668SOL     OW14287   3.973   3.647   3.103
 4668SOL    HW114288   4.030   3.582   3.153
 4668SOL    HW214289   3.957   3.614   3.010
 4669SOL     OW14290   4.664   3.560   2.766
 4669SOL    HW114291   4.744   3.503   2.787
 4669SOL    HW214292   4.615   3.520   2.689
 4670SOL     OW14293   4.106   2.562   2.342
 4670SOL    HW114294   4.151   2.472   2.339
 4670SOL    HW214295   4.012   2.551   2.375
 4671SOL     OW14296   5.271   2.084   3.591
 4671SOL    HW114297   5.266   2.121   3.683
 4671SOL    HW214298   5.199   2.015   3.579
 4672SOL     OW14299   4.338   1.984   1.979
 4672SOL    HW114300   4.436   1.962   1.986
 4672SOL    HW214301   4.307   1.967   1.886
 4673SOL     OW14302   4.505   2.126   3.611
 4673SOL    HW114303   4.572   2.065   3.654
 4673SOL    HW214304   4.432   2.145   3.676
 4674SOL     OW14305   4.612   3.376   3.057
 4674SOL    HW114306   4.589   3.351   2.963
 4674SOL    HW214307   4.673   3.307   3.096
 4675SOL     OW14308   5.075   2.452   3.295
 4675SOL    HW114309   5.103   2.409   3.380
 4675SOL    HW214310   5.100   2.548   3.296
 4676SOL     OW14311   4.527   3.264   2.786
 4676SOL    HW114312   4.617   3.278   2.744
 4676SOL    HW214313   4.456   3.266   2.715
 4677SOL     OW14314   4.646   2.365   2.761
 4677SOL    HW114315   4.621   2.356   2.665
 4677SOL    HW214316   4.694   2.283   2.792
 4678SOL     OW14317   4.263   1.926   2.374
 4678SOL    HW114318   4.182   1.927   2.432
 4678SOL    HW214319   4.266   2.009   2.319
 4679SOL     OW14320   5.158   3.050   1.903
 4679SOL    HW114321   5.190   2.974   1.960
 4679SOL    HW214322   5.066   3.077   1.933
 4680SOL     OW14323   4.021   1.897   2.033
 4680SOL    HW114324   4.070   1.981   2.012
 4680SOL    HW214325   4.083   1.832   2.078
 4681SOL     OW14326   4.659   2.098   2.342
 4681SOL    HW114327   4.611   2.139   2.264
 4681SOL    HW214328   4.758   2.096   2.323
 4682SOL     OW14329   4.800   2.545   3.326
 4682SOL    HW114330   4.720   2.484   3.329
 4682SOL    HW214331   4.881   2.492   3.302
 4683SOL     OW14332   4.951   3.432   2.655
 4683SOL    HW114333   4.972   3.506   2.590
 4683SOL    HW214334   5.019   3.432   2.728
 4684SOL     OW14335   4.183   3.014   2.603
 4684SOL    HW114336   4.112   2.987   2.668
 4684SOL    HW214337   4.157   2.986   2.510
 4685SOL     OW14338   4.995   3.659   2.453
 4685SOL    HW114339   5.039   3.723   2.389
 4685SOL    HW214340   4.945   3.711   2.523
 4686SOL     OW14341   4.756   2.411   1.878
 4686SOL    HW114342   4.715   2.493   1.839
 4686SOL    HW214343   4.820   2.437   1.951
 4687SOL     OW14344   3.802   2.418   3.248
 4687SOL    HW114345   3.894   2.417   3.207
 4687SOL    HW214346   3.796   2.492   3.315
 4688SOL     OW14347   4.285   2.084   3.009
 4688SOL    HW114348   4.323   2.000   3.046
 4688SOL    HW214349   4.197   2.103   3.053
 4689SOL     OW14350   4.590   2.316   2.504
 4689SOL    HW114351   4.558   2.388   2.442
 4689SOL    HW214352   4.614   2.235   2.451
 4690SOL     OW14353   4.741   1.901   2.615
 4690SOL    HW114354   4.669   1.906   2.546
 4690SOL    HW214355   4.717   1.832   2.684
 4691SOL     OW14356   5.153   3.035   2.729
 4691SOL    HW114357   5.098   2.951   2.722
 4691SOL    HW214358   5.179   3.064   2.637
 4692SOL     OW14359   5.190   2.452   2.854
 4692SOL    HW114360   5.160   2.357   2.861
 4692SOL    HW214361   5.263   2.468   2.920
 4693SOL     OW14362   5.581   2.695   2.239
 4693SOL    HW114363   5.623   2.631   2.303
 4693SOL    HW214364   5.543   2.644   2.161
 4694SOL     OW14365   4.212   3.247   2.036
 4694SOL    HW114366   4.125   3.232   2.083
 4694SOL    HW214367   4.195   3.273   1.941
 4695SOL     OW14368   5.388   3.142   2.519
 4695SOL    HW114369   5.487   3.150   2.533
 4695SOL    HW214370   5.343   3.226   2.550
 4696SOL     OW14371   5.114   2.437   1.940
 4696SOL    HW114372   5.060   2.416   2.021
 4696SOL    HW214373   5.205   2.396   1.949
 4697SOL     OW14374   4.251   2.118   2.190
 4697SOL    HW114375   4.278   2.059   2.115
 4697SOL    HW214376   4.251   2.213   2.159
 4698SOL     OW14377   5.478   3.085   3.450
 4698SOL    HW114378   5.569   3.046   3.437
 4698SOL    HW214379   5.486   3.181   3.474
 4699SOL     OW14380   4.788   3.209   3.202
 4699SOL    HW114381   4.708   3.186   3.257
 4699SOL    HW214382   4.871   3.183   3.251
 4700SOL     OW14383   5.316   3.491   3.487
 4700SOL    HW114384   5.343   3.525   3.397
 4700SOL    HW214385   5.395   3.453   3.533
 4701SOL     OW14386   4.835   3.057   2.962
 4701SOL    HW114387   4.795   3.101   3.043
 4701SOL    HW214388   4.794   3.094   2.879
 4702SOL     OW14389   5.362   2.961   2.941
 4702SOL    HW114390   5.367   3.042   3.000
 4702SOL    HW214391   5.276   2.963   2.890
 4703SOL     OW14392   4.639   1.951   3.264
 4703SOL    HW114393   4.664   1.931   3.169
 4703SOL    HW214394   4.711   2.007   3.306
 4704SOL     OW14395   4.704   2.978   3.581
 4704SOL    HW114396   4.605   2.984   3.591
 4704SOL    HW214397   4.727   2.898   3.525
 4705SOL     OW14398   4.429   2.912   2.230
 4705SOL    HW114399   4.415   2.919   2.329
 4705SOL    HW214400   4.513   2.861   2.212
 4706SOL     OW14401   4.134   2.675   3.113
 4706SOL    HW114402   4.220   2.687   3.163
 4706SOL    HW214403   4.092   2.588   3.140
 4707SOL     OW14404   4.998   2.248   3.124
 4707SOL    HW114405   5.019   2.322   3.188
 4707SOL    HW214406   4.909   2.265   3.081
 4708SOL     OW14407   3.788   3.426   3.193
 4708SOL    HW114408   3.742   3.508   3.159
 4708SOL    HW214409   3.886   3.445   3.202
 4709SOL     OW14410   4.091   2.962   2.363
 4709SOL    HW114411   4.084   3.045   2.307
 4709SOL    HW214412   4.095   2.882   2.303
 4710SOL     OW14413   4.290   2.399   2.727
 4710SOL    HW114414   4.302   2.465   2.653
 4710SOL    HW214415   4.336   2.433   2.810
 4711SOL     OW14416   4.976   3.210   2.250
 4711SOL    HW114417   5.026   3.287   2.290
 4711SOL    HW214418   4.881   3.212   2.282
 4712SOL     OW14419   4.996   3.307   3.004
 4712SOL    HW114420   5.043   3.320   3.091
 4712SOL    HW214421   4.930   3.233   3.013
 4713SOL     OW14422   5.306   2.501   2.334
 4713SOL    HW114423   5.275   2.562   2.407
 4713SOL    HW214424   5.356   2.553   2.265
 4714SOL     OW14425   4.078   3.372   3.191
 4714SOL    HW114426   4.057   3.328   3.104
 4714SOL    HW214427   4.175   3.398   3.194
 4715SOL     OW14428   4.126   2.613   3.460
 4715SOL    HW114429   4.194   2.668   3.413
 4715SOL    HW214430   4.166   2.525   3.487
 4716SOL     OW14431   5.311   2.641   3.532
 4716SOL    HW114432   5.219   2.679   3.527
 4716SOL    HW214433   5.371   2.688   3.467
 4717SOL     OW14434   4.737   1.967   3.632
 4717SOL    HW114435   4.743   2.052   3.580
 4717SOL    HW214436   4.769   1.891   3.575
 4718SOL     OW14437   4.228   1.912   3.602
 4718SOL    HW114438   4.186   1.855   3.532
 4718SOL    HW214439   4.162   1.981   3.634
 4719SOL     OW14440   4.297   2.732   2.891
 4719SOL    HW114441   4.341   2.821   2.882
 4719SOL    HW214442   4.234   2.732   2.968
 4720SOL     OW14443   5.084   2.724   2.907
 4720SOL    HW114444   5.009   2.724   2.841
 4720SOL    HW214445   5.121   2.632   2.916
 4721SOL     OW14446   4.933   2.387   2.137
 4721SOL    HW114447   4.946   2.303   2.191
 4721SOL    HW214448   4.904   2.461   2.197
 4722SOL     OW14449   4.031   2.075   3.093
 4722SOL    HW114450   4.008   2.112   3.183
 4722SOL    HW214451   4.001   1.980   3.087
 4723SOL     OW14452   3.761   3.172   3.144
 4723SOL    HW114453   3.814   3.123   3.212
 4723SOL    HW214454   3.783   3.270   3.149
 4724SOL     OW14455   4.456   2.496   2.926
 4724SOL    HW114456   4.515   2.470   2.850
 4724SOL    HW214457   4.428   2.592   2.915
 4725SOL     OW14458   5.452   2.797   3.716
 4725SOL    HW114459   5.406   2.790   3.627
 4725SOL    HW214460   5.390   2.841   3.782
 4726SOL     OW14461   4.031   1.925   2.480
 4726SOL    HW114462   4.020   2.019   2.513
 4726SOL    HW214463   4.026   1.862   2.557
 4727SOL     OW14464   5.346   2.229   2.236
 4727SOL    HW114465   5.348   2.153   2.300
 4727SOL    HW214466   5.298   2.306   2.276
 4728SOL     OW14467   4.747   2.628   2.828
 4728SOL    HW114468   4.762   2.649   2.924
 4728SOL    HW214469   4.717   2.533   2.819
 4729SOL     OW14470   4.704   3.435   3.562
 4729SOL    HW114471   4.684   3.479   3.474
 4729SOL    HW214472   4.743   3.344   3.546
 4730SOL     OW14473   5.583   3.380   3.467
 4730SOL    HW114474   5.597   3.407   3.372
 4730SOL    HW214475   5.666   3.402   3.520
 4731SOL     OW14476   4.074   2.760   3.666
 4731SOL    HW114477   4.150   2.804   3.714
 4731SOL    HW214478   4.109   2.713   3.584
 4732SOL     OW14479   5.264   2.136   1.987
 4732SOL    HW114480   5.203   2.061   2.010
 4732SOL    HW214481   5.286   2.188   2.070
 4733SOL     OW14482   5.027   2.700   1.904
 4733SOL    HW114483   5.061   2.607   1.919
 4733SOL    HW214484   5.045   2.727   1.809
 4734SOL     OW14485   4.792   3.195   2.711
 4734SOL    HW114486   4.799   3.111   2.656
 4734SOL    HW214487   4.854   3.264   2.675
 4735SOL     OW14488   4.043   2.672   2.811
 4735SOL    HW114489   4.136   2.708   2.816
 4735SOL    HW214490   4.037   2.587   2.863
 4736SOL     OW14491   4.063   2.371   2.868
 4736SOL    HW114492   4.011   2.288   2.851
 4736SOL    HW214493   4.140   2.376   2.804
 4737SOL     OW14494   4.862   2.242   3.540
 4737SOL    HW114495   4.817   2.305   3.604
 4737SOL    HW214496   4.955   2.273   3.523
 4738SOL     OW14497   4.884   2.069   3.339
 4738SOL    HW114498   4.884   2.133   3.416
 4738SOL    HW214499   4.912   2.117   3.256
 4739SOL     OW14500   3.732   3.188   2.062
 4739SOL    HW114501   3.639   3.209   2.031
 4739SOL    HW214502   3.742   3.089   2.075
 4740SOL     OW14503   3.812   3.663   2.789
 4740SOL    HW114504   3.770   3.577   2.762
 4740SOL    HW214505   3.906   3.666   2.755
 4741SOL     OW14506   4.228   3.430   2.772
 4741SOL    HW114507   4.294   3.504   2.781
 4741SOL    HW214508   4.272   3.351   2.730
 4742SOL     OW14509   4.726   2.658   3.100
 4742SOL    HW114510   4.767   2.626   3.186
 4742SOL    HW214511   4.630   2.631   3.097
 4743SOL     OW14512   3.764   2.406   2.976
 4743SOL    HW114513   3.849   2.373   2.935
 4743SOL    HW214514   3.777   2.421   3.074
 4744SOL     OW14515   3.913   2.382   3.584
 4744SOL    HW114516   3.972   2.342   3.514
 4744SOL    HW214517   3.855   2.453   3.543
 4745SOL     OW14518   5.093   2.812   3.522
 4745SOL    HW114519   5.132   2.901   3.542
 4745SOL    HW214520   5.103   2.792   3.425
 4746SOL     OW14521   4.539   2.434   2.187
 4746SOL    HW114522   4.546   2.345   2.141
 4746SOL    HW214523   4.445   2.468   2.179
 4747SOL     OW14524   5.381   2.466   3.068
 4747SOL    HW114525   5.343   2.397   3.130
 4747SOL    HW214526   5.463   2.430   3.024
 4748SOL     OW14527   3.976   3.426   3.606
 4748SOL    HW114528   3.946   3.483   3.682
 4748SOL    HW214529   3.969   3.329   3.632
 4749SOL     OW14530   4.395   2.326   3.131
 4749SOL    HW114531   4.361   2.237   3.101
 4749SOL    HW214532   4.421   2.380   3.051
 4750SOL     OW14533   4.654   3.540   3.327
 4750SOL    HW114534   4.630   3.522   3.232
 4750SOL    HW214535   4.684   3.634   3.337
 4751SOL     OW14536   4.197   2.362   2.053
 4751SOL    HW114537   4.258   2.442   2.057
 4751SOL    HW214538   4.102   2.393   2.060
 4752SOL     OW14539   3.883   2.999   3.328
 4752SOL    HW114540   3.905   2.938   3.404
 4752SOL    HW214541   3.893   2.950   3.242
 4753SOL     OW14542   5.071   2.921   3.096
 4753SOL    HW114543   5.095   2.858   3.022
 4753SOL    HW214544   4.981   2.961   3.078
 4754SOL     OW14545   5.026   2.717   2.171
 4754SOL    HW114546   4.940   2.686   2.213
 4754SOL    HW214547   5.022   2.703   2.072
 4755SOL     OW14548   5.483   3.609   3.016
 4755SOL    HW114549   5.544   3.639   2.943
 4755SOL    HW214550   5.445   3.520   2.994
 4756SOL     OW14551   4.976   3.593   2.990
 4756SOL    HW114552   5.060   3.598   2.936
 4756SOL    HW214553   4.953   3.497   3.008
 4757SOL     OW14554   3.807   3.120   2.884
 4757SOL    HW114555   3.802   3.119   2.984
 4757SOL    HW214556   3.724   3.079   2.846
 4758SOL     OW14557   4.412   3.524   3.578
 4758SOL    HW114558   4.356   3.605   3.587
 4758SOL    HW214559   4.464   3.528   3.492
 4759SOL     OW14560   5.450   1.997   2.385
 4759SOL    HW114561   5.523   1.980   2.318
 4759SOL    HW214562   5.419   1.910   2.423
 4760SOL     OW14563   5.112   3.435   2.339
 4760SOL    HW114564   5.179   3.447   2.265
 4760SOL    HW214565   5.072   3.524   2.362
 4761SOL     OW14566   3.854   3.656   3.713
 4761SOL    HW114567   3.813   3.582   3.766
 4761SOL    HW214568   3.918   3.707   3.771
 4762SOL     OW14569   5.004   2.789   2.534
 4762SOL    HW114570   5.064   2.708   2.536
 4762SOL    HW214571   5.044   2.858   2.474
 4763SOL     OW14572   4.554   3.135   3.284
 4763SOL    HW114573   4.549   3.168   3.379
 4763SOL    HW214574   4.468   3.154   3.238
 4764SOL     OW14575   4.396   3.478   2.016
 4764SOL    HW114576   4.405   3.488   1.917
 4764SOL    HW214577   4.356   3.389   2.037
 4765SOL     OW14578   5.374   3.582   3.256
 4765SOL    HW114579   5.427   3.592   3.172
 4765SOL    HW214580   5.347   3.672   3.290
 4766SOL     OW14581   5.565   2.037   2.825
 4766SOL    HW114582   5.604   1.952   2.789
 4766SOL    HW214583   5.467   2.039   2.806
 4767SOL     OW14584   3.987   2.188   2.582
 4767SOL    HW114585   3.908   2.239   2.548
 4767SOL    HW214586   3.978   2.173   2.680
 4768SOL     OW14587   4.918   3.474   1.893
 4768SOL    HW114588   4.924   3.381   1.930
 4768SOL    HW214589   4.859   3.474   1.813
 4769SOL     OW14590   4.546   2.864   3.234
 4769SOL    HW114591   4.586   2.863   3.142
 4769SOL    HW214592   4.556   2.956   3.274
 4770SOL     OW14593   4.640   2.772   2.153
 4770SOL    HW114594   4.703   2.810   2.085
 4770SOL    HW214595   4.680   2.689   2.192
 4771SOL     OW14596   5.228   3.469   1.906
 4771SOL    HW114597   5.136   3.506   1.913
 4771SOL    HW214598   5.266   3.489   1.816
 4772SOL     OW14599   4.096   3.150   3.352
 4772SOL    HW114600   4.083   3.243   3.318
 4772SOL    HW214601   4.012   3.098   3.339
 4773SOL     OW14602   5.338   3.154   3.151
 4773SOL    HW114603   5.398   3.157   3.231
 4773SOL    HW214604   5.263   3.218   3.164
 4774SOL     OW14605   4.763   2.960   2.558
 4774SOL    HW114606   4.693   2.913   2.612
 4774SOL    HW214607   4.822   2.892   2.515
 4775SOL     OW14608   4.738   2.098   2.833
 4775SOL    HW114609   4.730   2.062   2.740
 4775SOL    HW214610   4.736   2.022   2.898
 4776SOL     OW14611   4.314   3.349   2.353
 4776SOL    HW114612   4.356   3.291   2.283
 4776SOL    HW214613   4.270   3.428   2.309
 4777SOL     OW14614   5.433   2.247   3.243
 4777SOL    HW114615   5.506   2.316   3.247
 4777SOL    HW214616   5.461   2.172   3.184
 4778SOL     OW14617   3.979   3.210   2.152
 4778SOL    HW114618   3.883   3.211   2.125
 4778SOL    HW214619   3.991   3.263   2.236
 4779SOL     OW14620   3.829   2.875   3.588
 4779SOL    HW114621   3.752   2.842   3.642
 4779SOL    HW214622   3.914   2.845   3.630
 4780SOL     OW14623   4.396   2.065   3.351
 4780SOL    HW114624   4.486   2.049   3.311
 4780SOL    HW214625   4.404   2.070   3.450
 4781SOL     OW14626   3.799   2.207   1.895
 4781SOL    HW114627   3.707   2.179   1.866
 4781SOL    HW214628   3.830   2.284   1.839
 4782SOL     OW14629   5.164   2.718   3.260
 4782SOL    HW114630   5.107   2.770   3.197
 4782SOL    HW214631   5.260   2.730   3.236
 4783SOL     OW14632   3.796   2.028   2.180
 4783SOL    HW114633   3.779   2.111   2.126
 4783SOL    HW214634   3.886   1.991   2.158
 4784SOL     OW14635   4.907   3.197   1.981
 4784SOL    HW114636   4.808   3.186   1.983
 4784SOL    HW214637   4.941   3.212   2.074
 4785SOL     OW14638   4.337   2.704   3.293
 4785SOL    HW114639   4.393   2.785   3.276
 4785SOL    HW214640   4.396   2.624   3.296
 4786SOL     OW14641   5.217   3.629   2.821
 4786SOL    HW114642   5.250   3.693   2.752
 4786SOL    HW214643   5.283   3.623   2.896
 4787SOL     OW14644   4.440   2.427   3.570
 4787SOL    HW114645   4.459   2.492   3.644
 4787SOL    HW214646   4.500   2.347   3.579
 4788SOL     OW14647   5.174   3.082   3.495
 4788SOL    HW114648   5.165   3.072   3.594
 4788SOL    HW214649   5.270   3.075   3.469
 4789SOL     OW14650   4.114   3.603   3.422
 4789SOL    HW114651   4.023   3.644   3.420
 4789SOL    HW214652   4.107   3.509   3.454
 4790SOL     OW14653   5.398   2.745   3.116
 4790SOL    HW114654   5.371   2.656   3.079
 4790SOL    HW214655   5.399   2.813   3.043
 4791SOL     OW14656   4.949   2.187   2.311
 4791SOL    HW114657   5.014   2.113   2.300
 4791SOL    HW214658   4.969   2.237   2.395
 4792SOL     OW14659   4.318   2.607   2.514
 4792SOL    HW114660   4.368   2.692   2.495
 4792SOL    HW214661   4.230   2.609   2.466
 4793SOL     OW14662   5.501   2.204   3.504
 4793SOL    HW114663   5.484   2.235   3.410
 4793SOL    HW214664   5.417   2.167   3.542
 4794SOL     OW14665   5.454   2.796   3.379
 4794SOL    HW114666   5.492   2.887   3.394
 4794SOL    HW214667   5.446   2.779   3.280
 4795SOL     OW14668   4.583   3.236   1.878
 4795SOL    HW114669   4.537   3.251   1.966
 4795SOL    HW214670   4.627   3.321   1.848
 4796SOL     OW14671   4.385   3.652   2.815
 4796SOL    HW114672   4.339   3.740   2.802
 4796SOL    HW214673   4.484   3.664   2.808
 4797SOL     OW14674   4.583   2.818   2.723
 4797SOL    HW114675   4.637   2.749   2.771
 4797SOL    HW214676   4.551   2.887   2.789
 4798SOL     OW14677   4.807   2.846   1.949
 4798SOL    HW114678   4.784   2.899   1.867
 4798SOL    HW214679   4.888   2.790   1.930
 4799SOL     OW14680   5.585   3.431   2.713
 4799SOL    HW114681   5.514   3.419   2.643
 4799SOL    HW214682   5.586   3.352   2.773
 4800SOL     OW14683   3.945   3.176   3.706
 4800SOL    HW114684   3.880   3.103   3.685
 4800SOL    HW214685   3.949   3.190   3.804
 4801SOL     OW14686   3.803   3.102   2.515
 4801SOL    HW114687   3.802   3.055   2.603
 4801SOL    HW214688   3.885   3.074   2.464
 4802SOL     OW14689   4.396   3.253   3.486
 4802SOL    HW114690   4.318   3.203   3.524
 4802SOL    HW214691   4.393   3.348   3.517
 4803SOL     OW14692   5.548   2.054   3.089
 4803SOL    HW114693   5.544   1.964   3.133
 4803SOL    HW214694   5.551   2.043   2.990
 4804SOL     OW14695   4.152   2.286   2.382
 4804SOL    HW114696   4.182   2.214   2.320
 4804SOL    HW214697   4.113   2.246   2.465
 4805SOL     OW14698   5.429   3.349   2.966
 4805SOL    HW114699   5.336   3.324   2.939
 4805SOL    HW214700   5.455   3.299   3.048
 4806SOL     OW14701   4.041   2.409   3.142
 4806SOL    HW114702   4.079   2.350   3.214
 4806SOL    HW214703   4.081   2.383   3.054
 4807SOL     OW14704   4.536   3.448   2.549
 4807SOL    HW114705   4.568   3.458   2.455
 4807SOL    HW214706   4.457   3.386   2.551
 4808SOL     OW14707   5.148   2.076   2.974
 4808SOL    HW114708   5.200   2.011   3.029
 4808SOL    HW214709   5.099   2.139   3.035
 4809SOL     OW14710   4.725   1.896   3.016
 4809SOL    HW114711   4.662   1.824   2.985
 4809SOL    HW214712   4.818   1.860   3.016
 4810SOL     OW14713   4.494   3.192   2.163
 4810SOL    HW114714   4.448   3.105   2.180
 4810SOL    HW214715   4.585   3.189   2.204
 4811SOL     OW14716   4.342   3.429   3.146
 4811SOL    HW114717   4.337   3.511   3.203
 4811SOL    HW214718   4.431   3.426   3.101
 4812SOL     OW14719   5.076   1.914   2.030
 4812SOL    HW114720   5.111   1.873   1.946
 4812SOL    HW214721   4.986   1.876   2.050
 4813SOL     OW14722   5.024   2.315   2.553
 4813SOL    HW114723   4.965   2.395   2.557
 4813SOL    HW214724   5.039   2.280   2.646
 4814SOL     OW14725   5.317   2.083   2.744
 4814SOL    HW114726   5.233   2.082   2.798
 4814SOL    HW214727   5.319   2.166   2.688
 4815SOL     OW14728   3.763   2.939   2.162
 4815SOL    HW114729   3.862   2.928   2.153
 4815SOL    HW214730   3.723   2.853   2.194
 4816SOL     OW14731   4.599   3.508   2.199
 4816SOL    HW114732   4.522   3.473   2.145
 4816SOL    HW214733   4.567   3.579   2.261
 4817SOL     OW14734   3.954   2.490   3.837
 4817SOL    HW114735   3.861   2.488   3.874
 4817SOL    HW214736   3.955   2.451   3.745
 4818SOL     OW14737   3.949   2.137   4.720
 4818SOL    HW114738   3.984   2.120   4.812
 4818SOL    HW214739   3.861   2.092   4.708
 4819SOL     OW14740   3.743   2.230   4.371
 4819SOL    HW114741   3.661   2.273   4.410
 4819SOL    HW214742   3.715   2.157   4.308
 4820SOL     OW14743   4.293   3.137   4.889
 4820SOL    HW114744   4.200   3.130   4.852
 4820SOL    HW214745   4.304   3.226   4.933
 4821SOL     OW14746   5.279   3.373   4.427
 4821SOL    HW114747   5.222   3.357   4.508
 4821SOL    HW214748   5.220   3.383   4.347
 4822SOL     OW14749   4.859   2.565   4.441
 4822SOL    HW114750   4.916   2.643   4.416
 4822SOL    HW214751   4.799   2.591   4.517
 4823SOL     OW14752   5.479   2.469   3.955
 4823SOL    HW114753   5.467   2.456   3.856
 4823SOL    HW214754   5.449   2.388   4.004
 4824SOL     OW14755   4.492   3.006   4.747
 4824SOL    HW114756   4.414   3.023   4.807
 4824SOL    HW214757   4.526   3.093   4.711
 4825SOL     OW14758   4.574   2.660   5.547
 4825SOL    HW114759   4.570   2.736   5.612
 4825SOL    HW214760   4.596   2.696   5.456
 4826SOL     OW14761   4.409   2.874   4.389
 4826SOL    HW114762   4.478   2.858   4.459
 4826SOL    HW214763   4.336   2.931   4.427
 4827SOL     OW14764   4.410   3.023   5.527
 4827SOL    HW114765   4.470   3.102   5.541
 4827SOL    HW214766   4.324   3.054   5.486
 4828SOL     OW14767   4.059   3.297   4.785
 4828SOL    HW114768   3.981   3.266   4.732
 4828SOL    HW214769   4.117   3.355   4.728
 4829SOL     OW14770   5.184   3.367   5.063
 4829SOL    HW114771   5.208   3.461   5.089
 4829SOL    HW214772   5.168   3.313   5.145
 4830SOL     OW14773   4.162   2.254   5.223
 4830SOL    HW114774   4.244   2.198   5.232
 4830SOL    HW214775   4.081   2.196   5.227
 4831SOL     OW14776   5.327   2.309   4.461
 4831SOL    HW114777   5.253   2.355   4.411
 4831SOL    HW214778   5.378   2.377   4.514
 4832SOL     OW14779   3.955   3.575   4.207
 4832SOL    HW114780   3.989   3.652   4.261
 4832SOL    HW214781   3.999   3.575   4.117
 4833SOL     OW14782   4.851   3.203   5.414
 4833SOL    HW114783   4.898   3.203   5.502
 4833SOL    HW214784   4.803   3.116   5.403
 4834SOL     OW14785   3.954   3.296   4.262
 4834SOL    HW114786   3.928   3.392   4.262
 4834SOL    HW214787   3.883   3.242   4.307
 4835SOL     OW14788   3.964   2.953   4.610
 4835SOL    HW114789   3.978   2.869   4.662
 4835SOL    HW214790   3.909   3.017   4.665
 4836SOL     OW14791   4.344   3.648   5.163
 4836SOL    HW114792   4.252   3.631   5.198
 4836SOL    HW214793   4.372   3.740   5.189
 4837SOL     OW14794   4.330   2.826   3.847
 4837SOL    HW114795   4.337   2.910   3.793
 4837SOL    HW214796   4.376   2.839   3.935
 4838SOL     OW14797   5.318   1.976   5.204
 4838SOL    HW114798   5.300   2.043   5.132
 4838SOL    HW214799   5.315   2.022   5.293
 4839SOL     OW14800   3.846   2.505   4.287
 4839SOL    HW114801   3.801   2.417   4.304
 4839SOL    HW214802   3.845   2.559   4.371
 4840SOL     OW14803   5.566   3.629   4.083
 4840SOL    HW114804   5.620   3.600   4.163
 4840SOL    HW214805   5.596   3.719   4.054
 4841SOL     OW14806   3.751   3.458   3.841
 4841SOL    HW114807   3.732   3.362   3.862
 4841SOL    HW214808   3.718   3.516   3.916
 4842SOL     OW14809   5.413   2.784   4.336
 4842SOL    HW114810   5.508   2.755   4.344
 4842SOL    HW214811   5.405   2.849   4.261
 4843SOL     OW14812   5.365   2.970   4.156
 4843SOL    HW114813   5.451   2.972   4.104
 4843SOL    HW214814   5.379   3.017   4.244
 4844SOL     OW14815   3.837   2.599   5.321
 4844SOL    HW114816   3.925   2.586   5.366
 4844SOL    HW214817   3.824   2.696   5.299
 4845SOL     OW14818   4.337   3.227   4.450
 4845SOL    HW114819   4.288   3.140   4.459
 4845SOL    HW214820   4.314   3.270   4.363
 4846SOL     OW14821   5.017   3.090   5.147
 4846SOL    HW114822   5.054   3.017   5.089
 4846SOL    HW214823   5.069   3.095   5.232
 4847SOL     OW14824   4.533   1.866   4.226
 4847SOL    HW114825   4.573   1.957   4.217
 4847SOL    HW214826   4.433   1.874   4.232
 4848SOL     OW14827   3.921   2.838   4.988
 4848SOL    HW114828   4.010   2.793   4.974
 4848SOL    HW214829   3.848   2.773   4.969
 4849SOL     OW14830   5.249   2.861   3.914
 4849SOL    HW114831   5.186   2.785   3.927
 4849SOL    HW214832   5.297   2.879   4.000
 4850SOL     OW14833   4.911   3.654   5.340
 4850SOL    HW114834   4.935   3.714   5.264
 4850SOL    HW214835   4.918   3.559   5.310
 4851SOL     OW14836   4.041   2.113   5.525
 4851SOL    HW114837   4.112   2.184   5.531
 4851SOL    HW214838   3.953   2.152   5.553
 4852SOL     OW14839   5.190   3.279   4.677
 4852SOL    HW114840   5.131   3.285   4.757
 4852SOL    HW214841   5.175   3.191   4.631
 4853SOL     OW14842   5.391   3.576   4.296
 4853SOL    HW114843   5.350   3.553   4.208
 4853SOL    HW214844   5.373   3.502   4.361
 4854SOL     OW14845   4.322   2.591   3.994
 4854SOL    HW114846   4.346   2.660   3.926
 4854SOL    HW214847   4.244   2.624   4.048
 4855SOL     OW14848   5.005   2.207   4.668
 4855SOL    HW114849   4.919   2.157   4.655
 4855SOL    HW214850   5.067   2.153   4.724
 4856SOL     OW14851   5.300   3.524   4.031
 4856SOL    HW114852   5.389   3.570   4.034
 4856SOL    HW214853   5.279   3.500   3.936
 4857SOL     OW14854   4.531   2.467   5.189
 4857SOL    HW114855   4.484   2.464   5.278
 4857SOL    HW214856   4.480   2.412   5.123
 4858SOL     OW14857   5.118   2.331   5.398
 4858SOL    HW114858   5.098   2.374   5.486
 4858SOL    HW214859   5.196   2.269   5.407
 4859SOL     OW14860   4.697   2.752   5.296
 4859SOL    HW114861   4.743   2.668   5.267
 4859SOL    HW214862   4.641   2.786   5.221
 4860SOL     OW14863   4.715   2.272   4.966
 4860SOL    HW114864   4.638   2.306   5.020
 4860SOL    HW214865   4.681   2.221   4.887
 4861SOL     OW14866   4.765   2.563   4.153
 4861SOL    HW114867   4.791   2.559   4.249
 4861SOL    HW214868   4.680   2.512   4.139
 4862SOL     OW14869   3.800   2.673   4.513
 4862SOL    HW114870   3.899   2.661   4.522
 4862SOL    HW214871   3.776   2.768   4.534
 4863SOL     OW14872   3.854   3.683   5.295
 4863SOL    HW114873   3.844   3.668   5.394
 4863SOL    HW214874   3.768   3.719   5.259
 4864SOL     OW14875   4.589   2.210   3.919
 4864SOL    HW114876   4.648   2.273   3.870
 4864SOL    HW214877   4.608   2.116   3.890
 4865SOL     OW14878   5.443   2.447   5.555
 4865SOL    HW114879   5.417   2.536   5.519
 4865SOL    HW214880   5.441   2.379   5.482
 4866SOL     OW14881   5.086   3.006   4.269
 4866SOL    HW114882   5.169   2.977   4.221
 4866SOL    HW214883   5.037   3.073   4.213
 4867SOL     OW14884   4.274   2.058   4.609
 4867SOL    HW114885   4.269   2.053   4.709
 4867SOL    HW214886   4.276   2.154   4.580
 4868SOL     OW14887   4.732   3.318   4.201
 4868SOL    HW114888   4.686   3.390   4.149
 4868SOL    HW214889   4.728   3.338   4.299
 4869SOL     OW14890   4.075   3.663   4.577
 4869SOL    HW114891   4.125   3.577   4.583
 4869SOL    HW214892   4.140   3.740   4.574
 4870SOL     OW14893   5.519   2.928   4.597
 4870SOL    HW114894   5.457   2.913   4.521
 4870SOL    HW214895   5.467   2.939   4.682
 4871SOL     OW14896   4.951   3.412   5.230
 4871SOL    HW114897   4.957   3.335   5.294
 4871SOL    HW214898   4.899   3.386   5.150
 4872SOL     OW14899   4.045   2.805   3.966
 4872SOL    HW114900   4.127   2.844   3.924
 4872SOL    HW214901   4.018   2.723   3.917
 4873SOL     OW14902   5.182   2.597   4.452
 4873SOL    HW114903   5.177   2.532   4.527
 4873SOL    HW214904   5.262   2.656   4.465
 4874SOL     OW14905   4.185   3.128   5.451
 4874SOL    HW114906   4.135   3.129   5.365
 4874SOL    HW214907   4.122   3.110   5.527
 4875SOL     OW14908   4.835   3.638   3.961
 4875SOL    HW114909   4.775   3.576   4.011
 4875SOL    HW214910   4.866   3.594   3.876
 4876SOL     OW14911   3.926   2.147   5.222
 4876SOL    HW114912   3.846   2.207   5.209
 4876SOL    HW214913   3.916   2.098   5.308
 4877SOL     OW14914   5.356   3.239   3.805
 4877SOL    HW114915   5.324   3.333   3.795
 4877SOL    HW214916   5.280   3.176   3.793
 4878SOL     OW14917   4.188   3.605   4.047
 4878SOL    HW114918   4.221   3.644   4.133
 4878SOL    HW214919   4.264   3.598   3.982
 4879SOL     OW14920   5.124   1.969   4.150
 4879SOL    HW114921   5.100   1.932   4.060
 4879SOL    HW214922   5.223   1.985   4.154
 4880SOL     OW14923   3.973   3.647   4.965
 4880SOL    HW114924   4.030   3.582   5.015
 4880SOL    HW214925   3.957   3.614   4.872
 4881SOL     OW14926   4.664   3.560   4.628
 4881SOL    HW114927   4.744   3.503   4.649
 4881SOL    HW214928   4.615   3.520   4.551
 4882SOL     OW14929   4.106   2.562   4.204
 4882SOL    HW114930   4.151   2.472   4.201
 4882SOL    HW214931   4.012   2.551   4.237
 4883SOL     OW14932   5.271   2.084   5.453
 4883SOL    HW114933   5.266   2.121   5.545
 4883SOL    HW214934   5.199   2.015   5.441
 4884SOL     OW14935   4.338   1.984   3.841
 4884SOL    HW114936   4.436   1.962   3.848
 4884SOL    HW214937   4.307   1.967   3.748
 4885SOL     OW14938   4.505   2.126   5.473
 4885SOL    HW114939   4.572   2.065   5.516
 4885SOL    HW214940   4.432   2.145   5.538
 4886SOL     OW14941   4.612   3.376   4.919
 4886SOL    HW114942   4.589   3.351   4.825
 4886SOL    HW214943   4.673   3.307   4.958
 4887SOL     OW14944   5.075   2.452   5.157
 4887SOL    HW114945   5.103   2.409   5.242
 4887SOL    HW214946   5.100   2.548   5.158
 4888SOL     OW14947   4.527   3.264   4.648
 4888SOL    HW114948   4.617   3.278   4.606
 4888SOL    HW214949   4.456   3.266   4.577
 4889SOL     OW14950   4.646   2.365   4.623
 4889SOL    HW114951   4.621   2.356   4.527
 4889SOL    HW214952   4.694   2.283   4.654
 4890SOL     OW14953   4.263   1.926   4.236
 4890SOL    HW114954   4.182   1.927   4.294
 4890SOL    HW214955   4.266   2.009   4.181
 4891SOL     OW14956   5.158   3.050   3.765
 4891SOL    HW114957   5.190   2.974   3.822
 4891SOL    HW214958   5.066   3.077   3.795
 4892SOL     OW14959   4.021   1.897   3.895
 4892SOL    HW114960   4.070   1.981   3.874
 4892SOL    HW214961   4.083   1.832   3.940
 4893SOL     OW14962   4.659   2.098   4.204
 4893SOL    HW114963   4.611   2.139   4.126
 4893SOL    HW214964   4.758   2.096   4.185
 4894SOL     OW14965   4.800   2.545   5.188
 4894SOL    HW114966   4.720   2.484   5.191
 4894SOL    HW214967   4.881   2.492   5.164
 4895SOL     OW14968   4.951   3.432   4.517
 4895SOL    HW114969   4.972   3.506   4.452
 4895SOL    HW214970   5.019   3.432   4.590
 4896SOL     OW14971   4.183   3.014   4.465
 4896SOL    HW114972   4.112   2.987   4.530
 4896SOL    HW214973   4.157   2.986   4.372
 4897SOL     OW14974   4.995   3.659   4.315
 4897SOL    HW114975   5.039   3.723   4.251
 4897SOL    HW214976   4.945   3.711   4.385
 4898SOL     OW14977   4.756   2.411   3.740
 4898SOL    HW114978   4.715   2.493   3.701
 4898SOL    HW214979   4.820   2.437   3.813
 4899SOL     OW14980   3.802   2.418   5.110
 4899SOL    HW114981   3.894   2.417   5.069
 4899SOL    HW214982   3.796   2.492   5.177
 4900SOL     OW14983   4.285   2.084   4.871
 4900SOL    HW114984   4.323   2.000   4.908
 4900SOL    HW214985   4.197   2.103   4.915
 4901SOL     OW14986   4.590   2.316   4.366
 4901SOL    HW114987   4.558   2.388   4.304
 4901SOL    HW214988   4.614   2.235   4.313
 4902SOL     OW14989   4.741   1.901   4.477
 4902SOL    HW114990   4.669   1.906   4.408
 4902SOL    HW214991   4.717   1.832   4.546
 4903SOL     OW14992   5.153   3.035   4.591
 4903SOL    HW114993   5.098   2.951   4.584
 4903SOL    HW214994   5.179   3.064   4.499
 4904SOL     OW14995   5.190   2.452   4.716
 4904SOL    HW114996   5.160   2.357   4.723
 4904SOL    HW214997   5.263   2.468   4.782
 4905SOL     OW14998   5.581   2.695   4.101
 4905SOL    HW114999   5.623   2.631   4.165
 4905SOL    HW215000   5.543   2.644   4.023
 4906SOL     OW15001   4.212   3.247   3.898
 4906SOL    HW115002   4.125   3.232   3.945
 4906SOL    HW215003   4.195   3.273   3.803
 4907SOL     OW15004   5.388   3.142   4.381
 4907SOL    HW115005   5.487   3.150   4.395
 4907SOL    HW215006   5.343   3.226   4.412
 4908SOL     OW15007   5.114   2.437   3.802
 4908SOL    HW115008   5.060   2.416   3.883
 4908SOL    HW215009   5.205   2.396   3.811
 4909SOL     OW15010   4.251   2.118   4.052
 4909SOL    HW115011   4.278   2.059   3.977
 4909SOL    HW215012   4.251   2.213   4.021
 4910SOL     OW15013   5.478   3.085   5.312
 4910SOL    HW115014   5.569   3.046   5.299
 4910SOL    HW215015   5.486   3.181   5.336
 4911SOL     OW15016   4.788   3.209   5.064
 4911SOL    HW115017   4.708   3.186   5.119
 4911SOL    HW215018   4.871   3.183   5.113
 4912SOL     OW15019   5.316   3.491   5.349
 4912SOL    HW115020   5.343   3.525   5.259
 4912SOL    HW215021   5.395   3.453   5.395
 4913SOL     OW15022   4.835   3.057   4.824
 4913SOL    HW115023   4.795   3.101   4.905
 4913SOL    HW215024   4.794   3.094   4.741
 4914SOL     OW15025   5.362   2.961   4.803
 4914SOL    HW115026   5.367   3.042   4.862
 4914SOL    HW215027   5.276   2.963   4.752
 4915SOL     OW15028   4.639   1.951   5.126
 4915SOL    HW115029   4.664   1.931   5.031
 4915SOL    HW215030   4.711   2.007   5.168
 4916SOL     OW15031   4.704   2.978   5.443
 4916SOL    HW115032   4.605   2.984   5.453
 4916SOL    HW215033   4.727   2.898   5.387
 4917SOL     OW15034   4.429   2.912   4.092
 4917SOL    HW115035   4.415   2.919   4.191
 4917SOL    HW215036   4.513   2.861   4.074
 4918SOL     OW15037   4.134   2.675   4.975
 4918SOL    HW115038   4.220   2.687   5.025
 4918SOL    HW215039   4.092   2.588   5.002
 4919SOL     OW15040   4.998   2.248   4.986
 4919SOL    HW115041   5.019   2.322   5.050
 4919SOL    HW215042   4.909   2.265   4.943
 4920SOL     OW15043   3.788   3.426   5.055
 4920SOL    HW115044   3.742   3.508   5.021
 4920SOL    HW215045   3.886   3.445   5.064
 4921SOL     OW15046   4.091   2.962   4.225
 4921SOL    HW115047   4.084   3.045   4.169
 4921SOL    HW215048   4.095   2.882   4.165
 4922SOL     OW15049   4.290   2.399   4.589
 4922SOL    HW115050   4.302   2.465   4.515
 4922SOL    HW215051   4.336   2.433   4.672
 4923SOL     OW15052   4.976   3.210   4.112
 4923SOL    HW115053   5.026   3.287   4.152
 4923SOL    HW215054   4.881   3.212   4.144
 4924SOL     OW15055   4.996   3.307   4.866
 4924SOL    HW115056   5.043   3.320   4.953
 4924SOL    HW215057   4.930   3.233   4.875
 4925SOL     OW15058   5.306   2.501   4.196
 4925SOL    HW115059   5.275   2.562   4.269
 4925SOL    HW215060   5.356   2.553   4.127
 4926SOL     OW15061   4.078   3.372   5.053
 4926SOL    HW115062   4.057   3.328   4.966
 4926SOL    HW215063   4.175   3.398   5.056
 4927SOL     OW15064   4.126   2.613   5.322
 4927SOL    HW115065   4.194   2.668   5.275
 4927SOL    HW215066   4.166   2.525   5.349
 4928SOL     OW15067   5.311   2.641   5.394
 4928SOL    HW115068   5.219   2.679   5.389
 4928SOL    HW215069   5.371   2.688   5.329
 4929SOL     OW15070   4.737   1.967   5.494
 4929SOL    HW115071   4.743   2.052   5.442
 4929SOL    HW215072   4.769   1.891   5.437
 4930SOL     OW15073   4.228   1.912   5.464
 4930SOL    HW115074   4.186   1.855   5.394
 4930SOL    HW215075   4.162   1.981   5.496
 4931SOL     OW15076   4.297   2.732   4.753
 4931SOL    HW115077   4.341   2.821   4.744
 4931SOL    HW215078   4.234   2.732   4.830
 4932SOL     OW15079   5.084   2.724   4.769
 4932SOL    HW115080   5.009   2.724   4.703
 4932SOL    HW215081   5.121   2.632   4.778
 4933SOL     OW15082   4.933   2.387   3.999
 4933SOL    HW115083   4.946   2.303   4.053
 4933SOL    HW215084   4.904   2.461   4.059
 4934SOL     OW15085   4.031   2.075   4.955
 4934SOL    HW115086   4.008   2.112   5.045
 4934SOL    HW215087   4.001   1.980   4.949
 4935SOL     OW15088   3.761   3.172   5.006
 4935SOL    HW115089   3.814   3.123   5.074
 4935SOL    HW215090   3.783   3.270   5.011
 4936SOL     OW15091   4.456   2.496   4.788
 4936SOL    HW115092   4.515   2.470   4.712
 4936SOL    HW215093   4.428   2.592   4.777
 4937SOL     OW15094   5.452   2.797   5.578
 4937SOL    HW115095   5.406   2.790   5.489
 4937SOL    HW215096   5.390   2.841   5.644
 4938SOL     OW15097   4.031   1.925   4.342
 4938SOL    HW115098   4.020   2.019   4.375
 4938SOL    HW215099   4.026   1.862   4.419
 4939SOL     OW15100   5.346   2.229   4.098
 4939SOL    HW115101   5.348   2.153   4.162
 4939SOL    HW215102   5.298   2.306   4.138
 4940SOL     OW15103   4.747   2.628   4.690
 4940SOL    HW115104   4.762   2.649   4.786
 4940SOL    HW215105   4.717   2.533   4.681
 4941SOL     OW15106   4.704   3.435   5.424
 4941SOL    HW115107   4.684   3.479   5.336
 4941SOL    HW215108   4.743   3.344   5.408
 4942SOL     OW15109   5.583   3.380   5.329
 4942SOL    HW115110   5.597   3.407   5.234
 4942SOL    HW215111   5.666   3.402   5.382
 4943SOL     OW15112   4.074   2.760   5.528
 4943SOL    HW115113   4.150   2.804   5.576
 4943SOL    HW215114   4.109   2.713   5.446
 4944SOL     OW15115   5.264   2.136   3.849
 4944SOL    HW115116   5.203   2.061   3.872
 4944SOL    HW215117   5.286   2.188   3.932
 4945SOL     OW15118   5.027   2.700   3.766
 4945SOL    HW115119   5.061   2.607   3.781
 4945SOL    HW215120   5.045   2.727   3.671
 4946SOL     OW15121   4.792   3.195   4.573
 4946SOL    HW115122   4.799   3.111   4.518
 4946SOL    HW215123   4.854   3.264   4.537
 4947SOL     OW15124   4.043   2.672   4.673
 4947SOL    HW115125   4.136   2.708   4.678
 4947SOL    HW215126   4.037   2.587   4.725
 4948SOL     OW15127   4.063   2.371   4.730
 4948SOL    HW115128   4.011   2.288   4.713
 4948SOL    HW215129   4.140   2.376   4.666
 4949SOL     OW15130   4.862   2.242   5.402
 4949SOL    HW115131   4.817   2.305   5.466
 4949SOL    HW215132   4.955   2.273   5.385
 4950SOL     OW15133   4.884   2.069   5.201
 4950SOL    HW115134   4.884   2.133   5.278
 4950SOL    HW215135   4.912   2.117   5.118
 4951SOL     OW15136   3.732   3.188   3.924
 4951SOL    HW115137   3.639   3.209   3.893
 4951SOL    HW215138   3.742   3.089   3.937
 4952SOL     OW15139   3.812   3.663   4.651
 4952SOL    HW115140   3.770   3.577   4.624
 4952SOL    HW215141   3.906   3.666   4.617
 4953SOL     OW15142   4.228   3.430   4.634
 4953SOL    HW115143   4.294   3.504   4.643
 4953SOL    HW215144   4.272   3.351   4.592
 4954SOL     OW15145   4.726   2.658   4.962
 4954SOL    HW115146   4.767   2.626   5.048
 4954SOL    HW215147   4.630   2.631   4.959
 4955SOL     OW15148   3.764   2.406   4.838
 4955SOL    HW115149   3.849   2.373   4.797
 4955SOL    HW215150   3.777   2.421   4.936
 4956SOL     OW15151   3.913   2.382   5.446
 4956SOL    HW115152   3.972   2.342   5.376
 4956SOL    HW215153   3.855   2.453   5.405
 4957SOL     OW15154   5.093   2.812   5.384
 4957SOL    HW115155   5.132   2.901   5.404
 4957SOL    HW215156   5.103   2.792   5.287
 4958SOL     OW15157   4.539   2.434   4.049
 4958SOL    HW115158   4.546   2.345   4.003
 4958SOL    HW215159   4.445   2.468   4.041
 4959SOL     OW15160   5.381   2.466   4.930
 4959SOL    HW115161   5.343   2.397   4.992
 4959SOL    HW215162   5.463   2.430   4.886
 4960SOL     OW15163   3.976   3.426   5.468
 4960SOL    HW115164   3.946   3.483   5.544
 4960SOL    HW215165   3.969   3.329   5.494
 4961SOL     OW15166   4.395   2.326   4.993
 4961SOL    HW115167   4.361   2.237   4.963
 4961SOL    HW215168   4.421   2.380   4.913
 4962SOL     OW15169   4.654   3.540   5.189
 4962SOL    HW115170   4.630   3.522   5.094
 4962SOL    HW215171   4.684   3.634   5.199
 4963SOL     OW15172   4.197   2.362   3.915
 4963SOL    HW115173   4.258   2.442   3.919
 4963SOL    HW215174   4.102   2.393   3.922
 4964SOL     OW15175   3.883   2.999   5.190
 4964SOL    HW115176   3.905   2.938   5.266
 4964SOL    HW215177   3.893   2.950   5.104
 4965SOL     OW15178   5.071   2.921   4.958
 4965SOL    HW115179   5.095   2.858   4.884
 4965SOL    HW215180   4.981   2.961   4.940
 4966SOL     OW15181   5.026   2.717   4.033
 4966SOL    HW115182   4.940   2.686   4.075
 4966SOL    HW215183   5.022   2.703   3.934
 4967SOL     OW15184   5.483   3.609   4.878
 4967SOL    HW115185   5.544   3.639   4.805
 4967SOL    HW215186   5.445   3.520   4.856
 4968SOL     OW15187   4.976   3.593   4.852
 4968SOL    HW115188   5.060   3.598   4.798
 4968SOL    HW215189   4.953   3.497   4.870
 4969SOL     OW15190   3.807   3.120   4.746
 4969SOL    HW115191   3.802   3.119   4.846
 4969SOL    HW215192   3.724   3.079   4.708
 4970SOL     OW15193   4.412   3.524   5.440
 4970SOL    HW115194   4.356   3.605   5.449
 4970SOL    HW215195   4.464   3.528   5.354
 4971SOL     OW15196   5.450   1.997   4.247
 4971SOL    HW115197   5.523   1.980   4.180
 4971SOL    HW215198   5.419   1.910   4.285
 4972SOL     OW15199   5.112   3.435   4.201
 4972SOL    HW115200   5.179   3.447   4.127
 4972SOL    HW215201   5.072   3.524   4.224
 4973SOL     OW15202   3.854   3.656   5.575
 4973SOL    HW115203   3.813   3.582   5.628
 4973SOL    HW215204   3.918   3.707   5.633
 4974SOL     OW15205   5.004   2.789   4.396
 4974SOL    HW115206   5.064   2.708   4.398
 4974SOL    HW215207   5.044   2.858   4.336
 4975SOL     OW15208   4.554   3.135   5.146
 4975SOL    HW115209   4.549   3.168   5.241
 4975SOL    HW215210   4.468   3.154   5.100
 4976SOL     OW15211   4.396   3.478   3.878
 4976SOL    HW115212   4.405   3.488   3.779
 4976SOL    HW215213   4.356   3.389   3.899
 4977SOL     OW15214   5.374   3.582   5.118
 4977SOL    HW115215   5.427   3.592   5.034
 4977SOL    HW215216   5.347   3.672   5.152
 4978SOL     OW15217   5.565   2.037   4.687
 4978SOL    HW115218   5.604   1.952   4.651
 4978SOL    HW215219   5.467   2.039   4.668
 4979SOL     OW15220   3.987   2.188   4.444
 4979SOL    HW115221   3.908   2.239   4.410
 4979SOL    HW215222   3.978   2.173   4.542
 4980SOL     OW15223   4.918   3.474   3.755
 4980SOL    HW115224   4.924   3.381   3.792
 4980SOL    HW215225   4.859   3.474   3.675
 4981SOL     OW15226   4.546   2.864   5.096
 4981SOL    HW115227   4.586   2.863   5.004
 4981SOL    HW215228   4.556   2.956   5.136
 4982SOL     OW15229   4.640   2.772   4.015
 4982SOL    HW115230   4.703   2.810   3.947
 4982SOL    HW215231   4.680   2.689   4.054
 4983SOL     OW15232   5.228   3.469   3.768
 4983SOL    HW115233   5.136   3.506   3.775
 4983SOL    HW215234   5.266   3.489   3.678
 4984SOL     OW15235   4.096   3.150   5.214
 4984SOL    HW115236   4.083   3.243   5.180
 4984SOL    HW215237   4.012   3.098   5.201
 4985SOL     OW15238   5.338   3.154   5.013
 4985SOL    HW115239   5.398   3.157   5.093
 4985SOL    HW215240   5.263   3.218   5.026
 4986SOL     OW15241   4.763   2.960   4.420
 4986SOL    HW115242   4.693   2.913   4.474
 4986SOL    HW215243   4.822   2.892   4.377
 4987SOL     OW15244   4.738   2.098   4.695
 4987SOL    HW115245   4.730   2.062   4.602
 4987SOL    HW215246   4.736   2.022   4.760
 4988SOL     OW15247   4.314   3.349   4.215
 4988SOL    HW115248   4.356   3.291   4.145
 4988SOL    HW215249   4.270   3.428   4.171
 4989SOL     OW15250   5.433   2.247   5.105
 4989SOL    HW115251   5.506   2.316   5.109
 4989SOL    HW215252   5.461   2.172   5.046
 4990SOL     OW15253   3.979   3.210   4.014
 4990SOL    HW115254   3.883   3.211   3.987
 4990SOL    HW215255   3.991   3.263   4.098
 4991SOL     OW15256   3.829   2.875   5.450
 4991SOL    HW115257   3.752   2.842   5.504
 4991SOL    HW215258   3.914   2.845   5.492
 4992SOL     OW15259   4.396   2.065   5.213
 4992SOL    HW115260   4.486   2.049   5.173
 4992SOL    HW215261   4.404   2.070   5.312
 4993SOL     OW15262   3.799   2.207   3.757
 4993SOL    HW115263   3.707   2.179   3.728
 4993SOL    HW215264   3.830   2.284   3.701
 4994SOL     OW15265   5.164   2.718   5.122
 4994SOL    HW115266   5.107   2.770   5.059
 4994SOL    HW215267   5.260   2.730   5.098
 4995SOL     OW15268   3.796   2.028   4.042
 4995SOL    HW115269   3.779   2.111   3.988
 4995SOL    HW215270   3.886   1.991   4.020
 4996SOL     OW15271   4.907   3.197   3.843
 4996SOL    HW115272   4.808   3.186   3.845
 4996SOL    HW215273   4.941   3.212   3.936
 4997SOL     OW15274   4.337   2.704   5.155
 4997SOL    HW115275   4.393   2.785   5.138
 4997SOL    HW215276   4.396   2.624   5.158
 4998SOL     OW15277   5.217   3.629   4.683
 4998SOL    HW115278   5.250   3.693   4.614
 4998SOL    HW215279   5.283   3.623   4.758
 4999SOL     OW15280   4.440   2.427   5.432
 4999SOL    HW115281   4.459   2.492   5.506
 4999SOL    HW215282   4.500   2.347   5.441
 5000SOL     OW15283   5.174   3.082   5.357
 5000SOL    HW115284   5.165   3.072   5.456
 5000SOL    HW215285   5.270   3.075   5.331
 5001SOL     OW15286   4.114   3.603   5.284
 5001SOL    HW115287   4.023   3.644   5.282
 5001SOL    HW215288   4.107   3.509   5.316
 5002SOL     OW15289   5.398   2.745   4.978
 5002SOL    HW115290   5.371   2.656   4.941
 5002SOL    HW215291   5.399   2.813   4.905
 5003SOL     OW15292   4.949   2.187   4.173
 5003SOL    HW115293   5.014   2.113   4.162
 5003SOL    HW215294   4.969   2.237   4.257
 5004SOL     OW15295   4.318   2.607   4.376
 5004SOL    HW115296   4.368   2.692   4.357
 5004SOL    HW215297   4.230   2.609   4.328
 5005SOL     OW15298   5.501   2.204   5.366
 5005SOL    HW115299   5.484   2.235   5.272
 5005SOL    HW215300   5.417   2.167   5.404
 5006SOL     OW15301   5.454   2.796   5.241
 5006SOL    HW115302   5.492   2.887   5.256
 5006SOL    HW215303   5.446   2.779   5.142
 5007SOL     OW15304   4.583   3.236   3.740
 5007SOL    HW115305   4.537   3.251   3.828
 5007SOL    HW215306   4.627   3.321   3.710
 5008SOL     OW15307   4.385   3.652   4.677
 5008SOL    HW115308   4.339   3.740   4.664
 5008SOL    HW215309   4.484   3.664   4.670
 5009SOL     OW15310   4.583   2.818   4.585
 5009SOL    HW115311   4.637   2.749   4.633
 5009SOL    HW215312   4.551   2.887   4.651
 5010SOL     OW15313   4.807   2.846   3.811
 5010SOL    HW115314   4.784   2.899   3.729
 5010SOL    HW215315   4.888   2.790   3.792
 5011SOL     OW15316   5.585   3.431   4.575
 5011SOL    HW115317   5.514   3.419   4.505
 5011SOL    HW215318   5.586   3.352   4.635
 5012SOL     OW15319   3.945   3.176   5.568
 5012SOL    HW115320   3.880   3.103   5.547
 5012SOL    HW215321   3.949   3.190   5.666
 5013SOL     OW15322   3.803   3.102   4.377
 5013SOL    HW115323   3.802   3.055   4.465
 5013SOL    HW215324   3.885   3.074   4.326
 5014SOL     OW15325   4.396   3.253   5.348
 5014SOL    HW115326   4.318   3.203   5.386
 5014SOL    HW215327   4.393   3.348   5.379
 5015SOL     OW15328   5.548   2.054   4.951
 5015SOL    HW115329   5.544   1.964   4.995
 5015SOL    HW215330   5.551   2.043   4.852
 5016SOL     OW15331   4.152   2.286   4.244
 5016SOL    HW115332   4.182   2.214   4.182
 5016SOL    HW215333   4.113   2.246   4.327
 5017SOL     OW15334   5.429   3.349   4.828
 5017SOL    HW115335   5.336   3.324   4.801
 5017SOL    HW215336   5.455   3.299   4.910
 5018SOL     OW15337   4.041   2.409   5.004
 5018SOL    HW115338   4.079   2.350   5.076
 5018SOL    HW215339   4.081   2.383   4.916
 5019SOL     OW15340   4.536   3.448   4.411
 5019SOL    HW115341   4.568   3.458   4.317
 5019SOL    HW215342   4.457   3.386   4.413
 5020SOL     OW15343   5.148   2.076   4.836
 5020SOL    HW115344   5.200   2.011   4.891
 5020SOL    HW215345   5.099   2.139   4.897
 5021SOL     OW15346   4.725   1.896   4.878
 5021SOL    HW115347   4.662   1.824   4.847
 5021SOL    HW215348   4.818   1.860   4.878
 5022SOL     OW15349   4.494   3.192   4.025
 5022SOL    HW115350   4.448   3.105   4.042
 5022SOL    HW215351   4.585   3.189   4.066
 5023SOL     OW15352   4.342   3.429   5.008
 5023SOL    HW115353   4.337   3.511   5.065
 5023SOL    HW215354   4.431   3.426   4.963
 5024SOL     OW15355   5.076   1.914   3.892
 5024SOL    HW115356   5.111   1.873   3.808
 5024SOL    HW215357   4.986   1.876   3.912
 5025SOL     OW15358   5.024   2.315   4.415
 5025SOL    HW115359   4.965   2.395   4.419
 5025SOL    HW215360   5.039   2.280   4.508
 5026SOL     OW15361   5.317   2.083   4.606
 5026SOL    HW115362   5.233   2.082   4.660
 5026SOL    HW215363   5.319   2.166   4.550
 5027SOL     OW15364   3.763   2.939   4.024
 5027SOL    HW115365   3.862   2.928   4.015
 5027SOL    HW215366   3.723   2.853   4.056
 5028SOL     OW15367   4.599   3.508   4.061
 5028SOL    HW115368   4.522   3.473   4.007
 5028SOL    HW215369   4.567   3.579   4.123
 5029SOL     OW15370   3.954   4.352   0.113
 5029SOL    HW115371   3.861   4.350   0.150
 5029SOL    HW215372   3.955   4.313   0.021
 5030SOL     OW15373   3.949   3.999   0.996
 5030SOL    HW115374   3.984   3.982   1.088
 5030SOL    HW215375   3.861   3.954   0.984
 5031SOL     OW15376   3.743   4.092   0.647
 5031SOL    HW115377   3.661   4.135   0.686
 5031SOL    HW215378   3.715   4.019   0.584
 5032SOL     OW15379   4.293   4.999   1.165
 5032SOL    HW115380   4.200   4.992   1.128
 5032SOL    HW215381   4.304   5.088   1.209
 5033SOL     OW15382   5.279   5.235   0.703
 5033SOL    HW115383   5.222   5.219   0.784
 5033SOL    HW215384   5.220   5.245   0.623
 5034SOL     OW15385   4.859   4.427   0.717
 5034SOL    HW115386   4.916   4.505   0.692
 5034SOL    HW215387   4.799   4.453   0.793
 5035SOL     OW15388   5.479   4.331   0.231
 5035SOL    HW115389   5.467   4.318   0.132
 5035SOL    HW215390   5.449   4.250   0.280
 5036SOL     OW15391   4.492   4.868   1.023
 5036SOL    HW115392   4.414   4.885   1.083
 5036SOL    HW215393   4.526   4.955   0.987
 5037SOL     OW15394   4.574   4.522   1.823
 5037SOL    HW115395   4.570   4.598   1.888
 5037SOL    HW215396   4.596   4.558   1.732
 5038SOL     OW15397   4.409   4.736   0.665
 5038SOL    HW115398   4.478   4.720   0.735
 5038SOL    HW215399   4.336   4.793   0.703
 5039SOL     OW15400   4.410   4.885   1.803
 5039SOL    HW115401   4.470   4.964   1.817
 5039SOL    HW215402   4.324   4.916   1.762
 5040SOL     OW15403   4.059   5.159   1.061
 5040SOL    HW115404   3.981   5.128   1.008
 5040SOL    HW215405   4.117   5.217   1.004
 5041SOL     OW15406   5.184   5.229   1.339
 5041SOL    HW115407   5.208   5.323   1.365
 5041SOL    HW215408   5.168   5.175   1.421
 5042SOL     OW15409   4.162   4.116   1.499
 5042SOL    HW115410   4.244   4.060   1.508
 5042SOL    HW215411   4.081   4.058   1.503
 5043SOL     OW15412   5.327   4.171   0.737
 5043SOL    HW115413   5.253   4.217   0.687
 5043SOL    HW215414   5.378   4.239   0.790
 5044SOL     OW15415   3.955   5.437   0.483
 5044SOL    HW115416   3.989   5.514   0.537
 5044SOL    HW215417   3.999   5.437   0.393
 5045SOL     OW15418   4.851   5.065   1.690
 5045SOL    HW115419   4.898   5.065   1.778
 5045SOL    HW215420   4.803   4.978   1.679
 5046SOL     OW15421   3.954   5.158   0.538
 5046SOL    HW115422   3.928   5.254   0.538
 5046SOL    HW215423   3.883   5.104   0.583
 5047SOL     OW15424   3.964   4.815   0.886
 5047SOL    HW115425   3.978   4.731   0.938
 5047SOL    HW215426   3.909   4.879   0.941
 5048SOL     OW15427   4.344   5.510   1.439
 5048SOL    HW115428   4.252   5.493   1.474
 5048SOL    HW215429   4.372   5.602   1.465
 5049SOL     OW15430   4.330   4.688   0.123
 5049SOL    HW115431   4.337   4.772   0.069
 5049SOL    HW215432   4.376   4.701   0.211
 5050SOL     OW15433   5.318   3.838   1.480
 5050SOL    HW115434   5.300   3.905   1.408
 5050SOL    HW215435   5.315   3.884   1.569
 5051SOL     OW15436   3.846   4.367   0.563
 5051SOL    HW115437   3.801   4.279   0.580
 5051SOL    HW215438   3.845   4.421   0.647
 5052SOL     OW15439   5.566   5.491   0.359
 5052SOL    HW115440   5.620   5.462   0.439
 5052SOL    HW215441   5.596   5.581   0.330
 5053SOL     OW15442   3.751   5.320   0.117
 5053SOL    HW115443   3.732   5.224   0.138
 5053SOL    HW215444   3.718   5.378   0.192
 5054SOL     OW15445   5.413   4.646   0.612
 5054SOL    HW115446   5.508   4.617   0.620
 5054SOL    HW215447   5.405   4.711   0.537
 5055SOL     OW15448   5.365   4.832   0.432
 5055SOL    HW115449   5.451   4.834   0.380
 5055SOL    HW215450   5.379   4.879   0.520
 5056SOL     OW15451   3.837   4.461   1.597
 5056SOL    HW115452   3.925   4.448   1.642
 5056SOL    HW215453   3.824   4.558   1.575
 5057SOL     OW15454   4.337   5.089   0.726
 5057SOL    HW115455   4.288   5.002   0.735
 5057SOL    HW215456   4.314   5.132   0.639
 5058SOL     OW15457   5.017   4.952   1.423
 5058SOL    HW115458   5.054   4.879   1.365
 5058SOL    HW215459   5.069   4.957   1.508
 5059SOL     OW15460   4.533   3.728   0.502
 5059SOL    HW115461   4.573   3.819   0.493
 5059SOL    HW215462   4.433   3.736   0.508
 5060SOL     OW15463   3.921   4.700   1.264
 5060SOL    HW115464   4.010   4.655   1.250
 5060SOL    HW215465   3.848   4.635   1.245
 5061SOL     OW15466   5.249   4.723   0.190
 5061SOL    HW115467   5.186   4.647   0.203
 5061SOL    HW215468   5.297   4.741   0.276
 5062SOL     OW15469   4.911   5.516   1.616
 5062SOL    HW115470   4.935   5.576   1.540
 5062SOL    HW215471   4.918   5.421   1.586
 5063SOL     OW15472   4.041   3.975   1.801
 5063SOL    HW115473   4.112   4.046   1.807
 5063SOL    HW215474   3.953   4.014   1.829
 5064SOL     OW15475   5.190   5.141   0.953
 5064SOL    HW115476   5.131   5.147   1.033
 5064SOL    HW215477   5.175   5.053   0.907
 5065SOL     OW15478   5.391   5.438   0.572
 5065SOL    HW115479   5.350   5.415   0.484
 5065SOL    HW215480   5.373   5.364   0.637
 5066SOL     OW15481   4.322   4.453   0.270
 5066SOL    HW115482   4.346   4.522   0.202
 5066SOL    HW215483   4.244   4.486   0.324
 5067SOL     OW15484   5.005   4.069   0.944
 5067SOL    HW115485   4.919   4.019   0.931
 5067SOL    HW215486   5.067   4.015   1.000
 5068SOL     OW15487   5.300   5.386   0.307
 5068SOL    HW115488   5.389   5.432   0.310
 5068SOL    HW215489   5.279   5.362   0.212
 5069SOL     OW15490   4.531   4.329   1.465
 5069SOL    HW115491   4.484   4.326   1.554
 5069SOL    HW215492   4.480   4.274   1.399
 5070SOL     OW15493   5.118   4.193   1.674
 5070SOL    HW115494   5.098   4.236   1.762
 5070SOL    HW215495   5.196   4.131   1.683
 5071SOL     OW15496   4.697   4.614   1.572
 5071SOL    HW115497   4.743   4.530   1.543
 5071SOL    HW215498   4.641   4.648   1.497
 5072SOL     OW15499   4.715   4.134   1.242
 5072SOL    HW115500   4.638   4.168   1.296
 5072SOL    HW215501   4.681   4.083   1.163
 5073SOL     OW15502   4.765   4.425   0.429
 5073SOL    HW115503   4.791   4.421   0.525
 5073SOL    HW215504   4.680   4.374   0.415
 5074SOL     OW15505   3.800   4.535   0.789
 5074SOL    HW115506   3.899   4.523   0.798
 5074SOL    HW215507   3.776   4.630   0.810
 5075SOL     OW15508   3.854   5.545   1.571
 5075SOL    HW115509   3.844   5.530   1.670
 5075SOL    HW215510   3.768   5.581   1.535
 5076SOL     OW15511   4.589   4.072   0.195
 5076SOL    HW115512   4.648   4.135   0.146
 5076SOL    HW215513   4.608   3.978   0.166
 5077SOL     OW15514   5.443   4.309   1.831
 5077SOL    HW115515   5.417   4.398   1.795
 5077SOL    HW215516   5.441   4.241   1.758
 5078SOL     OW15517   5.086   4.868   0.545
 5078SOL    HW115518   5.169   4.839   0.497
 5078SOL    HW215519   5.037   4.935   0.489
 5079SOL     OW15520   4.274   3.920   0.885
 5079SOL    HW115521   4.269   3.915   0.985
 5079SOL    HW215522   4.276   4.016   0.856
 5080SOL     OW15523   4.732   5.180   0.477
 5080SOL    HW115524   4.686   5.252   0.425
 5080SOL    HW215525   4.728   5.200   0.575
 5081SOL     OW15526   4.075   5.525   0.853
 5081SOL    HW115527   4.125   5.439   0.859
 5081SOL    HW215528   4.140   5.602   0.850
 5082SOL     OW15529   5.519   4.790   0.873
 5082SOL    HW115530   5.457   4.775   0.797
 5082SOL    HW215531   5.467   4.801   0.958
 5083SOL     OW15532   4.951   5.274   1.506
 5083SOL    HW115533   4.957   5.197   1.570
 5083SOL    HW215534   4.899   5.248   1.426
 5084SOL     OW15535   4.045   4.667   0.242
 5084SOL    HW115536   4.127   4.706   0.200
 5084SOL    HW215537   4.018   4.585   0.193
 5085SOL     OW15538   5.182   4.459   0.728
 5085SOL    HW115539   5.177   4.394   0.803
 5085SOL    HW215540   5.262   4.518   0.741
 5086SOL     OW15541   4.185   4.990   1.727
 5086SOL    HW115542   4.135   4.991   1.641
 5086SOL    HW215543   4.122   4.972   1.803
 5087SOL     OW15544   4.835   5.500   0.237
 5087SOL    HW115545   4.775   5.438   0.287
 5087SOL    HW215546   4.866   5.456   0.152
 5088SOL     OW15547   3.926   4.009   1.498
 5088SOL    HW115548   3.846   4.069   1.485
 5088SOL    HW215549   3.916   3.960   1.584
 5089SOL     OW15550   5.356   5.101   0.081
 5089SOL    HW115551   5.324   5.195   0.071
 5089SOL    HW215552   5.280   5.038   0.069
 5090SOL     OW15553   4.188   5.467   0.323
 5090SOL    HW115554   4.221   5.506   0.409
 5090SOL    HW215555   4.264   5.460   0.258
 5091SOL     OW15556   5.124   3.831   0.426
 5091SOL    HW115557   5.100   3.794   0.336
 5091SOL    HW215558   5.223   3.847   0.430
 5092SOL     OW15559   3.973   5.509   1.241
 5092SOL    HW115560   4.030   5.444   1.291
 5092SOL    HW215561   3.957   5.476   1.148
 5093SOL     OW15562   4.664   5.422   0.904
 5093SOL    HW115563   4.744   5.365   0.925
 5093SOL    HW215564   4.615   5.382   0.827
 5094SOL     OW15565   4.106   4.424   0.480
 5094SOL    HW115566   4.151   4.334   0.477
 5094SOL    HW215567   4.012   4.413   0.513
 5095SOL     OW15568   5.271   3.946   1.729
 5095SOL    HW115569   5.266   3.983   1.821
 5095SOL    HW215570   5.199   3.877   1.717
 5096SOL     OW15571   4.338   3.846   0.117
 5096SOL    HW115572   4.436   3.824   0.124
 5096SOL    HW215573   4.307   3.829   0.024
 5097SOL     OW15574   4.505   3.988   1.749
 5097SOL    HW115575   4.572   3.927   1.792
 5097SOL    HW215576   4.432   4.007   1.814
 5098SOL     OW15577   4.612   5.238   1.195
 5098SOL    HW115578   4.589   5.213   1.101
 5098SOL    HW215579   4.673   5.169   1.234
 5099SOL     OW15580   5.075   4.314   1.433
 5099SOL    HW115581   5.103   4.271   1.518
 5099SOL    HW215582   5.100   4.410   1.434
 5100SOL     OW15583   4.527   5.126   0.924
 5100SOL    HW115584   4.617   5.140   0.882
 5100SOL    HW215585   4.456   5.128   0.853
 5101SOL     OW15586   4.646   4.227   0.899
 5101SOL    HW115587   4.621   4.218   0.803
 5101SOL    HW215588   4.694   4.145   0.930
 5102SOL     OW15589   4.263   3.788   0.512
 5102SOL    HW115590   4.182   3.789   0.570
 5102SOL    HW215591   4.266   3.871   0.457
 5103SOL     OW15592   5.158   4.912   0.041
 5103SOL    HW115593   5.190   4.836   0.098
 5103SOL    HW215594   5.066   4.939   0.071
 5104SOL     OW15595   4.021   3.759   0.171
 5104SOL    HW115596   4.070   3.843   0.150
 5104SOL    HW215597   4.083   3.694   0.216
 5105SOL     OW15598   4.659   3.960   0.480
 5105SOL    HW115599   4.611   4.001   0.402
 5105SOL    HW215600   4.758   3.958   0.461
 5106SOL     OW15601   4.800   4.407   1.464
 5106SOL    HW115602   4.720   4.346   1.467
 5106SOL    HW215603   4.881   4.354   1.440
 5107SOL     OW15604   4.951   5.294   0.793
 5107SOL    HW115605   4.972   5.368   0.728
 5107SOL    HW215606   5.019   5.294   0.866
 5108SOL     OW15607   4.183   4.876   0.741
 5108SOL    HW115608   4.112   4.849   0.806
 5108SOL    HW215609   4.157   4.848   0.648
 5109SOL     OW15610   4.995   5.521   0.591
 5109SOL    HW115611   5.039   5.585   0.527
 5109SOL    HW215612   4.945   5.573   0.661
 5110SOL     OW15613   4.756   4.273   0.016
 5110SOL    HW115614   4.715   4.355  -0.023
 5110SOL    HW215615   4.820   4.299   0.089
 5111SOL     OW15616   3.802   4.280   1.386
 5111SOL    HW115617   3.894   4.279   1.345
 5111SOL    HW215618   3.796   4.354   1.453
 5112SOL     OW15619   4.285   3.946   1.147
 5112SOL    HW115620   4.323   3.862   1.184
 5112SOL    HW215621   4.197   3.965   1.191
 5113SOL     OW15622   4.590   4.178   0.642
 5113SOL    HW115623   4.558   4.250   0.580
 5113SOL    HW215624   4.614   4.097   0.589
 5114SOL     OW15625   4.741   3.763   0.753
 5114SOL    HW115626   4.669   3.768   0.684
 5114SOL    HW215627   4.717   3.694   0.822
 5115SOL     OW15628   5.153   4.897   0.867
 5115SOL    HW115629   5.098   4.813   0.860
 5115SOL    HW215630   5.179   4.926   0.775
 5116SOL     OW15631   5.190   4.314   0.992
 5116SOL    HW115632   5.160   4.219   0.999
 5116SOL    HW215633   5.263   4.330   1.058
 5117SOL     OW15634   5.581   4.557   0.377
 5117SOL    HW115635   5.623   4.493   0.441
 5117SOL    HW215636   5.543   4.506   0.299
 5118SOL     OW15637   4.212   5.109   0.174
 5118SOL    HW115638   4.125   5.094   0.221
 5118SOL    HW215639   4.195   5.135   0.079
 5119SOL     OW15640   5.388   5.004   0.657
 5119SOL    HW115641   5.487   5.012   0.671
 5119SOL    HW215642   5.343   5.088   0.688
 5120SOL     OW15643   5.114   4.299   0.078
 5120SOL    HW115644   5.060   4.278   0.159
 5120SOL    HW215645   5.205   4.258   0.087
 5121SOL     OW15646   4.251   3.980   0.328
 5121SOL    HW115647   4.278   3.921   0.253
 5121SOL    HW215648   4.251   4.075   0.297
 5122SOL     OW15649   5.478   4.947   1.588
 5122SOL    HW115650   5.569   4.908   1.575
 5122SOL    HW215651   5.486   5.043   1.612
 5123SOL     OW15652   4.788   5.071   1.340
 5123SOL    HW115653   4.708   5.048   1.395
 5123SOL    HW215654   4.871   5.045   1.389
 5124SOL     OW15655   5.316   5.353   1.625
 5124SOL    HW115656   5.343   5.387   1.535
 5124SOL    HW215657   5.395   5.315   1.671
 5125SOL     OW15658   4.835   4.919   1.100
 5125SOL    HW115659   4.795   4.963   1.181
 5125SOL    HW215660   4.794   4.956   1.017
 5126SOL     OW15661   5.362   4.823   1.079
 5126SOL    HW115662   5.367   4.904   1.138
 5126SOL    HW215663   5.276   4.825   1.028
 5127SOL     OW15664   4.639   3.813   1.402
 5127SOL    HW115665   4.664   3.793   1.307
 5127SOL    HW215666   4.711   3.869   1.444
 5128SOL     OW15667   4.704   4.840   1.719
 5128SOL    HW115668   4.605   4.846   1.729
 5128SOL    HW215669   4.727   4.760   1.663
 5129SOL     OW15670   4.429   4.774   0.368
 5129SOL    HW115671   4.415   4.781   0.467
 5129SOL    HW215672   4.513   4.723   0.350
 5130SOL     OW15673   4.134   4.537   1.251
 5130SOL    HW115674   4.220   4.549   1.301
 5130SOL    HW215675   4.092   4.450   1.278
 5131SOL     OW15676   4.998   4.110   1.262
 5131SOL    HW115677   5.019   4.184   1.326
 5131SOL    HW215678   4.909   4.127   1.219
 5132SOL     OW15679   3.788   5.288   1.331
 5132SOL    HW115680   3.742   5.370   1.297
 5132SOL    HW215681   3.886   5.307   1.340
 5133SOL     OW15682   4.091   4.824   0.501
 5133SOL    HW115683   4.084   4.907   0.445
 5133SOL    HW215684   4.095   4.744   0.441
 5134SOL     OW15685   4.290   4.261   0.865
 5134SOL    HW115686   4.302   4.327   0.791
 5134SOL    HW215687   4.336   4.295   0.948
 5135SOL     OW15688   4.976   5.072   0.388
 5135SOL    HW115689   5.026   5.149   0.428
 5135SOL    HW215690   4.881   5.074   0.420
 5136SOL     OW15691   4.996   5.169   1.142
 5136SOL    HW115692   5.043   5.182   1.229
 5136SOL    HW215693   4.930   5.095   1.151
 5137SOL     OW15694   5.306   4.363   0.472
 5137SOL    HW115695   5.275   4.424   0.545
 5137SOL    HW215696   5.356   4.415   0.403
 5138SOL     OW15697   4.078   5.234   1.329
 5138SOL    HW115698   4.057   5.190   1.242
 5138SOL    HW215699   4.175   5.260   1.332
 5139SOL     OW15700   4.126   4.475   1.598
 5139SOL    HW115701   4.194   4.530   1.551
 5139SOL    HW215702   4.166   4.387   1.625
 5140SOL     OW15703   5.311   4.503   1.670
 5140SOL    HW115704   5.219   4.541   1.665
 5140SOL    HW215705   5.371   4.550   1.605
 5141SOL     OW15706   4.737   3.829   1.770
 5141SOL    HW115707   4.743   3.914   1.718
 5141SOL    HW215708   4.769   3.753   1.713
 5142SOL     OW15709   4.228   3.774   1.740
 5142SOL    HW115710   4.186   3.717   1.670
 5142SOL    HW215711   4.162   3.843   1.772
 5143SOL     OW15712   4.297   4.594   1.029
 5143SOL    HW115713   4.341   4.683   1.020
 5143SOL    HW215714   4.234   4.594   1.106
 5144SOL     OW15715   5.084   4.586   1.045
 5144SOL    HW115716   5.009   4.586   0.979
 5144SOL    HW215717   5.121   4.494   1.054
 5145SOL     OW15718   4.933   4.249   0.275
 5145SOL    HW115719   4.946   4.165   0.329
 5145SOL    HW215720   4.904   4.323   0.335
 5146SOL     OW15721   4.031   3.937   1.231
 5146SOL    HW115722   4.008   3.974   1.321
 5146SOL    HW215723   4.001   3.842   1.225
 5147SOL     OW15724   3.761   5.034   1.282
 5147SOL    HW115725   3.814   4.985   1.350
 5147SOL    HW215726   3.783   5.132   1.287
 5148SOL     OW15727   4.456   4.358   1.064
 5148SOL    HW115728   4.515   4.332   0.988
 5148SOL    HW215729   4.428   4.454   1.053
 5149SOL     OW15730   5.452   4.659   1.854
 5149SOL    HW115731   5.406   4.652   1.765
 5149SOL    HW215732   5.390   4.703   1.920
 5150SOL     OW15733   4.031   3.787   0.618
 5150SOL    HW115734   4.020   3.881   0.651
 5150SOL    HW215735   4.026   3.724   0.695
 5151SOL     OW15736   5.346   4.091   0.374
 5151SOL    HW115737   5.348   4.015   0.438
 5151SOL    HW215738   5.298   4.168   0.414
 5152SOL     OW15739   4.747   4.490   0.966
 5152SOL    HW115740   4.762   4.511   1.062
 5152SOL    HW215741   4.717   4.395   0.957
 5153SOL     OW15742   4.704   5.297   1.700
 5153SOL    HW115743   4.684   5.341   1.612
 5153SOL    HW215744   4.743   5.206   1.684
 5154SOL     OW15745   5.583   5.242   1.605
 5154SOL    HW115746   5.597   5.269   1.510
 5154SOL    HW215747   5.666   5.264   1.658
 5155SOL     OW15748   4.074   4.622   1.804
 5155SOL    HW115749   4.150   4.666   1.852
 5155SOL    HW215750   4.109   4.575   1.722
 5156SOL     OW15751   5.264   3.998   0.125
 5156SOL    HW115752   5.203   3.923   0.148
 5156SOL    HW215753   5.286   4.050   0.208
 5157SOL     OW15754   5.027   4.562   0.042
 5157SOL    HW115755   5.061   4.469   0.057
 5157SOL    HW215756   5.045   4.589  -0.053
 5158SOL     OW15757   4.792   5.057   0.849
 5158SOL    HW115758   4.799   4.973   0.794
 5158SOL    HW215759   4.854   5.126   0.813
 5159SOL     OW15760   4.043   4.534   0.949
 5159SOL    HW115761   4.136   4.570   0.954
 5159SOL    HW215762   4.037   4.449   1.001
 5160SOL     OW15763   4.063   4.233   1.006
 5160SOL    HW115764   4.011   4.150   0.989
 5160SOL    HW215765   4.140   4.238   0.942
 5161SOL     OW15766   4.862   4.104   1.678
 5161SOL    HW115767   4.817   4.167   1.742
 5161SOL    HW215768   4.955   4.135   1.661
 5162SOL     OW15769   4.884   3.931   1.477
 5162SOL    HW115770   4.884   3.995   1.554
 5162SOL    HW215771   4.912   3.979   1.394
 5163SOL     OW15772   3.732   5.050   0.200
 5163SOL    HW115773   3.639   5.071   0.169
 5163SOL    HW215774   3.742   4.951   0.213
 5164SOL     OW15775   3.812   5.525   0.927
 5164SOL    HW115776   3.770   5.439   0.900
 5164SOL    HW215777   3.906   5.528   0.893
 5165SOL     OW15778   4.228   5.292   0.910
 5165SOL    HW115779   4.294   5.366   0.919
 5165SOL    HW215780   4.272   5.213   0.868
 5166SOL     OW15781   4.726   4.520   1.238
 5166SOL    HW115782   4.767   4.488   1.324
 5166SOL    HW215783   4.630   4.493   1.235
 5167SOL     OW15784   3.764   4.268   1.114
 5167SOL    HW115785   3.849   4.235   1.073
 5167SOL    HW215786   3.777   4.283   1.212
 5168SOL     OW15787   3.913   4.244   1.722
 5168SOL    HW115788   3.972   4.204   1.652
 5168SOL    HW215789   3.855   4.315   1.681
 5169SOL     OW15790   5.093   4.674   1.660
 5169SOL    HW115791   5.132   4.763   1.680
 5169SOL    HW215792   5.103   4.654   1.563
 5170SOL     OW15793   4.539   4.296   0.325
 5170SOL    HW115794   4.546   4.207   0.279
 5170SOL    HW215795   4.445   4.330   0.317
 5171SOL     OW15796   5.381   4.328   1.206
 5171SOL    HW115797   5.343   4.259   1.268
 5171SOL    HW215798   5.463   4.292   1.162
 5172SOL     OW15799   3.976   5.288   1.744
 5172SOL    HW115800   3.946   5.345   1.820
 5172SOL    HW215801   3.969   5.191   1.770
 5173SOL     OW15802   4.395   4.188   1.269
 5173SOL    HW115803   4.361   4.099   1.239
 5173SOL    HW215804   4.421   4.242   1.189
 5174SOL     OW15805   4.654   5.402   1.465
 5174SOL    HW115806   4.630   5.384   1.370
 5174SOL    HW215807   4.684   5.496   1.475
 5175SOL     OW15808   4.197   4.224   0.191
 5175SOL    HW115809   4.258   4.304   0.195
 5175SOL    HW215810   4.102   4.255   0.198
 5176SOL     OW15811   3.883   4.861   1.466
 5176SOL    HW115812   3.905   4.800   1.542
 5176SOL    HW215813   3.893   4.812   1.380
 5177SOL     OW15814   5.071   4.783   1.234
 5177SOL    HW115815   5.095   4.720   1.160
 5177SOL    HW215816   4.981   4.823   1.216
 5178SOL     OW15817   5.026   4.579   0.309
 5178SOL    HW115818   4.940   4.548   0.351
 5178SOL    HW215819   5.022   4.565   0.210
 5179SOL     OW15820   5.483   5.471   1.154
 5179SOL    HW115821   5.544   5.501   1.081
 5179SOL    HW215822   5.445   5.382   1.132
 5180SOL     OW15823   4.976   5.455   1.128
 5180SOL    HW115824   5.060   5.460   1.074
 5180SOL    HW215825   4.953   5.359   1.146
 5181SOL     OW15826   3.807   4.982   1.022
 5181SOL    HW115827   3.802   4.981   1.122
 5181SOL    HW215828   3.724   4.941   0.984
 5182SOL     OW15829   4.412   5.386   1.716
 5182SOL    HW115830   4.356   5.467   1.725
 5182SOL    HW215831   4.464   5.390   1.630
 5183SOL     OW15832   4.627   3.810   0.133
 5183SOL    HW115833   4.678   3.811   0.047
 5183SOL    HW215834   4.683   3.768   0.204
 5184SOL     OW15835   5.450   3.859   0.523
 5184SOL    HW115836   5.523   3.842   0.456
 5184SOL    HW215837   5.419   3.772   0.561
 5185SOL     OW15838   5.112   5.297   0.477
 5185SOL    HW115839   5.179   5.309   0.403
 5185SOL    HW215840   5.072   5.386   0.500
 5186SOL     OW15841   3.854   5.518   1.851
 5186SOL    HW115842   3.813   5.444   1.904
 5186SOL    HW215843   3.918   5.569   1.909
 5187SOL     OW15844   5.004   4.651   0.672
 5187SOL    HW115845   5.064   4.570   0.674
 5187SOL    HW215846   5.044   4.720   0.612
 5188SOL     OW15847   4.554   4.997   1.422
 5188SOL    HW115848   4.549   5.030   1.517
 5188SOL    HW215849   4.468   5.016   1.376
 5189SOL     OW15850   4.396   5.340   0.154
 5189SOL    HW115851   4.405   5.350   0.055
 5189SOL    HW215852   4.356   5.251   0.175
 5190SOL     OW15853   5.374   5.444   1.394
 5190SOL    HW115854   5.427   5.454   1.310
 5190SOL    HW215855   5.347   5.534   1.428
 5191SOL     OW15856   5.565   3.899   0.963
 5191SOL    HW115857   5.604   3.814   0.927
 5191SOL    HW215858   5.467   3.901   0.944
 5192SOL     OW15859   3.987   4.050   0.720
 5192SOL    HW115860   3.908   4.101   0.686
 5192SOL    HW215861   3.978   4.035   0.818
 5193SOL     OW15862   4.918   5.336   0.031
 5193SOL    HW115863   4.924   5.243   0.068
 5193SOL    HW215864   4.859   5.336  -0.049
 5194SOL     OW15865   4.546   4.726   1.372
 5194SOL    HW115866   4.586   4.725   1.280
 5194SOL    HW215867   4.556   4.818   1.412
 5195SOL     OW15868   4.640   4.634   0.291
 5195SOL    HW115869   4.703   4.672   0.223
 5195SOL    HW215870   4.680   4.551   0.330
 5196SOL     OW15871   5.228   5.331   0.044
 5196SOL    HW115872   5.136   5.368   0.051
 5196SOL    HW215873   5.266   5.351  -0.046
 5197SOL     OW15874   4.096   5.012   1.490
 5197SOL    HW115875   4.083   5.105   1.456
 5197SOL    HW215876   4.012   4.960   1.477
 5198SOL     OW15877   5.338   5.016   1.289
 5198SOL    HW115878   5.398   5.019   1.369
 5198SOL    HW215879   5.263   5.080   1.302
 5199SOL     OW15880   4.763   4.822   0.696
 5199SOL    HW115881   4.693   4.775   0.750
 5199SOL    HW215882   4.822   4.754   0.653
 5200SOL     OW15883   4.738   3.960   0.971
 5200SOL    HW115884   4.730   3.924   0.878
 5200SOL    HW215885   4.736   3.884   1.036
 5201SOL     OW15886   4.314   5.211   0.491
 5201SOL    HW115887   4.356   5.153   0.421
 5201SOL    HW215888   4.270   5.290   0.447
 5202SOL     OW15889   5.433   4.109   1.381
 5202SOL    HW115890   5.506   4.178   1.385
 5202SOL    HW215891   5.461   4.034   1.322
 5203SOL     OW15892   3.979   5.072   0.290
 5203SOL    HW115893   3.883   5.073   0.263
 5203SOL    HW215894   3.991   5.125   0.374
 5204SOL     OW15895   3.829   4.737   1.726
 5204SOL    HW115896   3.752   4.704   1.780
 5204SOL    HW215897   3.914   4.707   1.768
 5205SOL     OW15898   4.396   3.927   1.489
 5205SOL    HW115899   4.486   3.911   1.449
 5205SOL    HW215900   4.404   3.932   1.588
 5206SOL     OW15901   3.799   4.069   0.033
 5206SOL    HW115902   3.707   4.041   0.004
 5206SOL    HW215903   3.830   4.146  -0.023
 5207SOL     OW15904   5.164   4.580   1.398
 5207SOL    HW115905   5.107   4.632   1.335
 5207SOL    HW215906   5.260   4.592   1.374
 5208SOL     OW15907   3.796   3.890   0.318
 5208SOL    HW115908   3.779   3.973   0.264
 5208SOL    HW215909   3.886   3.853   0.296
 5209SOL     OW15910   4.907   5.059   0.119
 5209SOL    HW115911   4.808   5.048   0.121
 5209SOL    HW215912   4.941   5.074   0.212
 5210SOL     OW15913   4.337   4.566   1.431
 5210SOL    HW115914   4.393   4.647   1.414
 5210SOL    HW215915   4.396   4.486   1.434
 5211SOL     OW15916   5.217   5.491   0.959
 5211SOL    HW115917   5.250   5.555   0.890
 5211SOL    HW215918   5.283   5.485   1.034
 5212SOL     OW15919   4.440   4.289   1.708
 5212SOL    HW115920   4.459   4.354   1.782
 5212SOL    HW215921   4.500   4.209   1.717
 5213SOL     OW15922   5.174   4.944   1.633
 5213SOL    HW115923   5.165   4.934   1.732
 5213SOL    HW215924   5.270   4.937   1.607
 5214SOL     OW15925   4.114   5.465   1.560
 5214SOL    HW115926   4.023   5.506   1.558
 5214SOL    HW215927   4.107   5.371   1.592
 5215SOL     OW15928   5.398   4.607   1.254
 5215SOL    HW115929   5.371   4.518   1.217
 5215SOL    HW215930   5.399   4.675   1.181
 5216SOL     OW15931   4.949   4.049   0.449
 5216SOL    HW115932   5.014   3.975   0.438
 5216SOL    HW215933   4.969   4.099   0.533
 5217SOL     OW15934   4.318   4.469   0.652
 5217SOL    HW115935   4.368   4.554   0.633
 5217SOL    HW215936   4.230   4.471   0.604
 5218SOL     OW15937   5.501   4.066   1.642
 5218SOL    HW115938   5.484   4.097   1.548
 5218SOL    HW215939   5.417   4.029   1.680
 5219SOL     OW15940   5.454   4.658   1.517
 5219SOL    HW115941   5.492   4.749   1.532
 5219SOL    HW215942   5.446   4.641   1.418
 5220SOL     OW15943   4.583   5.098   0.016
 5220SOL    HW115944   4.537   5.113   0.104
 5220SOL    HW215945   4.627   5.183  -0.014
 5221SOL     OW15946   4.385   5.514   0.953
 5221SOL    HW115947   4.339   5.602   0.940
 5221SOL    HW215948   4.484   5.526   0.946
 5222SOL     OW15949   4.583   4.680   0.861
 5222SOL    HW115950   4.637   4.611   0.909
 5222SOL    HW215951   4.551   4.749   0.927
 5223SOL     OW15952   4.807   4.708   0.087
 5223SOL    HW115953   4.784   4.761   0.005
 5223SOL    HW215954   4.888   4.652   0.068
 5224SOL     OW15955   5.585   5.293   0.851
 5224SOL    HW115956   5.514   5.281   0.781
 5224SOL    HW215957   5.586   5.214   0.911
 5225SOL     OW15958   3.945   5.038   1.844
 5225SOL    HW115959   3.880   4.965   1.823
 5225SOL    HW215960   3.949   5.052   1.942
 5226SOL     OW15961   3.803   4.964   0.653
 5226SOL    HW115962   3.802   4.917   0.741
 5226SOL    HW215963   3.885   4.936   0.602
 5227SOL     OW15964   4.396   5.115   1.624
 5227SOL    HW115965   4.318   5.065   1.662
 5227SOL    HW215966   4.393   5.210   1.655
 5228SOL     OW15967   5.548   3.916   1.227
 5228SOL    HW115968   5.544   3.826   1.271
 5228SOL    HW215969   5.551   3.905   1.128
 5229SOL     OW15970   4.152   4.148   0.520
 5229SOL    HW115971   4.182   4.076   0.458
 5229SOL    HW215972   4.113   4.108   0.603
 5230SOL     OW15973   5.429   5.211   1.104
 5230SOL    HW115974   5.336   5.186   1.077
 5230SOL    HW215975   5.455   5.161   1.186
 5231SOL     OW15976   4.041   4.271   1.280
 5231SOL    HW115977   4.079   4.212   1.352
 5231SOL    HW215978   4.081   4.245   1.192
 5232SOL     OW15979   4.536   5.310   0.687
 5232SOL    HW115980   4.568   5.320   0.593
 5232SOL    HW215981   4.457   5.248   0.689
 5233SOL     OW15982   5.148   3.938   1.112
 5233SOL    HW115983   5.200   3.873   1.167
 5233SOL    HW215984   5.099   4.001   1.173
 5234SOL     OW15985   4.725   3.758   1.154
 5234SOL    HW115986   4.662   3.686   1.123
 5234SOL    HW215987   4.818   3.722   1.154
 5235SOL     OW15988   4.494   5.054   0.301
 5235SOL    HW115989   4.448   4.967   0.318
 5235SOL    HW215990   4.585   5.051   0.342
 5236SOL     OW15991   4.342   5.291   1.284
 5236SOL    HW115992   4.337   5.373   1.341
 5236SOL    HW215993   4.431   5.288   1.239
 5237SOL     OW15994   5.076   3.776   0.168
 5237SOL    HW115995   5.111   3.735   0.084
 5237SOL    HW215996   4.986   3.738   0.188
 5238SOL     OW15997   5.024   4.177   0.691
 5238SOL    HW115998   4.965   4.257   0.695
 5238SOL    HW215999   5.039   4.142   0.784
 5239SOL     OW16000   5.317   3.945   0.882
 5239SOL    HW116001   5.233   3.944   0.936
 5239SOL    HW216002   5.319   4.028   0.826
 5240SOL     OW16003   3.763   4.801   0.300
 5240SOL    HW116004   3.862   4.790   0.291
 5240SOL    HW216005   3.723   4.715   0.332
 5241SOL     OW16006   4.599   5.370   0.337
 5241SOL    HW116007   4.522   5.335   0.283
 5241SOL    HW216008   4.567   5.441   0.399
 5242SOL     OW16009   3.954   4.352   1.975
 5242SOL    HW116010   3.861   4.350   2.012
 5242SOL    HW216011   3.955   4.313   1.883
 5243SOL     OW16012   3.949   3.999   2.858
 5243SOL    HW116013   3.984   3.982   2.950
 5243SOL    HW216014   3.861   3.954   2.846
 5244SOL     OW16015   3.743   4.092   2.509
 5244SOL    HW116016   3.661   4.135   2.548
 5244SOL    HW216017   3.715   4.019   2.446
 5245SOL     OW16018   4.293   4.999   3.027
 5245SOL    HW116019   4.200   4.992   2.990
 5245SOL    HW216020   4.304   5.088   3.071
 5246SOL     OW16021   5.279   5.235   2.565
 5246SOL    HW116022   5.222   5.219   2.646
 5246SOL    HW216023   5.220   5.245   2.485
 5247SOL     OW16024   4.859   4.427   2.579
 5247SOL    HW116025   4.916   4.505   2.554
 5247SOL    HW216026   4.799   4.453   2.655
 5248SOL     OW16027   5.479   4.331   2.093
 5248SOL    HW116028   5.467   4.318   1.994
 5248SOL    HW216029   5.449   4.250   2.142
 5249SOL     OW16030   4.492   4.868   2.885
 5249SOL    HW116031   4.414   4.885   2.945
 5249SOL    HW216032   4.526   4.955   2.849
 5250SOL     OW16033   4.574   4.522   3.685
 5250SOL    HW116034   4.570   4.598   3.750
 5250SOL    HW216035   4.596   4.558   3.594
 5251SOL     OW16036   4.409   4.736   2.527
 5251SOL    HW116037   4.478   4.720   2.597
 5251SOL    HW216038   4.336   4.793   2.565
 5252SOL     OW16039   4.410   4.885   3.665
 5252SOL    HW116040   4.470   4.964   3.679
 5252SOL    HW216041   4.324   4.916   3.624
 5253SOL     OW16042   4.059   5.159   2.923
 5253SOL    HW116043   3.981   5.128   2.870
 5253SOL    HW216044   4.117   5.217   2.866
 5254SOL     OW16045   5.184   5.229   3.201
 5254SOL    HW116046   5.208   5.323   3.227
 5254SOL    HW216047   5.168   5.175   3.283
 5255SOL     OW16048   4.162   4.116   3.361
 5255SOL    HW116049   4.244   4.060   3.370
 5255SOL    HW216050   4.081   4.058   3.365
 5256SOL     OW16051   5.327   4.171   2.599
 5256SOL    HW116052   5.253   4.217   2.549
 5256SOL    HW216053   5.378   4.239   2.652
 5257SOL     OW16054   3.955   5.437   2.345
 5257SOL    HW116055   3.989   5.514   2.399
 5257SOL    HW216056   3.999   5.437   2.255
 5258SOL     OW16057   4.851   5.065   3.552
 5258SOL    HW116058   4.898   5.065   3.640
 5258SOL    HW216059   4.803   4.978   3.541
 5259SOL     OW16060   3.954   5.158   2.400
 5259SOL    HW116061   3.928   5.254   2.400
 5259SOL    HW216062   3.883   5.104   2.445
 5260SOL     OW16063   3.964   4.815   2.748
 5260SOL    HW116064   3.978   4.731   2.800
 5260SOL    HW216065   3.909   4.879   2.803
 5261SOL     OW16066   4.344   5.510   3.301
 5261SOL    HW116067   4.252   5.493   3.336
 5261SOL    HW216068   4.372   5.602   3.327
 5262SOL     OW16069   4.330   4.688   1.985
 5262SOL    HW116070   4.337   4.772   1.931
 5262SOL    HW216071   4.376   4.701   2.073
 5263SOL     OW16072   5.318   3.838   3.342
 5263SOL    HW116073   5.300   3.905   3.270
 5263SOL    HW216074   5.315   3.884   3.431
 5264SOL     OW16075   3.846   4.367   2.425
 5264SOL    HW116076   3.801   4.279   2.442
 5264SOL    HW216077   3.845   4.421   2.509
 5265SOL     OW16078   5.566   5.491   2.221
 5265SOL    HW116079   5.620   5.462   2.301
 5265SOL    HW216080   5.596   5.581   2.192
 5266SOL     OW16081   3.751   5.320   1.979
 5266SOL    HW116082   3.732   5.224   2.000
 5266SOL    HW216083   3.718   5.378   2.054
 5267SOL     OW16084   5.413   4.646   2.474
 5267SOL    HW116085   5.508   4.617   2.482
 5267SOL    HW216086   5.405   4.711   2.399
 5268SOL     OW16087   5.365   4.832   2.294
 5268SOL    HW116088   5.451   4.834   2.242
 5268SOL    HW216089   5.379   4.879   2.382
 5269SOL     OW16090   3.837   4.461   3.459
 5269SOL    HW116091   3.925   4.448   3.504
 5269SOL    HW216092   3.824   4.558   3.437
 5270SOL     OW16093   4.337   5.089   2.588
 5270SOL    HW116094   4.288   5.002   2.597
 5270SOL    HW216095   4.314   5.132   2.501
 5271SOL     OW16096   5.017   4.952   3.285
 5271SOL    HW116097   5.054   4.879   3.227
 5271SOL    HW216098   5.069   4.957   3.370
 5272SOL     OW16099   4.533   3.728   2.364
 5272SOL    HW116100   4.573   3.819   2.355
 5272SOL    HW216101   4.433   3.736   2.370
 5273SOL     OW16102   3.921   4.700   3.126
 5273SOL    HW116103   4.010   4.655   3.112
 5273SOL    HW216104   3.848   4.635   3.107
 5274SOL     OW16105   5.249   4.723   2.052
 5274SOL    HW116106   5.186   4.647   2.065
 5274SOL    HW216107   5.297   4.741   2.138
 5275SOL     OW16108   4.911   5.516   3.478
 5275SOL    HW116109   4.935   5.576   3.402
 5275SOL    HW216110   4.918   5.421   3.448
 5276SOL     OW16111   4.041   3.975   3.663
 5276SOL    HW116112   4.112   4.046   3.669
 5276SOL    HW216113   3.953   4.014   3.691
 5277SOL     OW16114   5.190   5.141   2.815
 5277SOL    HW116115   5.131   5.147   2.895
 5277SOL    HW216116   5.175   5.053   2.769
 5278SOL     OW16117   5.391   5.438   2.434
 5278SOL    HW116118   5.350   5.415   2.346
 5278SOL    HW216119   5.373   5.364   2.499
 5279SOL     OW16120   4.322   4.453   2.132
 5279SOL    HW116121   4.346   4.522   2.064
 5279SOL    HW216122   4.244   4.486   2.186
 5280SOL     OW16123   5.005   4.069   2.806
 5280SOL    HW116124   4.919   4.019   2.793
 5280SOL    HW216125   5.067   4.015   2.862
 5281SOL     OW16126   5.300   5.386   2.169
 5281SOL    HW116127   5.389   5.432   2.172
 5281SOL    HW216128   5.279   5.362   2.074
 5282SOL     OW16129   4.531   4.329   3.327
 5282SOL    HW116130   4.484   4.326   3.416
 5282SOL    HW216131   4.480   4.274   3.261
 5283SOL     OW16132   5.118   4.193   3.536
 5283SOL    HW116133   5.098   4.236   3.624
 5283SOL    HW216134   5.196   4.131   3.545
 5284SOL     OW16135   4.697   4.614   3.434
 5284SOL    HW116136   4.743   4.530   3.405
 5284SOL    HW216137   4.641   4.648   3.359
 5285SOL     OW16138   4.715   4.134   3.104
 5285SOL    HW116139   4.638   4.168   3.158
 5285SOL    HW216140   4.681   4.083   3.025
 5286SOL     OW16141   4.765   4.425   2.291
 5286SOL    HW116142   4.791   4.421   2.387
 5286SOL    HW216143   4.680   4.374   2.277
 5287SOL     OW16144   3.800   4.535   2.651
 5287SOL    HW116145   3.899   4.523   2.660
 5287SOL    HW216146   3.776   4.630   2.672
 5288SOL     OW16147   3.854   5.545   3.433
 5288SOL    HW116148   3.844   5.530   3.532
 5288SOL    HW216149   3.768   5.581   3.397
 5289SOL     OW16150   4.589   4.072   2.057
 5289SOL    HW116151   4.648   4.135   2.008
 5289SOL    HW216152   4.608   3.978   2.028
 5290SOL     OW16153   5.443   4.309   3.693
 5290SOL    HW116154   5.417   4.398   3.657
 5290SOL    HW216155   5.441   4.241   3.620
 5291SOL     OW16156   5.086   4.868   2.407
 5291SOL    HW116157   5.169   4.839   2.359
 5291SOL    HW216158   5.037   4.935   2.351
 5292SOL     OW16159   4.274   3.920   2.747
 5292SOL    HW116160   4.269   3.915   2.847
 5292SOL    HW216161   4.276   4.016   2.718
 5293SOL     OW16162   4.732   5.180   2.339
 5293SOL    HW116163   4.686   5.252   2.287
 5293SOL    HW216164   4.728   5.200   2.437
 5294SOL     OW16165   4.075   5.525   2.715
 5294SOL    HW116166   4.125   5.439   2.721
 5294SOL    HW216167   4.140   5.602   2.712
 5295SOL     OW16168   5.519   4.790   2.735
 5295SOL    HW116169   5.457   4.775   2.659
 5295SOL    HW216170   5.467   4.801   2.820
 5296SOL     OW16171   4.951   5.274   3.368
 5296SOL    HW116172   4.957   5.197   3.432
 5296SOL    HW216173   4.899   5.248   3.288
 5297SOL     OW16174   4.045   4.667   2.104
 5297SOL    HW116175   4.127   4.706   2.062
 5297SOL    HW216176   4.018   4.585   2.055
 5298SOL     OW16177   5.182   4.459   2.590
 5298SOL    HW116178   5.177   4.394   2.665
 5298SOL    HW216179   5.262   4.518   2.603
 5299SOL     OW16180   4.185   4.990   3.589
 5299SOL    HW116181   4.135   4.991   3.503
 5299SOL    HW216182   4.122   4.972   3.665
 5300SOL     OW16183   4.835   5.500   2.099
 5300SOL    HW116184   4.775   5.438   2.149
 5300SOL    HW216185   4.866   5.456   2.014
 5301SOL     OW16186   3.926   4.009   3.360
 5301SOL    HW116187   3.846   4.069   3.347
 5301SOL    HW216188   3.916   3.960   3.446
 5302SOL     OW16189   5.356   5.101   1.943
 5302SOL    HW116190   5.324   5.195   1.933
 5302SOL    HW216191   5.280   5.038   1.931
 5303SOL     OW16192   4.188   5.467   2.185
 5303SOL    HW116193   4.221   5.506   2.271
 5303SOL    HW216194   4.264   5.460   2.120
 5304SOL     OW16195   5.124   3.831   2.288
 5304SOL    HW116196   5.100   3.794   2.198
 5304SOL    HW216197   5.223   3.847   2.292
 5305SOL     OW16198   3.973   5.509   3.103
 5305SOL    HW116199   4.030   5.444   3.153
 5305SOL    HW216200   3.957   5.476   3.010
 5306SOL     OW16201   4.664   5.422   2.766
 5306SOL    HW116202   4.744   5.365   2.787
 5306SOL    HW216203   4.615   5.382   2.689
 5307SOL     OW16204   4.106   4.424   2.342
 5307SOL    HW116205   4.151   4.334   2.339
 5307SOL    HW216206   4.012   4.413   2.375
 5308SOL     OW16207   5.271   3.946   3.591
 5308SOL    HW116208   5.266   3.983   3.683
 5308SOL    HW216209   5.199   3.877   3.579
 5309SOL     OW16210   4.338   3.846   1.979
 5309SOL    HW116211   4.436   3.824   1.986
 5309SOL    HW216212   4.307   3.829   1.886
 5310SOL     OW16213   4.505   3.988   3.611
 5310SOL    HW116214   4.572   3.927   3.654
 5310SOL    HW216215   4.432   4.007   3.676
 5311SOL     OW16216   4.612   5.238   3.057
 5311SOL    HW116217   4.589   5.213   2.963
 5311SOL    HW216218   4.673   5.169   3.096
 5312SOL     OW16219   5.075   4.314   3.295
 5312SOL    HW116220   5.103   4.271   3.380
 5312SOL    HW216221   5.100   4.410   3.296
 5313SOL     OW16222   4.527   5.126   2.786
 5313SOL    HW116223   4.617   5.140   2.744
 5313SOL    HW216224   4.456   5.128   2.715
 5314SOL     OW16225   4.646   4.227   2.761
 5314SOL    HW116226   4.621   4.218   2.665
 5314SOL    HW216227   4.694   4.145   2.792
 5315SOL     OW16228   4.263   3.788   2.374
 5315SOL    HW116229   4.182   3.789   2.432
 5315SOL    HW216230   4.266   3.871   2.319
 5316SOL     OW16231   5.158   4.912   1.903
 5316SOL    HW116232   5.190   4.836   1.960
 5316SOL    HW216233   5.066   4.939   1.933
 5317SOL     OW16234   4.021   3.759   2.033
 5317SOL    HW116235   4.070   3.843   2.012
 5317SOL    HW216236   4.083   3.694   2.078
 5318SOL     OW16237   4.659   3.960   2.342
 5318SOL    HW116238   4.611   4.001   2.264
 5318SOL    HW216239   4.758   3.958   2.323
 5319SOL     OW16240   4.800   4.407   3.326
 5319SOL    HW116241   4.720   4.346   3.329
 5319SOL    HW216242   4.881   4.354   3.302
 5320SOL     OW16243   4.951   5.294   2.655
 5320SOL    HW116244   4.972   5.368   2.590
 5320SOL    HW216245   5.019   5.294   2.728
 5321SOL     OW16246   4.183   4.876   2.603
 5321SOL    HW116247   4.112   4.849   2.668
 5321SOL    HW216248   4.157   4.848   2.510
 5322SOL     OW16249   4.995   5.521   2.453
 5322SOL    HW116250   5.039   5.585   2.389
 5322SOL    HW216251   4.945   5.573   2.523
 5323SOL     OW16252   4.756   4.273   1.878
 5323SOL    HW116253   4.715   4.355   1.839
 5323SOL    HW216254   4.820   4.299   1.951
 5324SOL     OW16255   3.802   4.280   3.248
 5324SOL    HW116256   3.894   4.279   3.207
 5324SOL    HW216257   3.796   4.354   3.315
 5325SOL     OW16258   4.285   3.946   3.009
 5325SOL    HW116259   4.323   3.862   3.046
 5325SOL    HW216260   4.197   3.965   3.053
 5326SOL     OW16261   4.590   4.178   2.504
 5326SOL    HW116262   4.558   4.250   2.442
 5326SOL    HW216263   4.614   4.097   2.451
 5327SOL     OW16264   4.741   3.763   2.615
 5327SOL    HW116265   4.669   3.768   2.546
 5327SOL    HW216266   4.717   3.694   2.684
 5328SOL     OW16267   5.153   4.897   2.729
 5328SOL    HW116268   5.098   4.813   2.722
 5328SOL    HW216269   5.179   4.926   2.637
 5329SOL     OW16270   5.190   4.314   2.854
 5329SOL    HW116271   5.160   4.219   2.861
 5329SOL    HW216272   5.263   4.330   2.920
 5330SOL     OW16273   5.581   4.557   2.239
 5330SOL    HW116274   5.623   4.493   2.303
 5330SOL    HW216275   5.543   4.506   2.161
 5331SOL     OW16276   4.212   5.109   2.036
 5331SOL    HW116277   4.125   5.094   2.083
 5331SOL    HW216278   4.195   5.135   1.941
 5332SOL     OW16279   5.388   5.004   2.519
 5332SOL    HW116280   5.487   5.012   2.533
 5332SOL    HW216281   5.343   5.088   2.550
 5333SOL     OW16282   5.114   4.299   1.940
 5333SOL    HW116283   5.060   4.278   2.021
 5333SOL    HW216284   5.205   4.258   1.949
 5334SOL     OW16285   4.251   3.980   2.190
 5334SOL    HW116286   4.278   3.921   2.115
 5334SOL    HW216287   4.251   4.075   2.159
 5335SOL     OW16288   5.478   4.947   3.450
 5335SOL    HW116289   5.569   4.908   3.437
 5335SOL    HW216290   5.486   5.043   3.474
 5336SOL     OW16291   4.788   5.071   3.202
 5336SOL    HW116292   4.708   5.048   3.257
 5336SOL    HW216293   4.871   5.045   3.251
 5337SOL     OW16294   5.316   5.353   3.487
 5337SOL    HW116295   5.343   5.387   3.397
 5337SOL    HW216296   5.395   5.315   3.533
 5338SOL     OW16297   4.835   4.919   2.962
 5338SOL    HW116298   4.795   4.963   3.043
 5338SOL    HW216299   4.794   4.956   2.879
 5339SOL     OW16300   5.362   4.823   2.941
 5339SOL    HW116301   5.367   4.904   3.000
 5339SOL    HW216302   5.276   4.825   2.890
 5340SOL     OW16303   4.639   3.813   3.264
 5340SOL    HW116304   4.664   3.793   3.169
 5340SOL    HW216305   4.711   3.869   3.306
 5341SOL     OW16306   4.704   4.840   3.581
 5341SOL    HW116307   4.605   4.846   3.591
 5341SOL    HW216308   4.727   4.760   3.525
 5342SOL     OW16309   4.429   4.774   2.230
 5342SOL    HW116310   4.415   4.781   2.329
 5342SOL    HW216311   4.513   4.723   2.212
 5343SOL     OW16312   4.134   4.537   3.113
 5343SOL    HW116313   4.220   4.549   3.163
 5343SOL    HW216314   4.092   4.450   3.140
 5344SOL     OW16315   4.998   4.110   3.124
 5344SOL    HW116316   5.019   4.184   3.188
 5344SOL    HW216317   4.909   4.127   3.081
 5345SOL     OW16318   3.788   5.288   3.193
 5345SOL    HW116319   3.742   5.370   3.159
 5345SOL    HW216320   3.886   5.307   3.202
 5346SOL     OW16321   4.091   4.824   2.363
 5346SOL    HW116322   4.084   4.907   2.307
 5346SOL    HW216323   4.095   4.744   2.303
 5347SOL     OW16324   4.290   4.261   2.727
 5347SOL    HW116325   4.302   4.327   2.653
 5347SOL    HW216326   4.336   4.295   2.810
 5348SOL     OW16327   4.976   5.072   2.250
 5348SOL    HW116328   5.026   5.149   2.290
 5348SOL    HW216329   4.881   5.074   2.282
 5349SOL     OW16330   4.996   5.169   3.004
 5349SOL    HW116331   5.043   5.182   3.091
 5349SOL    HW216332   4.930   5.095   3.013
 5350SOL     OW16333   5.306   4.363   2.334
 5350SOL    HW116334   5.275   4.424   2.407
 5350SOL    HW216335   5.356   4.415   2.265
 5351SOL     OW16336   4.078   5.234   3.191
 5351SOL    HW116337   4.057   5.190   3.104
 5351SOL    HW216338   4.175   5.260   3.194
 5352SOL     OW16339   4.126   4.475   3.460
 5352SOL    HW116340   4.194   4.530   3.413
 5352SOL    HW216341   4.166   4.387   3.487
 5353SOL     OW16342   5.311   4.503   3.532
 5353SOL    HW116343   5.219   4.541   3.527
 5353SOL    HW216344   5.371   4.550   3.467
 5354SOL     OW16345   4.737   3.829   3.632
 5354SOL    HW116346   4.743   3.914   3.580
 5354SOL    HW216347   4.769   3.753   3.575
 5355SOL     OW16348   4.228   3.774   3.602
 5355SOL    HW116349   4.186   3.717   3.532
 5355SOL    HW216350   4.162   3.843   3.634
 5356SOL     OW16351   4.297   4.594   2.891
 5356SOL    HW116352   4.341   4.683   2.882
 5356SOL    HW216353   4.234   4.594   2.968
 5357SOL     OW16354   5.084   4.586   2.907
 5357SOL    HW116355   5.009   4.586   2.841
 5357SOL    HW216356   5.121   4.494   2.916
 5358SOL     OW16357   4.933   4.249   2.137
 5358SOL    HW116358   4.946   4.165   2.191
 5358SOL    HW216359   4.904   4.323   2.197
 5359SOL     OW16360   4.031   3.937   3.093
 5359SOL    HW116361   4.008   3.974   3.183
 5359SOL    HW216362   4.001   3.842   3.087
 5360SOL     OW16363   3.761   5.034   3.144
 5360SOL    HW116364   3.814   4.985   3.212
 5360SOL    HW216365   3.783   5.132   3.149
 5361SOL     OW16366   4.456   4.358   2.926
 5361SOL    HW116367   4.515   4.332   2.850
 5361SOL    HW216368   4.428   4.454   2.915
 5362SOL     OW16369   5.452   4.659   3.716
 5362SOL    HW116370   5.406   4.652   3.627
 5362SOL    HW216371   5.390   4.703   3.782
 5363SOL     OW16372   4.031   3.787   2.480
 5363SOL    HW116373   4.020   3.881   2.513
 5363SOL    HW216374   4.026   3.724   2.557
 5364SOL     OW16375   5.346   4.091   2.236
 5364SOL    HW116376   5.348   4.015   2.300
 5364SOL    HW216377   5.298   4.168   2.276
 5365SOL     OW16378   4.747   4.490   2.828
 5365SOL    HW116379   4.762   4.511   2.924
 5365SOL    HW216380   4.717   4.395   2.819
 5366SOL     OW16381   4.704   5.297   3.562
 5366SOL    HW116382   4.684   5.341   3.474
 5366SOL    HW216383   4.743   5.206   3.546
 5367SOL     OW16384   5.583   5.242   3.467
 5367SOL    HW116385   5.597   5.269   3.372
 5367SOL    HW216386   5.666   5.264   3.520
 5368SOL     OW16387   4.074   4.622   3.666
 5368SOL    HW116388   4.150   4.666   3.714
 5368SOL    HW216389   4.109   4.575   3.584
 5369SOL     OW16390   5.264   3.998   1.987
 5369SOL    HW116391   5.203   3.923   2.010
 5369SOL    HW216392   5.286   4.050   2.070
 5370SOL     OW16393   5.027   4.562   1.904
 5370SOL    HW116394   5.061   4.469   1.919
 5370SOL    HW216395   5.045   4.589   1.809
 5371SOL     OW16396   4.792   5.057   2.711
 5371SOL    HW116397   4.799   4.973   2.656
 5371SOL    HW216398   4.854   5.126   2.675
 5372SOL     OW16399   4.043   4.534   2.811
 5372SOL    HW116400   4.136   4.570   2.816
 5372SOL    HW216401   4.037   4.449   2.863
 5373SOL     OW16402   4.063   4.233   2.868
 5373SOL    HW116403   4.011   4.150   2.851
 5373SOL    HW216404   4.140   4.238   2.804
 5374SOL     OW16405   4.862   4.104   3.540
 5374SOL    HW116406   4.817   4.167   3.604
 5374SOL    HW216407   4.955   4.135   3.523
 5375SOL     OW16408   4.884   3.931   3.339
 5375SOL    HW116409   4.884   3.995   3.416
 5375SOL    HW216410   4.912   3.979   3.256
 5376SOL     OW16411   3.732   5.050   2.062
 5376SOL    HW116412   3.639   5.071   2.031
 5376SOL    HW216413   3.742   4.951   2.075
 5377SOL     OW16414   3.812   5.525   2.789
 5377SOL    HW116415   3.770   5.439   2.762
 5377SOL    HW216416   3.906   5.528   2.755
 5378SOL     OW16417   4.228   5.292   2.772
 5378SOL    HW116418   4.294   5.366   2.781
 5378SOL    HW216419   4.272   5.213   2.730
 5379SOL     OW16420   4.726   4.520   3.100
 5379SOL    HW116421   4.767   4.488   3.186
 5379SOL    HW216422   4.630   4.493   3.097
 5380SOL     OW16423   3.764   4.268   2.976
 5380SOL    HW116424   3.849   4.235   2.935
 5380SOL    HW216425   3.777   4.283   3.074
 5381SOL     OW16426   3.913   4.244   3.584
 5381SOL    HW116427   3.972   4.204   3.514
 5381SOL    HW216428   3.855   4.315   3.543
 5382SOL     OW16429   5.093   4.674   3.522
 5382SOL    HW116430   5.132   4.763   3.542
 5382SOL    HW216431   5.103   4.654   3.425
 5383SOL     OW16432   4.539   4.296   2.187
 5383SOL    HW116433   4.546   4.207   2.141
 5383SOL    HW216434   4.445   4.330   2.179
 5384SOL     OW16435   5.381   4.328   3.068
 5384SOL    HW116436   5.343   4.259   3.130
 5384SOL    HW216437   5.463   4.292   3.024
 5385SOL     OW16438   3.976   5.288   3.606
 5385SOL    HW116439   3.946   5.345   3.682
 5385SOL    HW216440   3.969   5.191   3.632
 5386SOL     OW16441   4.395   4.188   3.131
 5386SOL    HW116442   4.361   4.099   3.101
 5386SOL    HW216443   4.421   4.242   3.051
 5387SOL     OW16444   4.654   5.402   3.327
 5387SOL    HW116445   4.630   5.384   3.232
 5387SOL    HW216446   4.684   5.496   3.337
 5388SOL     OW16447   4.197   4.224   2.053
 5388SOL    HW116448   4.258   4.304   2.057
 5388SOL    HW216449   4.102   4.255   2.060
 5389SOL     OW16450   3.883   4.861   3.328
 5389SOL    HW116451   3.905   4.800   3.404
 5389SOL    HW216452   3.893   4.812   3.242
 5390SOL     OW16453   5.071   4.783   3.096
 5390SOL    HW116454   5.095   4.720   3.022
 5390SOL    HW216455   4.981   4.823   3.078
 5391SOL     OW16456   5.026   4.579   2.171
 5391SOL    HW116457   4.940   4.548   2.213
 5391SOL    HW216458   5.022   4.565   2.072
 5392SOL     OW16459   5.483   5.471   3.016
 5392SOL    HW116460   5.544   5.501   2.943
 5392SOL    HW216461   5.445   5.382   2.994
 5393SOL     OW16462   4.976   5.455   2.990
 5393SOL    HW116463   5.060   5.460   2.936
 5393SOL    HW216464   4.953   5.359   3.008
 5394SOL     OW16465   3.807   4.982   2.884
 5394SOL    HW116466   3.802   4.981   2.984
 5394SOL    HW216467   3.724   4.941   2.846
 5395SOL     OW16468   4.412   5.386   3.578
 5395SOL    HW116469   4.356   5.467   3.587
 5395SOL    HW216470   4.464   5.390   3.492
 5396SOL     OW16471   5.450   3.859   2.385
 5396SOL    HW116472   5.523   3.842   2.318
 5396SOL    HW216473   5.419   3.772   2.423
 5397SOL     OW16474   5.112   5.297   2.339
 5397SOL    HW116475   5.179   5.309   2.265
 5397SOL    HW216476   5.072   5.386   2.362
 5398SOL     OW16477   3.854   5.518   3.713
 5398SOL    HW116478   3.813   5.444   3.766
 5398SOL    HW216479   3.918   5.569   3.771
 5399SOL     OW16480   5.004   4.651   2.534
 5399SOL    HW116481   5.064   4.570   2.536
 5399SOL    HW216482   5.044   4.720   2.474
 5400SOL     OW16483   4.554   4.997   3.284
 5400SOL    HW116484   4.549   5.030   3.379
 5400SOL    HW216485   4.468   5.016   3.238
 5401SOL     OW16486   4.396   5.340   2.016
 5401SOL    HW116487   4.405   5.350   1.917
 5401SOL    HW216488   4.356   5.251   2.037
 5402SOL     OW16489   5.374   5.444   3.256
 5402SOL    HW116490   5.427   5.454   3.172
 5402SOL    HW216491   5.347   5.534   3.290
 5403SOL     OW16492   5.565   3.899   2.825
 5403SOL    HW116493   5.604   3.814   2.789
 5403SOL    HW216494   5.467   3.901   2.806
 5404SOL     OW16495   3.987   4.050   2.582
 5404SOL    HW116496   3.908   4.101   2.548
 5404SOL    HW216497   3.978   4.035   2.680
 5405SOL     OW16498   4.918   5.336   1.893
 5405SOL    HW116499   4.924   5.243   1.930
 5405SOL    HW216500   4.859   5.336   1.813
 5406SOL     OW16501   4.546   4.726   3.234
 5406SOL    HW116502   4.586   4.725   3.142
 5406SOL    HW216503   4.556   4.818   3.274
 5407SOL     OW16504   4.640   4.634   2.153
 5407SOL    HW116505   4.703   4.672   2.085
 5407SOL    HW216506   4.680   4.551   2.192
 5408SOL     OW16507   5.228   5.331   1.906
 5408SOL    HW116508   5.136   5.368   1.913
 5408SOL    HW216509   5.266   5.351   1.816
 5409SOL     OW16510   4.096   5.012   3.352
 5409SOL    HW116511   4.083   5.105   3.318
 5409SOL    HW216512   4.012   4.960   3.339
 5410SOL     OW16513   5.338   5.016   3.151
 5410SOL    HW116514   5.398   5.019   3.231
 5410SOL    HW216515   5.263   5.080   3.164
 5411SOL     OW16516   4.763   4.822   2.558
 5411SOL    HW116517   4.693   4.775   2.612
 5411SOL    HW216518   4.822   4.754   2.515
 5412SOL     OW16519   4.738   3.960   2.833
 5412SOL    HW116520   4.730   3.924   2.740
 5412SOL    HW216521   4.736   3.884   2.898
 5413SOL     OW16522   4.314   5.211   2.353
 5413SOL    HW116523   4.356   5.153   2.283
 5413SOL    HW216524   4.270   5.290   2.309
 5414SOL     OW16525   5.433   4.109   3.243
 5414SOL    HW116526   5.506   4.178   3.247
 5414SOL    HW216527   5.461   4.034   3.184
 5415SOL     OW16528   3.979   5.072   2.152
 5415SOL    HW116529   3.883   5.073   2.125
 5415SOL    HW216530   3.991   5.125   2.236
 5416SOL     OW16531   3.829   4.737   3.588
 5416SOL    HW116532   3.752   4.704   3.642
 5416SOL    HW216533   3.914   4.707   3.630
 5417SOL     OW16534   4.396   3.927   3.351
 5417SOL    HW116535   4.486   3.911   3.311
 5417SOL    HW216536   4.404   3.932   3.450
 5418SOL     OW16537   3.799   4.069   1.895
 5418SOL    HW116538   3.707   4.041   1.866
 5418SOL    HW216539   3.830   4.146   1.839
 5419SOL     OW16540   5.164   4.580   3.260
 5419SOL    HW116541   5.107   4.632   3.197
 5419SOL    HW216542   5.260   4.592   3.236
 5420SOL     OW16543   3.796   3.890   2.180
 5420SOL    HW116544   3.779   3.973   2.126
 5420SOL    HW216545   3.886   3.853   2.158
 5421SOL     OW16546   4.907   5.059   1.981
 5421SOL    HW116547   4.808   5.048   1.983
 5421SOL    HW216548   4.941   5.074   2.074
 5422SOL     OW16549   4.337   4.566   3.293
 5422SOL    HW116550   4.393   4.647   3.276
 5422SOL    HW216551   4.396   4.486   3.296
 5423SOL     OW16552   5.217   5.491   2.821
 5423SOL    HW116553   5.250   5.555   2.752
 5423SOL    HW216554   5.283   5.485   2.896
 5424SOL     OW16555   4.440   4.289   3.570
 5424SOL    HW116556   4.459   4.354   3.644
 5424SOL    HW216557   4.500   4.209   3.579
 5425SOL     OW16558   5.174   4.944   3.495
 5425SOL    HW116559   5.165   4.934   3.594
 5425SOL    HW216560   5.270   4.937   3.469
 5426SOL     OW16561   4.114   5.465   3.422
 5426SOL    HW116562   4.023   5.506   3.420
 5426SOL    HW216563   4.107   5.371   3.454
 5427SOL     OW16564   5.398   4.607   3.116
 5427SOL    HW116565   5.371   4.518   3.079
 5427SOL    HW216566   5.399   4.675   3.043
 5428SOL     OW16567   4.949   4.049   2.311
 5428SOL    HW116568   5.014   3.975   2.300
 5428SOL    HW216569   4.969   4.099   2.395
 5429SOL     OW16570   4.318   4.469   2.514
 5429SOL    HW116571   4.368   4.554   2.495
 5429SOL    HW216572   4.230   4.471   2.466
 5430SOL     OW16573   5.501   4.066   3.504
 5430SOL    HW116574   5.484   4.097   3.410
 5430SOL    HW216575   5.417   4.029   3.542
 5431SOL     OW16576   5.454   4.658   3.379
 5431SOL    HW116577   5.492   4.749   3.394
 5431SOL    HW216578   5.446   4.641   3.280
 5432SOL     OW16579   4.583   5.098   1.878
 5432SOL    HW116580   4.537   5.113   1.966
 5432SOL    HW216581   4.627   5.183   1.848
 5433SOL     OW16582   4.385   5.514   2.815
 5433SOL    HW116583   4.339   5.602   2.802
 5433SOL    HW216584   4.484   5.526   2.808
 5434SOL     OW16585   4.583   4.680   2.723
 5434SOL    HW116586   4.637   4.611   2.771
 5434SOL    HW216587   4.551   4.749   2.789
 5435SOL     OW16588   4.807   4.708   1.949
 5435SOL    HW116589   4.784   4.761   1.867
 5435SOL    HW216590   4.888   4.652   1.930
 5436SOL     OW16591   5.585   5.293   2.713
 5436SOL    HW116592   5.514   5.281   2.643
 5436SOL    HW216593   5.586   5.214   2.773
 5437SOL     OW16594   3.945   5.038   3.706
 5437SOL    HW116595   3.880   4.965   3.685
 5437SOL    HW216596   3.949   5.052   3.804
 5438SOL     OW16597   3.803   4.964   2.515
 5438SOL    HW116598   3.802   4.917   2.603
 5438SOL    HW216599   3.885   4.936   2.464
 5439SOL     OW16600   4.396   5.115   3.486
 5439SOL    HW116601   4.318   5.065   3.524
 5439SOL    HW216602   4.393   5.210   3.517
 5440SOL     OW16603   5.548   3.916   3.089
 5440SOL    HW116604   5.544   3.826   3.133
 5440SOL    HW216605   5.551   3.905   2.990
 5441SOL     OW16606   4.152   4.148   2.382
 5441SOL    HW116607   4.182   4.076   2.320
 5441SOL    HW216608   4.113   4.108   2.465
 5442SOL     OW16609   5.429   5.211   2.966
 5442SOL    HW116610   5.336   5.186   2.939
 5442SOL    HW216611   5.455   5.161   3.048
 5443SOL     OW16612   4.041   4.271   3.142
 5443SOL    HW116613   4.079   4.212   3.214
 5443SOL    HW216614   4.081   4.245   3.054
 5444SOL     OW16615   4.536   5.310   2.549
 5444SOL    HW116616   4.568   5.320   2.455
 5444SOL    HW216617   4.457   5.248   2.551
 5445SOL     OW16618   5.148   3.938   2.974
 5445SOL    HW116619   5.200   3.873   3.029
 5445SOL    HW216620   5.099   4.001   3.035
 5446SOL     OW16621   4.725   3.758   3.016
 5446SOL    HW116622   4.662   3.686   2.985
 5446SOL    HW216623   4.818   3.722   3.016
 5447SOL     OW16624   4.494   5.054   2.163
 5447SOL    HW116625   4.448   4.967   2.180
 5447SOL    HW216626   4.585   5.051   2.204
 5448SOL     OW16627   4.342   5.291   3.146
 5448SOL    HW116628   4.337   5.373   3.203
 5448SOL    HW216629   4.431   5.288   3.101
 5449SOL     OW16630   5.076   3.776   2.030
 5449SOL    HW116631   5.111   3.735   1.946
 5449SOL    HW216632   4.986   3.738   2.050
 5450SOL     OW16633   5.024   4.177   2.553
 5450SOL    HW116634   4.965   4.257   2.557
 5450SOL    HW216635   5.039   4.142   2.646
 5451SOL     OW16636   5.317   3.945   2.744
 5451SOL    HW116637   5.233   3.944   2.798
 5451SOL    HW216638   5.319   4.028   2.688
 5452SOL     OW16639   3.763   4.801   2.162
 5452SOL    HW116640   3.862   4.790   2.153
 5452SOL    HW216641   3.723   4.715   2.194
 5453SOL     OW16642   4.599   5.370   2.199
 5453SOL    HW116643   4.522   5.335   2.145
 5453SOL    HW216644   4.567   5.441   2.261
 5454SOL     OW16645   3.954   4.352   3.837
 5454SOL    HW116646   3.861   4.350   3.874
 5454SOL    HW216647   3.955   4.313   3.745
 5455SOL     OW16648   3.949   3.999   4.720
 5455SOL    HW116649   3.984   3.982   4.812
 5455SOL    HW216650   3.861   3.954   4.708
 5456SOL     OW16651   3.743   4.092   4.371
 5456SOL    HW116652   3.661   4.135   4.410
 5456SOL    HW216653   3.715   4.019   4.308
 5457SOL     OW16654   4.293   4.999   4.889
 5457SOL    HW116655   4.200   4.992   4.852
 5457SOL    HW216656   4.304   5.088   4.933
 5458SOL     OW16657   5.279   5.235   4.427
 5458SOL    HW116658   5.222   5.219   4.508
 5458SOL    HW216659   5.220   5.245   4.347
 5459SOL     OW16660   4.859   4.427   4.441
 5459SOL    HW116661   4.916   4.505   4.416
 5459SOL    HW216662   4.799   4.453   4.517
 5460SOL     OW16663   5.479   4.331   3.955
 5460SOL    HW116664   5.467   4.318   3.856
 5460SOL    HW216665   5.449   4.250   4.004
 5461SOL     OW16666   4.492   4.868   4.747
 5461SOL    HW116667   4.414   4.885   4.807
 5461SOL    HW216668   4.526   4.955   4.711
 5462SOL     OW16669   4.574   4.522   5.547
 5462SOL    HW116670   4.570   4.598   5.612
 5462SOL    HW216671   4.596   4.558   5.456
 5463SOL     OW16672   4.409   4.736   4.389
 5463SOL    HW116673   4.478   4.720   4.459
 5463SOL    HW216674   4.336   4.793   4.427
 5464SOL     OW16675   4.410   4.885   5.527
 5464SOL    HW116676   4.470   4.964   5.541
 5464SOL    HW216677   4.324   4.916   5.486
 5465SOL     OW16678   4.059   5.159   4.785
 5465SOL    HW116679   3.981   5.128   4.732
 5465SOL    HW216680   4.117   5.217   4.728
 5466SOL     OW16681   5.184   5.229   5.063
 5466SOL    HW116682   5.208   5.323   5.089
 5466SOL    HW216683   5.168   5.175   5.145
 5467SOL     OW16684   4.162   4.116   5.223
 5467SOL    HW116685   4.244   4.060   5.232
 5467SOL    HW216686   4.081   4.058   5.227
 5468SOL     OW16687   5.327   4.171   4.461
 5468SOL    HW116688   5.253   4.217   4.411
 5468SOL    HW216689   5.378   4.239   4.514
 5469SOL     OW16690   3.955   5.437   4.207
 5469SOL    HW116691   3.989   5.514   4.261
 5469SOL    HW216692   3.999   5.437   4.117
 5470SOL     OW16693   4.851   5.065   5.414
 5470SOL    HW116694   4.898   5.065   5.502
 5470SOL    HW216695   4.803   4.978   5.403
 5471SOL     OW16696   3.954   5.158   4.262
 5471SOL    HW116697   3.928   5.254   4.262
 5471SOL    HW216698   3.883   5.104   4.307
 5472SOL     OW16699   3.964   4.815   4.610
 5472SOL    HW116700   3.978   4.731   4.662
 5472SOL    HW216701   3.909   4.879   4.665
 5473SOL     OW16702   4.344   5.510   5.163
 5473SOL    HW116703   4.252   5.493   5.198
 5473SOL    HW216704   4.372   5.602   5.189
 5474SOL     OW16705   4.330   4.688   3.847
 5474SOL    HW116706   4.337   4.772   3.793
 5474SOL    HW216707   4.376   4.701   3.935
 5475SOL     OW16708   5.318   3.838   5.204
 5475SOL    HW116709   5.300   3.905   5.132
 5475SOL    HW216710   5.315   3.884   5.293
 5476SOL     OW16711   3.846   4.367   4.287
 5476SOL    HW116712   3.801   4.279   4.304
 5476SOL    HW216713   3.845   4.421   4.371
 5477SOL     OW16714   5.566   5.491   4.083
 5477SOL    HW116715   5.620   5.462   4.163
 5477SOL    HW216716   5.596   5.581   4.054
 5478SOL     OW16717   3.751   5.320   3.841
 5478SOL    HW116718   3.732   5.224   3.862
 5478SOL    HW216719   3.718   5.378   3.916
 5479SOL     OW16720   5.413   4.646   4.336
 5479SOL    HW116721   5.508   4.617   4.344
 5479SOL    HW216722   5.405   4.711   4.261
 5480SOL     OW16723   5.365   4.832   4.156
 5480SOL    HW116724   5.451   4.834   4.104
 5480SOL    HW216725   5.379   4.879   4.244
 5481SOL     OW16726   3.837   4.461   5.321
 5481SOL    HW116727   3.925   4.448   5.366
 5481SOL    HW216728   3.824   4.558   5.299
 5482SOL     OW16729   4.337   5.089   4.450
 5482SOL    HW116730   4.288   5.002   4.459
 5482SOL    HW216731   4.314   5.132   4.363
 5483SOL     OW16732   5.017   4.952   5.147
 5483SOL    HW116733   5.054   4.879   5.089
 5483SOL    HW216734   5.069   4.957   5.232
 5484SOL     OW16735   4.533   3.728   4.226
 5484SOL    HW116736   4.573   3.819   4.217
 5484SOL    HW216737   4.433   3.736   4.232
 5485SOL     OW16738   3.921   4.700   4.988
 5485SOL    HW116739   4.010   4.655   4.974
 5485SOL    HW216740   3.848   4.635   4.969
 5486SOL     OW16741   5.249   4.723   3.914
 5486SOL    HW116742   5.186   4.647   3.927
 5486SOL    HW216743   5.297   4.741   4.000
 5487SOL     OW16744   4.911   5.516   5.340
 5487SOL    HW116745   4.935   5.576   5.264
 5487SOL    HW216746   4.918   5.421   5.310
 5488SOL     OW16747   4.041   3.975   5.525
 5488SOL    HW116748   4.112   4.046   5.531
 5488SOL    HW216749   3.953   4.014   5.553
 5489SOL     OW16750   5.190   5.141   4.677
 5489SOL    HW116751   5.131   5.147   4.757
 5489SOL    HW216752   5.175   5.053   4.631
 5490SOL     OW16753   5.391   5.438   4.296
 5490SOL    HW116754   5.350   5.415   4.208
 5490SOL    HW216755   5.373   5.364   4.361
 5491SOL     OW16756   4.322   4.453   3.994
 5491SOL    HW116757   4.346   4.522   3.926
 5491SOL    HW216758   4.244   4.486   4.048
 5492SOL     OW16759   5.005   4.069   4.668
 5492SOL    HW116760   4.919   4.019   4.655
 5492SOL    HW216761   5.067   4.015   4.724
 5493SOL     OW16762   5.300   5.386   4.031
 5493SOL    HW116763   5.389   5.432   4.034
 5493SOL    HW216764   5.279   5.362   3.936
 5494SOL     OW16765   4.531   4.329   5.189
 5494SOL    HW116766   4.484   4.326   5.278
 5494SOL    HW216767   4.480   4.274   5.123
 5495SOL     OW16768   5.118   4.193   5.398
 5495SOL    HW116769   5.098   4.236   5.486
 5495SOL    HW216770   5.196   4.131   5.407
 5496SOL     OW16771   4.697   4.614   5.296
 5496SOL    HW116772   4.743   4.530   5.267
 5496SOL    HW216773   4.641   4.648   5.221
 5497SOL     OW16774   4.715   4.134   4.966
 5497SOL    HW116775   4.638   4.168   5.020
 5497SOL    HW216776   4.681   4.083   4.887
 5498SOL     OW16777   4.765   4.425   4.153
 5498SOL    HW116778   4.791   4.421   4.249
 5498SOL    HW216779   4.680   4.374   4.139
 5499SOL     OW16780   3.800   4.535   4.513
 5499SOL    HW116781   3.899   4.523   4.522
 5499SOL    HW216782   3.776   4.630   4.534
 5500SOL     OW16783   3.854   5.545   5.295
 5500SOL    HW116784   3.844   5.530   5.394
 5500SOL    HW216785   3.768   5.581   5.259
 5501SOL     OW16786   4.589   4.072   3.919
 5501SOL    HW116787   4.648   4.135   3.870
 5501SOL    HW216788   4.608   3.978   3.890
 5502SOL     OW16789   5.443   4.309   5.555
 5502SOL    HW116790   5.417   4.398   5.519
 5502SOL    HW216791   5.441   4.241   5.482
 5503SOL     OW16792   5.086   4.868   4.269
 5503SOL    HW116793   5.169   4.839   4.221
 5503SOL    HW216794   5.037   4.935   4.213
 5504SOL     OW16795   4.274   3.920   4.609
 5504SOL    HW116796   4.269   3.915   4.709
 5504SOL    HW216797   4.276   4.016   4.580
 5505SOL     OW16798   4.732   5.180   4.201
 5505SOL    HW116799   4.686   5.252   4.149
 5505SOL    HW216800   4.728   5.200   4.299
 5506SOL     OW16801   4.075   5.525   4.577
 5506SOL    HW116802   4.125   5.439   4.583
 5506SOL    HW216803   4.140   5.602   4.574
 5507SOL     OW16804   5.519   4.790   4.597
 5507SOL    HW116805   5.457   4.775   4.521
 5507SOL    HW216806   5.467   4.801   4.682
 5508SOL     OW16807   4.951   5.274   5.230
 5508SOL    HW116808   4.957   5.197   5.294
 5508SOL    HW216809   4.899   5.248   5.150
 5509SOL     OW16810   4.045   4.667   3.966
 5509SOL    HW116811   4.127   4.706   3.924
 5509SOL    HW216812   4.018   4.585   3.917
 5510SOL     OW16813   5.182   4.459   4.452
 5510SOL    HW116814   5.177   4.394   4.527
 5510SOL    HW216815   5.262   4.518   4.465
 5511SOL     OW16816   4.185   4.990   5.451
 5511SOL    HW116817   4.135   4.991   5.365
 5511SOL    HW216818   4.122   4.972   5.527
 5512SOL     OW16819   4.835   5.500   3.961
 5512SOL    HW116820   4.775   5.438   4.011
 5512SOL    HW216821   4.866   5.456   3.876
 5513SOL     OW16822   3.926   4.009   5.222
 5513SOL    HW116823   3.846   4.069   5.209
 5513SOL    HW216824   3.916   3.960   5.308
 5514SOL     OW16825   5.356   5.101   3.805
 5514SOL    HW116826   5.324   5.195   3.795
 5514SOL    HW216827   5.280   5.038   3.793
 5515SOL     OW16828   4.188   5.467   4.047
 5515SOL    HW116829   4.221   5.506   4.133
 5515SOL    HW216830   4.264   5.460   3.982
 5516SOL     OW16831   5.124   3.831   4.150
 5516SOL    HW116832   5.100   3.794   4.060
 5516SOL    HW216833   5.223   3.847   4.154
 5517SOL     OW16834   3.973   5.509   4.965
 5517SOL    HW116835   4.030   5.444   5.015
 5517SOL    HW216836   3.957   5.476   4.872
 5518SOL     OW16837   4.664   5.422   4.628
 5518SOL    HW116838   4.744   5.365   4.649
 5518SOL    HW216839   4.615   5.382   4.551
 5519SOL     OW16840   4.106   4.424   4.204
 5519SOL    HW116841   4.151   4.334   4.201
 5519SOL    HW216842   4.012   4.413   4.237
 5520SOL     OW16843   5.271   3.946   5.453
 5520SOL    HW116844   5.266   3.983   5.545
 5520SOL    HW216845   5.199   3.877   5.441
 5521SOL     OW16846   4.338   3.846   3.841
 5521SOL    HW116847   4.436   3.824   3.848
 5521SOL    HW216848   4.307   3.829   3.748
 5522SOL     OW16849   4.505   3.988   5.473
 5522SOL    HW116850   4.572   3.927   5.516
 5522SOL    HW216851   4.432   4.007   5.538
 5523SOL     OW16852   4.612   5.238   4.919
 5523SOL    HW116853   4.589   5.213   4.825
 5523SOL    HW216854   4.673   5.169   4.958
 5524SOL     OW16855   5.075   4.314   5.157
 5524SOL    HW116856   5.103   4.271   5.242
 5524SOL    HW216857   5.100   4.410   5.158
 5525SOL     OW16858   4.527   5.126   4.648
 5525SOL    HW116859   4.617   5.140   4.606
 5525SOL    HW216860   4.456   5.128   4.577
 5526SOL     OW16861   4.646   4.227   4.623
 5526SOL    HW116862   4.621   4.218   4.527
 5526SOL    HW216863   4.694   4.145   4.654
 5527SOL     OW16864   4.263   3.788   4.236
 5527SOL    HW116865   4.182   3.789   4.294
 5527SOL    HW216866   4.266   3.871   4.181
 5528SOL     OW16867   5.158   4.912   3.765
 5528SOL    HW116868   5.190   4.836   3.822
 5528SOL    HW216869   5.066   4.939   3.795
 5529SOL     OW16870   4.021   3.759   3.895
 5529SOL    HW116871   4.070   3.843   3.874
 5529SOL    HW216872   4.083   3.694   3.940
 5530SOL     OW16873   4.659   3.960   4.204
 5530SOL    HW116874   4.611   4.001   4.126
 5530SOL    HW216875   4.758   3.958   4.185
 5531SOL     OW16876   4.800   4.407   5.188
 5531SOL    HW116877   4.720   4.346   5.191
 5531SOL    HW216878   4.881   4.354   5.164
 5532SOL     OW16879   4.951   5.294   4.517
 5532SOL    HW116880   4.972   5.368   4.452
 5532SOL    HW216881   5.019   5.294   4.590
 5533SOL     OW16882   4.183   4.876   4.465
 5533SOL    HW116883   4.112   4.849   4.530
 5533SOL    HW216884   4.157   4.848   4.372
 5534SOL     OW16885   4.995   5.521   4.315
 5534SOL    HW116886   5.039   5.585   4.251
 5534SOL    HW216887   4.945   5.573   4.385
 5535SOL     OW16888   4.756   4.273   3.740
 5535SOL    HW116889   4.715   4.355   3.701
 5535SOL    HW216890   4.820   4.299   3.813
 5536SOL     OW16891   3.802   4.280   5.110
 5536SOL    HW116892   3.894   4.279   5.069
 5536SOL    HW216893   3.796   4.354   5.177
 5537SOL     OW16894   4.285   3.946   4.871
 5537SOL    HW116895   4.323   3.862   4.908
 5537SOL    HW216896   4.197   3.965   4.915
 5538SOL     OW16897   4.590   4.178   4.366
 5538SOL    HW116898   4.558   4.250   4.304
 5538SOL    HW216899   4.614   4.097   4.313
 5539SOL     OW16900   4.741   3.763   4.477
 5539SOL    HW116901   4.669   3.768   4.408
 5539SOL    HW216902   4.717   3.694   4.546
 5540SOL     OW16903   5.153   4.897   4.591
 5540SOL    HW116904   5.098   4.813   4.584
 5540SOL    HW216905   5.179   4.926   4.499
 5541SOL     OW16906   5.190   4.314   4.716
 5541SOL    HW116907   5.160   4.219   4.723
 5541SOL    HW216908   5.263   4.330   4.782
 5542SOL     OW16909   5.581   4.557   4.101
 5542SOL    HW116910   5.623   4.493   4.165
 5542SOL    HW216911   5.543   4.506   4.023
 5543SOL     OW16912   4.212   5.109   3.898
 5543SOL    HW116913   4.125   5.094   3.945
 5543SOL    HW216914   4.195   5.135   3.803
 5544SOL     OW16915   5.388   5.004   4.381
 5544SOL    HW116916   5.487   5.012   4.395
 5544SOL    HW216917   5.343   5.088   4.412
 5545SOL     OW16918   5.114   4.299   3.802
 5545SOL    HW116919   5.060   4.278   3.883
 5545SOL    HW216920   5.205   4.258   3.811
 5546SOL     OW16921   4.251   3.980   4.052
 5546SOL    HW116922   4.278   3.921   3.977
 5546SOL    HW216923   4.251   4.075   4.021
 5547SOL     OW16924   5.478   4.947   5.312
 5547SOL    HW116925   5.569   4.908   5.299
 5547SOL    HW216926   5.486   5.043   5.336
 5548SOL     OW16927   4.788   5.071   5.064
 5548SOL    HW116928   4.708   5.048   5.119
 5548SOL    HW216929   4.871   5.045   5.113
 5549SOL     OW16930   5.316   5.353   5.349
 5549SOL    HW116931   5.343   5.387   5.259
 5549SOL    HW216932   5.395   5.315   5.395
 5550SOL     OW16933   4.835   4.919   4.824
 5550SOL    HW116934   4.795   4.963   4.905
 5550SOL    HW216935   4.794   4.956   4.741
 5551SOL     OW16936   5.362   4.823   4.803
 5551SOL    HW116937   5.367   4.904   4.862
 5551SOL    HW216938   5.276   4.825   4.752
 5552SOL     OW16939   4.639   3.813   5.126
 5552SOL    HW116940   4.664   3.793   5.031
 5552SOL    HW216941   4.711   3.869   5.168
 5553SOL     OW16942   4.704   4.840   5.443
 5553SOL    HW116943   4.605   4.846   5.453
 5553SOL    HW216944   4.727   4.760   5.387
 5554SOL     OW16945   4.429   4.774   4.092
 5554SOL    HW116946   4.415   4.781   4.191
 5554SOL    HW216947   4.513   4.723   4.074
 5555SOL     OW16948   4.134   4.537   4.975
 5555SOL    HW116949   4.220   4.549   5.025
 5555SOL    HW216950   4.092   4.450   5.002
 5556SOL     OW16951   4.998   4.110   4.986
 5556SOL    HW116952   5.019   4.184   5.050
 5556SOL    HW216953   4.909   4.127   4.943
 5557SOL     OW16954   3.788   5.288   5.055
 5557SOL    HW116955   3.742   5.370   5.021
 5557SOL    HW216956   3.886   5.307   5.064
 5558SOL     OW16957   4.091   4.824   4.225
 5558SOL    HW116958   4.084   4.907   4.169
 5558SOL    HW216959   4.095   4.744   4.165
 5559SOL     OW16960   4.290   4.261   4.589
 5559SOL    HW116961   4.302   4.327   4.515
 5559SOL    HW216962   4.336   4.295   4.672
 5560SOL     OW16963   4.976   5.072   4.112
 5560SOL    HW116964   5.026   5.149   4.152
 5560SOL    HW216965   4.881   5.074   4.144
 5561SOL     OW16966   4.996   5.169   4.866
 5561SOL    HW116967   5.043   5.182   4.953
 5561SOL    HW216968   4.930   5.095   4.875
 5562SOL     OW16969   5.306   4.363   4.196
 5562SOL    HW116970   5.275   4.424   4.269
 5562SOL    HW216971   5.356   4.415   4.127
 5563SOL     OW16972   4.078   5.234   5.053
 5563SOL    HW116973   4.057   5.190   4.966
 5563SOL    HW216974   4.175   5.260   5.056
 5564SOL     OW16975   4.126   4.475   5.322
 5564SOL    HW116976   4.194   4.530   5.275
 5564SOL    HW216977   4.166   4.387   5.349
 5565SOL     OW16978   5.311   4.503   5.394
 5565SOL    HW116979   5.219   4.541   5.389
 5565SOL    HW216980   5.371   4.550   5.329
 5566SOL     OW16981   4.737   3.829   5.494
 5566SOL    HW116982   4.743   3.914   5.442
 5566SOL    HW216983   4.769   3.753   5.437
 5567SOL     OW16984   4.228   3.774   5.464
 5567SOL    HW116985   4.186   3.717   5.394
 5567SOL    HW216986   4.162   3.843   5.496
 5568SOL     OW16987   4.297   4.594   4.753
 5568SOL    HW116988   4.341   4.683   4.744
 5568SOL    HW216989   4.234   4.594   4.830
 5569SOL     OW16990   5.084   4.586   4.769
 5569SOL    HW116991   5.009   4.586   4.703
 5569SOL    HW216992   5.121   4.494   4.778
 5570SOL     OW16993   4.933   4.249   3.999
 5570SOL    HW116994   4.946   4.165   4.053
 5570SOL    HW216995   4.904   4.323   4.059
 5571SOL     OW16996   4.031   3.937   4.955
 5571SOL    HW116997   4.008   3.974   5.045
 5571SOL    HW216998   4.001   3.842   4.949
 5572SOL     OW16999   3.761   5.034   5.006
 5572SOL    HW117000   3.814   4.985   5.074
 5572SOL    HW217001   3.783   5.132   5.011
 5573SOL     OW17002   4.456   4.358   4.788
 5573SOL    HW117003   4.515   4.332   4.712
 5573SOL    HW217004   4.428   4.454   4.777
 5574SOL     OW17005   5.452   4.659   5.578
 5574SOL    HW117006   5.406   4.652   5.489
 5574SOL    HW217007   5.390   4.703   5.644
 5575SOL     OW17008   4.031   3.787   4.342
 5575SOL    HW117009   4.020   3.881   4.375
 5575SOL    HW217010   4.026   3.724   4.419
 5576SOL     OW17011   5.346   4.091   4.098
 5576SOL    HW117012   5.348   4.015   4.162
 5576SOL    HW217013   5.298   4.168   4.138
 5577SOL     OW17014   4.747   4.490   4.690
 5577SOL    HW117015   4.762   4.511   4.786
 5577SOL    HW217016   4.717   4.395   4.681
 5578SOL     OW17017   4.704   5.297   5.424
 5578SOL    HW117018   4.684   5.341   5.336
 5578SOL    HW217019   4.743   5.206   5.408
 5579SOL     OW17020   5.583   5.242   5.329
 5579SOL    HW117021   5.597   5.269   5.234
 5579SOL    HW217022   5.666   5.264   5.382
 5580SOL     OW17023   4.074   4.622   5.528
 5580SOL    HW117024   4.150   4.666   5.576
 5580SOL    HW217025   4.109   4.575   5.446
 5581SOL     OW17026   5.264   3.998   3.849
 5581SOL    HW117027   5.203   3.923   3.872
 5581SOL    HW217028   5.286   4.050   3.932
 5582SOL     OW17029   5.027   4.562   3.766
 5582SOL    HW117030   5.061   4.469   3.781
 5582SOL    HW217031   5.045   4.589   3.671
 5583SOL     OW17032   4.792   5.057   4.573
 5583SOL    HW117033   4.799   4.973   4.518
 5583SOL    HW217034   4.854   5.126   4.537
 5584SOL     OW17035   4.043   4.534   4.673
 5584SOL    HW117036   4.136   4.570   4.678
 5584SOL    HW217037   4.037   4.449   4.725
 5585SOL     OW17038   4.063   4.233   4.730
 5585SOL    HW117039   4.011   4.150   4.713
 5585SOL    HW217040   4.140   4.238   4.666
 5586SOL     OW17041   4.862   4.104   5.402
 5586SOL    HW117042   4.817   4.167   5.466
 5586SOL    HW217043   4.955   4.135   5.385
 5587SOL     OW17044   4.884   3.931   5.201
 5587SOL    HW117045   4.884   3.995   5.278
 5587SOL    HW217046   4.912   3.979   5.118
 5588SOL     OW17047   3.732   5.050   3.924
 5588SOL    HW117048   3.639   5.071   3.893
 5588SOL    HW217049   3.742   4.951   3.937
 5589SOL     OW17050   3.812   5.525   4.651
 5589SOL    HW117051   3.770   5.439   4.624
 5589SOL    HW217052   3.906   5.528   4.617
 5590SOL     OW17053   4.228   5.292   4.634
 5590SOL    HW117054   4.294   5.366   4.643
 5590SOL    HW217055   4.272   5.213   4.592
 5591SOL     OW17056   4.726   4.520   4.962
 5591SOL    HW117057   4.767   4.488   5.048
 5591SOL    HW217058   4.630   4.493   4.959
 5592SOL     OW17059   3.764   4.268   4.838
 5592SOL    HW117060   3.849   4.235   4.797
 5592SOL    HW217061   3.777   4.283   4.936
 5593SOL     OW17062   3.913   4.244   5.446
 5593SOL    HW117063   3.972   4.204   5.376
 5593SOL    HW217064   3.855   4.315   5.405
 5594SOL     OW17065   5.093   4.674   5.384
 5594SOL    HW117066   5.132   4.763   5.404
 5594SOL    HW217067   5.103   4.654   5.287
 5595SOL     OW17068   4.539   4.296   4.049
 5595SOL    HW117069   4.546   4.207   4.003
 5595SOL    HW217070   4.445   4.330   4.041
 5596SOL     OW17071   5.381   4.328   4.930
 5596SOL    HW117072   5.343   4.259   4.992
 5596SOL    HW217073   5.463   4.292   4.886
 5597SOL     OW17074   3.976   5.288   5.468
 5597SOL    HW117075   3.946   5.345   5.544
 5597SOL    HW217076   3.969   5.191   5.494
 5598SOL     OW17077   4.395   4.188   4.993
 5598SOL    HW117078   4.361   4.099   4.963
 5598SOL    HW217079   4.421   4.242   4.913
 5599SOL     OW17080   4.654   5.402   5.189
 5599SOL    HW117081   4.630   5.384   5.094
 5599SOL    HW217082   4.684   5.496   5.199
 5600SOL     OW17083   4.197   4.224   3.915
 5600SOL    HW117084   4.258   4.304   3.919
 5600SOL    HW217085   4.102   4.255   3.922
 5601SOL     OW17086   3.883   4.861   5.190
 5601SOL    HW117087   3.905   4.800   5.266
 5601SOL    HW217088   3.893   4.812   5.104
 5602SOL     OW17089   5.071   4.783   4.958
 5602SOL    HW117090   5.095   4.720   4.884
 5602SOL    HW217091   4.981   4.823   4.940
 5603SOL     OW17092   5.026   4.579   4.033
 5603SOL    HW117093   4.940   4.548   4.075
 5603SOL    HW217094   5.022   4.565   3.934
 5604SOL     OW17095   5.483   5.471   4.878
 5604SOL    HW117096   5.544   5.501   4.805
 5604SOL    HW217097   5.445   5.382   4.856
 5605SOL     OW17098   4.976   5.455   4.852
 5605SOL    HW117099   5.060   5.460   4.798
 5605SOL    HW217100   4.953   5.359   4.870
 5606SOL     OW17101   3.807   4.982   4.746
 5606SOL    HW117102   3.802   4.981   4.846
 5606SOL    HW217103   3.724   4.941   4.708
 5607SOL     OW17104   4.412   5.386   5.440
 5607SOL    HW117105   4.356   5.467   5.449
 5607SOL    HW217106   4.464   5.390   5.354
 5608SOL     OW17107   5.450   3.859   4.247
 5608SOL    HW117108   5.523   3.842   4.180
 5608SOL    HW217109   5.419   3.772   4.285
 5609SOL     OW17110   5.112   5.297   4.201
 5609SOL    HW117111   5.179   5.309   4.127
 5609SOL    HW217112   5.072   5.386   4.224
 5610SOL     OW17113   3.854   5.518   5.575
 5610SOL    HW117114   3.813   5.444   5.628
 5610SOL    HW217115   3.918   5.569   5.633
 5611SOL     OW17116   5.004   4.651   4.396
 5611SOL    HW117117   5.064   4.570   4.398
 5611SOL    HW217118   5.044   4.720   4.336
 5612SOL     OW17119   4.554   4.997   5.146
 5612SOL    HW117120   4.549   5.030   5.241
 5612SOL    HW217121   4.468   5.016   5.100
 5613SOL     OW17122   4.396   5.340   3.878
 5613SOL    HW117123   4.405   5.350   3.779
 5613SOL    HW217124   4.356   5.251   3.899
 5614SOL     OW17125   5.374   5.444   5.118
 5614SOL    HW117126   5.427   5.454   5.034
 5614SOL    HW217127   5.347   5.534   5.152
 5615SOL     OW17128   5.565   3.899   4.687
 5615SOL    HW117129   5.604   3.814   4.651
 5615SOL    HW217130   5.467   3.901   4.668
 5616SOL     OW17131   3.987   4.050   4.444
 5616SOL    HW117132   3.908   4.101   4.410
 5616SOL    HW217133   3.978   4.035   4.542
 5617SOL     OW17134   4.918   5.336   3.755
 5617SOL    HW117135   4.924   5.243   3.792
 5617SOL    HW217136   4.859   5.336   3.675
 5618SOL     OW17137   4.546   4.726   5.096
 5618SOL    HW117138   4.586   4.725   5.004
 5618SOL    HW217139   4.556   4.818   5.136
 5619SOL     OW17140   4.640   4.634   4.015
 5619SOL    HW117141   4.703   4.672   3.947
 5619SOL    HW217142   4.680   4.551   4.054
 5620SOL     OW17143   5.228   5.331   3.768
 5620SOL    HW117144   5.136   5.368   3.775
 5620SOL    HW217145   5.266   5.351   3.678
 5621SOL     OW17146   4.096   5.012   5.214
 5621SOL    HW117147   4.083   5.105   5.180
 5621SOL    HW217148   4.012   4.960   5.201
 5622SOL     OW17149   5.338   5.016   5.013
 5622SOL    HW117150   5.398   5.019   5.093
 5622SOL    HW217151   5.263   5.080   5.026
 5623SOL     OW17152   4.763   4.822   4.420
 5623SOL    HW117153   4.693   4.775   4.474
 5623SOL    HW217154   4.822   4.754   4.377
 5624SOL     OW17155   4.738   3.960   4.695
 5624SOL    HW117156   4.730   3.924   4.602
 5624SOL    HW217157   4.736   3.884   4.760
 5625SOL     OW17158   4.314   5.211   4.215
 5625SOL    HW117159   4.356   5.153   4.145
 5625SOL    HW217160   4.270   5.290   4.171
 5626SOL     OW17161   5.433   4.109   5.105
 5626SOL    HW117162   5.506   4.178   5.109
 5626SOL    HW217163   5.461   4.034   5.046
 5627SOL     OW17164   3.979   5.072   4.014
 5627SOL    HW117165   3.883   5.073   3.987
 5627SOL    HW217166   3.991   5.125   4.098
 5628SOL     OW17167   3.829   4.737   5.450
 5628SOL    HW117168   3.752   4.704   5.504
 5628SOL    HW217169   3.914   4.707   5.492
 5629SOL     OW17170   4.396   3.927   5.213
 5629SOL    HW117171   4.486   3.911   5.173
 5629SOL    HW217172   4.404   3.932   5.312
 5630SOL     OW17173   3.799   4.069   3.757
 5630SOL    HW117174   3.707   4.041   3.728
 5630SOL    HW217175   3.830   4.146   3.701
 5631SOL     OW17176   5.164   4.580   5.122
 5631SOL    HW117177   5.107   4.632   5.059
 5631SOL    HW217178   5.260   4.592   5.098
 5632SOL     OW17179   3.796   3.890   4.042
 5632SOL    HW117180   3.779   3.973   3.988
 5632SOL    HW217181   3.886   3.853   4.020
 5633SOL     OW17182   4.907   5.059   3.843
 5633SOL    HW117183   4.808   5.048   3.845
 5633SOL    HW217184   4.941   5.074   3.936
 5634SOL     OW17185   4.337   4.566   5.155
 5634SOL    HW117186   4.393   4.647   5.138
 5634SOL    HW217187   4.396   4.486   5.158
 5635SOL     OW17188   5.217   5.491   4.683
 5635SOL    HW117189   5.250   5.555   4.614
 5635SOL    HW217190   5.283   5.485   4.758
 5636SOL     OW17191   4.440   4.289   5.432
 5636SOL    HW117192   4.459   4.354   5.506
 5636SOL    HW217193   4.500   4.209   5.441
 5637SOL     OW17194   5.174   4.944   5.357
 5637SOL    HW117195   5.165   4.934   5.456
 5637SOL    HW217196   5.270   4.937   5.331
 5638SOL     OW17197   4.114   5.465   5.284
 5638SOL    HW117198   4.023   5.506   5.282
 5638SOL    HW217199   4.107   5.371   5.316
 5639SOL     OW17200   5.398   4.607   4.978
 5639SOL    HW117201   5.371   4.518   4.941
 5639SOL    HW217202   5.399   4.675   4.905
 5640SOL     OW17203   4.949   4.049   4.173
 5640SOL    HW117204   5.014   3.975   4.162
 5640SOL    HW217205   4.969   4.099   4.257
 5641SOL     OW17206   4.318   4.469   4.376
 5641SOL    HW117207   4.368   4.554   4.357
 5641SOL    HW217208   4.230   4.471   4.328
 5642SOL     OW17209   5.501   4.066   5.366
 5642SOL    HW117210   5.484   4.097   5.272
 5642SOL    HW217211   5.417   4.029   5.404
 5643SOL     OW17212   5.454   4.658   5.241
 5643SOL    HW117213   5.492   4.749   5.256
 5643SOL    HW217214   5.446   4.641   5.142
 5644SOL     OW17215   4.583   5.098   3.740
 5644SOL    HW117216   4.537   5.113   3.828
 5644SOL    HW217217   4.627   5.183   3.710
 5645SOL     OW17218   4.385   5.514   4.677
 5645SOL    HW117219   4.339   5.602   4.664
 5645SOL    HW217220   4.484   5.526   4.670
 5646SOL     OW17221   4.583   4.680   4.585
 5646SOL    HW117222   4.637   4.611   4.633
 5646SOL    HW217223   4.551   4.749   4.651
 5647SOL     OW17224   4.807   4.708   3.811
 5647SOL    HW117225   4.784   4.761   3.729
 5647SOL    HW217226   4.888   4.652   3.792
 5648SOL     OW17227   5.585   5.293   4.575
 5648SOL    HW117228   5.514   5.281   4.505
 5648SOL    HW217229   5.586   5.214   4.635
 5649SOL     OW17230   3.945   5.038   5.568
 5649SOL    HW117231   3.880   4.965   5.547
 5649SOL    HW217232   3.949   5.052   5.666
 5650SOL     OW17233   3.803   4.964   4.377
 5650SOL    HW117234   3.802   4.917   4.465
 5650SOL    HW217235   3.885   4.936   4.326
 5651SOL     OW17236   4.396   5.115   5.348
 5651SOL    HW117237   4.318   5.065   5.386
 5651SOL    HW217238   4.393   5.210   5.379
 5652SOL     OW17239   5.548   3.916   4.951
 5652SOL    HW117240   5.544   3.826   4.995
 5652SOL    HW217241   5.551   3.905   4.852
 5653SOL     OW17242   4.152   4.148   4.244
 5653SOL    HW117243   4.182   4.076   4.182
 5653SOL    HW217244   4.113   4.108   4.327
 5654SOL     OW17245   5.429   5.211   4.828
 5654SOL    HW117246   5.336   5.186   4.801
 5654SOL    HW217247   5.455   5.161   4.910
 5655SOL     OW17248   4.041   4.271   5.004
 5655SOL    HW117249   4.079   4.212   5.076
 5655SOL    HW217250   4.081   4.245   4.916
 5656SOL     OW17251   4.536   5.310   4.411
 5656SOL    HW117252   4.568   5.320   4.317
 5656SOL    HW217253   4.457   5.248   4.413
 5657SOL     OW17254   5.148   3.938   4.836
 5657SOL    HW117255   5.200   3.873   4.891
 5657SOL    HW217256   5.099   4.001   4.897
 5658SOL     OW17257   4.725   3.758   4.878
 5658SOL    HW117258   4.662   3.686   4.847
 5658SOL    HW217259   4.818   3.722   4.878
 5659SOL     OW17260   4.494   5.054   4.025
 5659SOL    HW117261   4.448   4.967   4.042
 5659SOL    HW217262   4.585   5.051   4.066
 5660SOL     OW17263   4.342   5.291   5.008
 5660SOL    HW117264   4.337   5.373   5.065
 5660SOL    HW217265   4.431   5.288   4.963
 5661SOL     OW17266   5.076   3.776   3.892
 5661SOL    HW117267   5.111   3.735   3.808
 5661SOL    HW217268   4.986   3.738   3.912
 5662SOL     OW17269   5.024   4.177   4.415
 5662SOL    HW117270   4.965   4.257   4.419
 5662SOL    HW217271   5.039   4.142   4.508
 5663SOL     OW17272   5.317   3.945   4.606
 5663SOL    HW117273   5.233   3.944   4.660
 5663SOL    HW217274   5.319   4.028   4.550
 5664SOL     OW17275   3.763   4.801   4.024
 5664SOL    HW117276   3.862   4.790   4.015
 5664SOL    HW217277   3.723   4.715   4.056
 5665SOL     OW17278   4.599   5.370   4.061
 5665SOL    HW117279   4.522   5.335   4.007
 5665SOL    HW217280   4.567   5.441   4.123
 5666SOL     OW17281   4.627   5.672   1.995
 5666SOL    HW117282   4.678   5.673   1.909
 5666SOL    HW217283   4.683   5.630   2.066
 5667SOL     OW17284   4.627   5.672   3.857
 5667SOL    HW117285   4.678   5.673   3.771
 5667SOL    HW217286   4.683   5.630   3.928
 5668SOL     OW17287   4.338   5.708   5.703
 5668SOL    HW117288   4.436   5.686   5.710
 5668SOL    HW217289   4.307   5.691   5.610
 5669SOL     OW17290   4.021   5.621   5.757
 5669SOL    HW117291   4.070   5.705   5.736
 5669SOL    HW217292   4.083   5.556   5.802
 5670SOL     OW17293   4.627   5.672   5.719
 5670SOL    HW117294   4.678   5.673   5.633
 5670SOL    HW217295   4.683   5.630   5.790
 5671SOL     OW17296   3.796   5.752   5.904
 5671SOL    HW117297   3.779   5.835   5.850
 5671SOL    HW217298   3.886   5.715   5.882
 5672SOL     OW17299   5.816   0.628   5.699
 5672SOL    HW117300   5.723   0.626   5.736
 5672SOL    HW217301   5.817   0.589   5.607
 5673SOL     OW17302   5.817   1.713   6.069
 5673SOL    HW117303   5.851   1.790   6.123
 5673SOL    HW217304   5.861   1.713   5.979
 5674SOL     OW17305   5.613   1.596   5.703
 5674SOL    HW117306   5.594   1.500   5.724
 5674SOL    HW217307   5.580   1.654   5.778
 5675SOL     OW17308   5.907   0.943   5.828
 5675SOL    HW117309   5.989   0.982   5.786
 5675SOL    HW217310   5.880   0.861   5.779
 5676SOL     OW17311   5.625   1.077   5.886
 5676SOL    HW117312   5.724   1.066   5.877
 5676SOL    HW217313   5.585   0.991   5.918
 5677SOL     OW17314   5.816   2.490   5.699
 5677SOL    HW117315   5.723   2.488   5.736
 5677SOL    HW217316   5.817   2.451   5.607
 5678SOL     OW17317   5.817   3.575   6.069
 5678SOL    HW117318   5.851   3.652   6.123
 5678SOL    HW217319   5.861   3.575   5.979
 5679SOL     OW17320   5.613   3.458   5.703
 5679SOL    HW117321   5.594   3.362   5.724
 5679SOL    HW217322   5.580   3.516   5.778
 5680SOL     OW17323   5.907   2.805   5.828
 5680SOL    HW117324   5.989   2.844   5.786
 5680SOL    HW217325   5.880   2.723   5.779
 5681SOL     OW17326   5.658   2.028   5.904
 5681SOL    HW117327   5.641   2.111   5.850
 5681SOL    HW217328   5.748   1.991   5.882
 5682SOL     OW17329   5.625   2.939   5.886
 5682SOL    HW117330   5.724   2.928   5.877
 5682SOL    HW217331   5.585   2.853   5.918
 5683SOL     OW17332   5.816   4.352   5.699
 5683SOL    HW117333   5.723   4.350   5.736
 5683SOL    HW217334   5.817   4.313   5.607
 5684SOL     OW17335   5.817   5.437   6.069
 5684SOL    HW117336   5.851   5.514   6.123
 5684SOL    HW217337   5.861   5.437   5.979
 5685SOL     OW17338   5.613   5.320   5.703
 5685SOL    HW117339   5.594   5.224   5.724
 5685SOL    HW217340   5.580   5.378   5.778
 5686SOL     OW17341   5.907   4.667   5.828
 5686SOL    HW117342   5.989   4.706   5.786
 5686SOL    HW217343   5.880   4.585   5.779
 5687SOL     OW17344   5.658   3.890   5.904
 5687SOL    HW117345   5.641   3.973   5.850
 5687SOL    HW217346   5.748   3.853   5.882
 5688SOL     OW17347   5.625   4.801   5.886
 5688SOL    HW117348   5.724   4.790   5.877
 5688SOL    HW217349   5.585   4.715   5.918
 5689SOL     OW17350   5.788   5.871   1.498
 5689SOL    HW117351   5.708   5.931   1.485
 5689SOL    HW217352   5.778   5.822   1.584
 5690SOL     OW17353   5.893   5.649   0.618
 5690SOL    HW117354   5.882   5.743   0.651
 5690SOL    HW217355   5.888   5.586   0.695
 5691SOL     OW17356   5.658   5.752   0.318
 5691SOL    HW117357   5.641   5.835   0.264
 5691SOL    HW217358   5.748   5.715   0.296
 5692SOL     OW17359   5.788   5.871   3.360
 5692SOL    HW117360   5.708   5.931   3.347
 5692SOL    HW217361   5.778   5.822   3.446
 5693SOL     OW17362   5.893   5.649   2.480
 5693SOL    HW117363   5.882   5.743   2.513
 5693SOL    HW217364   5.888   5.586   2.557
 5694SOL     OW17365   5.658   5.752   2.180
 5694SOL    HW117366   5.641   5.835   2.126
 5694SOL    HW217367   5.748   5.715   2.158
 5695SOL     OW17368   5.788   5.871   5.222
 5695SOL    HW117369   5.708   5.931   5.209
 5695SOL    HW217370   5.778   5.822   5.308
 5696SOL     OW17371   5.893   5.649   4.342
 5696SOL    HW117372   5.882   5.743   4.375
 5696SOL    HW217373   5.888   5.586   4.419
 5697SOL     OW17374   5.658   5.752   4.042
 5697SOL    HW117375   5.641   5.835   3.988
 5697SOL    HW217376   5.748   5.715   4.020
 5698SOL     OW17377   5.661   5.931   5.619
 5698SOL    HW117378   5.569   5.903   5.590
 5698SOL    HW217379   5.692   6.008   5.563
   5.74866   5.74866   5.74866
