GROup of MAchos and Cynical Suckers
  348
    1MET      N    1   3.053   2.798   1.246
    1MET     H1    2   3.093   2.707   1.232
    1MET     H2    3   2.960   2.789   1.280
    1MET     H3    4   3.052   2.847   1.159
    1MET     CA    5   3.111   2.851   1.316
    1MET     HA    6   3.167   2.905   1.253
    1MET     CB    7   3.061   2.747   1.416
    1MET    HB1    8   2.963   2.758   1.433
    1MET    HB2    9   3.111   2.753   1.502
    1MET     CG   10   3.091   2.617   1.341
    1MET    HG1   11   3.190   2.625   1.324
    1MET    HG2   12   3.042   2.631   1.255
    1MET     SD   13   3.052   2.454   1.412
    1MET     CE   14   2.871   2.448   1.426
    1MET    HE1   15   2.844   2.360   1.465
    1MET    HE2   16   2.840   2.522   1.486
    1MET    HE3   17   2.830   2.458   1.336
    1MET      C   18   3.139   2.931   1.376
    1MET      O   19   3.209   2.969   1.416
    2LYS      N   20   2.904   3.030   1.396
    2LYS     HN   21   2.855   3.019   1.309
    2LYS     CA   22   2.841   3.078   1.466
    2LYS     HA   23   2.844   2.983   1.500
    2LYS     CB   24   2.859   3.228   1.435
    2LYS    HB1   25   2.848   3.276   1.521
    2LYS    HB2   26   2.784   3.252   1.373
    2LYS     CG   27   2.987   3.284   1.371
    2LYS    HG1   28   3.005   3.238   1.284
    2LYS    HG2   29   3.065   3.270   1.432
    2LYS     CD   30   2.963   3.434   1.348
    2LYS    HD1   31   2.881   3.444   1.291
    2LYS    HD2   32   2.947   3.477   1.437
    2LYS     CE   33   3.079   3.506   1.280
    2LYS    HE1   34   3.054   3.602   1.266
    2LYS    HE2   35   3.096   3.464   1.191
    2LYS     NZ   36   3.205   3.503   1.357
    2LYS    HZ1   37   3.276   3.552   1.306
    2LYS    HZ2   38   3.191   3.546   1.446
    2LYS    HZ3   39   3.233   3.408   1.370
    2LYS      C   40   2.758   3.091   1.526
    2LYS      O   41   2.708   3.154   1.566
    3LEU      N   42   2.701   2.842   1.546
    3LEU     HN   43   2.720   2.796   1.459
    3LEU     CA   44   2.665   2.772   1.616
    3LEU     HA   45   2.761   2.785   1.639
    3LEU     CB   46   2.511   2.772   1.599
    3LEU    HB1   47   2.472   2.758   1.690
    3LEU    HB2   48   2.489   2.693   1.541
    3LEU     CG   49   2.440   2.894   1.537
    3LEU     HG   50   2.482   2.881   1.447
    3LEU    CD1   51   2.479   3.037   1.575
    3LEU   HD11   52   2.422   3.102   1.524
    3LEU   HD12   53   2.466   3.050   1.673
    3LEU   HD13   54   2.575   3.052   1.551
    3LEU    CD2   55   2.286   2.888   1.528
    3LEU   HD21   56   2.252   2.973   1.486
    3LEU   HD22   57   2.259   2.810   1.472
    3LEU   HD23   58   2.248   2.878   1.620
    3LEU      C   59   2.666   2.688   1.676
    3LEU      O   60   2.613   2.628   1.716
    4ALA      N   61   2.921   2.675   1.696
    4ALA     HN   62   2.963   2.702   1.609
    4ALA     CA   63   2.996   2.652   1.766
    4ALA     HA   64   2.974   2.743   1.800
    4ALA     CB   65   3.015   2.503   1.735
    4ALA    HB1   66   2.940   2.471   1.676
    4ALA    HB2   67   3.102   2.489   1.689
    4ALA    HB3   68   3.014   2.451   1.821
    4ALA      C   69   3.079   2.667   1.826
    4ALA      O   70   3.147   2.626   1.866
    5VAL      N   71   3.047   2.921   1.846
    5VAL     HN   72   3.014   2.958   1.759
    5VAL     CA   73   3.057   2.999   1.916
    5VAL     HA   74   3.152   3.017   1.892
    5VAL     CB   75   2.922   2.963   1.970
    5VAL     HB   76   2.846   3.001   1.918
    5VAL    CG1   77   2.928   3.017   2.114
    5VAL   HG11   78   2.841   2.998   2.160
    5VAL   HG12   79   3.003   2.972   2.163
    5VAL   HG13   80   2.944   3.116   2.112
    5VAL    CG2   81   2.905   2.812   1.967
    5VAL   HG21   82   2.815   2.788   2.003
    5VAL   HG22   83   2.913   2.780   1.873
    5VAL   HG23   84   2.976   2.769   2.023
    5VAL      C   85   3.027   3.078   1.976
    5VAL      O   86   3.056   3.152   2.016
    6PHE      N   87   2.784   3.002   1.996
    6PHE     HN   88   2.753   2.963   1.909
    6PHE     CA   89   2.705   2.999   2.066
    6PHE     HA   90   2.749   2.918   2.105
    6PHE     CB   91   2.644   3.136   2.028
    6PHE    HB1   92   2.555   3.121   1.984
    6PHE    HB2   93   2.706   3.182   1.963
    6PHE     CG   94   2.624   3.231   2.147
    6PHE    CD1   95   2.503   3.237   2.221
    6PHE    HD1   96   2.426   3.179   2.197
    6PHE    CE1   97   2.494   3.326   2.331
    6PHE    HE1   98   2.409   3.332   2.384
    6PHE     CZ   99   2.605   3.406   2.364
    6PHE     HZ  100   2.598   3.469   2.441
    6PHE    CD2  101   2.734   3.312   2.182
    6PHE    HD2  102   2.818   3.307   2.129
    6PHE    CE2  103   2.724   3.400   2.290
    6PHE    HE2  104   2.802   3.459   2.315
    6PHE      C  105   2.632   2.956   2.126
    6PHE      O  106   2.554   2.971   2.166
    7ALA      N  107   2.749   2.729   2.146
    7ALA     HN  108   2.793   2.706   2.059
    7ALA     CA  109   2.766   2.652   2.216
    7ALA     HA  110   2.834   2.717   2.251
    7ALA     CB  111   2.646   2.561   2.183
    7ALA    HB1  112   2.582   2.610   2.124
    7ALA    HB2  113   2.679   2.479   2.136
    7ALA    HB3  114   2.600   2.535   2.268
    7ALA      C  115   2.821   2.588   2.276
    7ALA      O  116   2.819   2.508   2.316
    8LEU      N  117   3.024   2.742   2.296
    8LEU     HN  118   3.040   2.789   2.209
    8LEU     CA  119   3.097   2.772   2.366
    8LEU     HA  120   3.014   2.824   2.386
    8LEU     CB  121   3.216   2.674   2.352
    8LEU    HB1  122   3.255   2.662   2.443
    8LEU    HB2  123   3.283   2.719   2.293
    8LEU     CG  124   3.193   2.532   2.294
    8LEU     HG  125   3.170   2.567   2.203
    8LEU    CD1  126   3.071   2.449   2.333
    8LEU   HD11  127   3.074   2.361   2.285
    8LEU   HD12  128   3.072   2.434   2.431
    8LEU   HD13  129   2.988   2.498   2.307
    8LEU    CD2  130   3.315   2.439   2.288
    8LEU   HD21  131   3.288   2.351   2.249
    8LEU   HD22  132   3.386   2.480   2.231
    8LEU   HD23  133   3.351   2.425   2.380
    8LEU      C  134   3.151   2.838   2.426
    8LEU      O  135   3.230   2.850   2.466
    9LEU      N  136   2.963   3.011   2.446
    9LEU     HN  137   2.914   3.018   2.359
    9LEU     CA  138   2.921   3.078   2.516
    9LEU     HA  139   2.884   2.987   2.535
    9LEU     CB  140   2.997   3.212   2.503
    9LEU    HB1  141   3.002   3.252   2.595
    9LEU    HB2  142   2.942   3.271   2.444
    9LEU     CG  143   3.141   3.212   2.446
    9LEU     HG  144   3.112   3.183   2.355
    9LEU    CD1  145   3.242   3.105   2.487
    9LEU   HD11  146   3.329   3.122   2.440
    9LEU   HD12  147   3.257   3.109   2.586
    9LEU   HD13  148   3.208   3.015   2.462
    9LEU    CD2  149   3.214   3.347   2.443
    9LEU   HD21  150   3.305   3.335   2.404
    9LEU   HD22  151   3.162   3.411   2.386
    9LEU   HD23  152   3.221   3.383   2.535
    9LEU      C  153   2.847   3.119   2.576
    9LEU      O  154   2.822   3.195   2.616
   10VAL      N  155   2.709   2.904   2.596
   10VAL     HN  156   2.711   2.855   2.509
   10VAL     CA  157   2.651   2.851   2.666
   10VAL     HA  158   2.567   2.898   2.638
   10VAL     CB  159   2.775   2.792   2.727
   10VAL     HB  160   2.811   2.714   2.677
   10VAL    CG1  161   2.729   2.758   2.869
   10VAL   HG11  162   2.805   2.718   2.919
   10VAL   HG12  163   2.699   2.842   2.915
   10VAL   HG13  164   2.653   2.693   2.865
   10VAL    CG2  165   2.883   2.899   2.728
   10VAL   HG21  166   2.966   2.862   2.768
   10VAL   HG22  167   2.901   2.929   2.634
   10VAL   HG23  168   2.852   2.977   2.782
   10VAL      C  169   2.623   2.771   2.726
   10VAL      O  170   2.553   2.733   2.766
   11PHE      N  171   2.858   2.672   2.746
   11PHE     HN  172   2.907   2.683   2.659
   11PHE     CA  173   2.921   2.624   2.816
   11PHE     HA  174   2.938   2.715   2.855
   11PHE     CB  175   2.879   2.481   2.779
   11PHE    HB1  176   2.958   2.433   2.740
   11PHE    HB2  177   2.806   2.485   2.711
   11PHE     CG  178   2.828   2.400   2.899
   11PHE    CD1  179   2.910   2.312   2.973
   11PHE    HD1  180   3.006   2.299   2.948
   11PHE    CE1  181   2.855   2.244   3.083
   11PHE    HE1  182   2.912   2.181   3.136
   11PHE     CZ  183   2.720   2.264   3.117
   11PHE     HZ  184   2.682   2.215   3.195
   11PHE    CD2  185   2.692   2.420   2.934
   11PHE    HD2  186   2.635   2.482   2.881
   11PHE    CE2  187   2.638   2.351   3.043
   11PHE    HE2  188   2.543   2.364   3.069
   11PHE      C  189   3.004   2.611   2.876
   11PHE      O  190   3.054   2.548   2.916
   12PHE      N  191   3.061   2.860   2.896
   12PHE     HN  192   3.042   2.906   2.809
   12PHE     CA  193   3.097   2.930   2.966
   12PHE     HA  194   3.005   2.932   3.005
   12PHE     CB  195   3.246   2.912   2.928
   12PHE    HB1  196   3.279   2.998   2.888
   12PHE    HB2  197   3.254   2.839   2.861
   12PHE     CG  198   3.333   2.878   3.049
   12PHE    CD1  199   3.405   2.975   3.123
   12PHE    HD1  200   3.401   3.071   3.097
   12PHE    CE1  201   3.482   2.934   3.232
   12PHE    HE1  202   3.534   3.001   3.286
   12PHE     CZ  203   3.487   2.797   3.267
   12PHE     HZ  204   3.541   2.768   3.346
   12PHE    CD2  205   3.338   2.742   3.084
   12PHE    HD2  206   3.287   2.674   3.031
   12PHE    CE2  207   3.416   2.701   3.193
   12PHE    HE2  208   3.420   2.605   3.219
   12PHE      C  209   3.096   3.014   3.026
   12PHE      O  210   3.149   3.074   3.066
   13ALA      N  211   2.841   3.027   3.046
   13ALA     HN  212   2.799   3.000   2.959
   13ALA     CA  213   2.766   3.050   3.116
   13ALA     HA  214   2.788   2.959   3.151
   13ALA     CB  215   2.748   3.199   3.084
   13ALA    HB1  216   2.822   3.230   3.025
   13ALA    HB2  217   2.660   3.212   3.036
   13ALA    HB3  218   2.748   3.252   3.168
   13ALA      C  219   2.683   3.035   3.176
   13ALA      O  220   2.615   3.076   3.216
   14GLY      N  221   2.715   2.781   3.196
   14GLY     HN  222   2.748   2.744   3.109
   14GLY     CA  223   2.705   2.703   3.266
   14GLY    HA1  224   2.665   2.757   3.341
   14GLY    HA2  225   2.632   2.653   3.219
   14GLY      C  226   2.735   2.624   3.326
   14GLY      O  227   2.706   2.550   3.366
   15SER      N  228   2.978   2.700   3.346
   15SER     HN  229   3.009   2.739   3.259
   15SER     CA  230   3.057   2.703   3.416
   15SER     HA  231   3.098   2.613   3.404
   15SER     CB  232   2.987   2.833   3.449
   15SER    HB1  233   2.994   2.899   3.374
   15SER    HB2  234   3.024   2.875   3.532
   15SER     OG  235   2.851   2.799   3.470
   15SER    HG1  236   2.799   2.882   3.492
   15SER      C  237   3.130   2.746   3.476
   15SER      O  238   3.208   2.731   3.516
   16SER      N  239   3.013   2.973   3.496
   16SER     HN  240   2.969   2.996   3.409
   16SER     CA  241   2.996   3.050   3.566
   16SER     HA  242   3.077   3.104   3.543
   16SER     CB  243   2.884   2.963   3.619
   16SER    HB1  244   2.907   2.866   3.612
   16SER    HB2  245   2.798   2.981   3.572
   16SER     OG  246   2.869   2.996   3.757
   16SER    HG1  247   2.796   2.941   3.797
   16SER      C  248   2.941   3.114   3.626
   16SER      O  249   2.943   3.194   3.666
   17ASP      N  250   2.738   2.960   3.646
   17ASP     HN  251   2.722   2.913   3.559
   17ASP     CA  252   2.665   2.930   3.716
   17ASP     HA  253   2.747   2.879   3.741
   17ASP     CB  254   2.546   3.027   3.695
   17ASP    HB1  255   2.527   3.061   3.787
   17ASP    HB2  256   2.471   2.968   3.666
   17ASP     CG  257   2.531   3.152   3.605
   17ASP    OD1  258   2.624   3.190   3.532
   17ASP    OD2  259   2.422   3.213   3.610
   17ASP      C  260   2.611   2.864   3.776
   17ASP      O  261   2.532   2.852   3.816
   18LEU      N  262   2.799   2.691   3.796
   18LEU     HN  263   2.848   2.684   3.709
   18LEU     CA  264   2.841   2.624   3.866
   18LEU     HA  265   2.877   2.716   3.886
   18LEU     CB  266   2.766   2.490   3.852
   18LEU    HB1  267   2.761   2.450   3.944
   18LEU    HB2  268   2.822   2.432   3.794
   18LEU     CG  269   2.622   2.486   3.795
   18LEU     HG  270   2.652   2.514   3.704
   18LEU    CD1  271   2.518   2.591   3.835
   18LEU   HD11  272   2.432   2.572   3.788
   18LEU   HD12  273   2.504   2.588   3.933
   18LEU   HD13  274   2.551   2.682   3.809
   18LEU    CD2  275   2.552   2.349   3.790
   18LEU   HD21  276   2.461   2.360   3.751
   18LEU   HD22  277   2.605   2.287   3.733
   18LEU   HD23  278   2.545   2.312   3.882
   18LEU      C  279   2.915   2.583   3.926
   18LEU      O  280   2.940   2.507   3.966
   19ILE      N  281   3.053   2.798   3.946
   19ILE     HN  282   3.051   2.847   3.859
   19ILE     CA  283   3.111   2.851   4.016
   19ILE     HA  284   3.188   2.809   3.969
   19ILE     CB  285   3.003   2.900   4.110
   19ILE     HB  286   2.936   2.965   4.076
   19ILE    CG2  287   3.091   2.953   4.225
   19ILE   HG21  288   3.032   2.990   4.297
   19ILE   HG22  289   3.147   2.878   4.261
   19ILE   HG23  290   3.150   3.025   4.190
   19ILE    CG1  291   2.936   2.769   4.158
   19ILE   HG11  292   2.894   2.724   4.079
   19ILE   HG12  293   2.865   2.791   4.225
   19ILE     CD  294   3.035   2.672   4.222
   19ILE    HD1  295   2.987   2.589   4.251
   19ILE    HD2  296   3.107   2.648   4.156
   19ILE    HD3  297   3.077   2.715   4.302
   19ILE      C  298   3.139   2.931   4.076
   19ILE      O  299   3.209   2.969   4.116
   20ARG      N  300   2.904   3.030   4.096
   20ARG     HN  301   2.855   3.019   4.009
   20ARG     CA  302   2.841   3.078   4.166
   20ARG     HA  303   2.874   3.157   4.115
   20ARG     CB  304   2.803   2.971   4.267
   20ARG    HB1  305   2.873   2.899   4.273
   20ARG    HB2  306   2.715   2.929   4.245
   20ARG     CG  307   2.797   3.059   4.395
   20ARG    HG1  308   2.809   3.002   4.476
   20ARG    HG2  309   2.708   3.105   4.400
   20ARG     CD  310   2.908   3.166   4.392
   20ARG    HD1  311   2.907   3.208   4.301
   20ARG    HD2  312   2.995   3.119   4.406
   20ARG     NE  313   2.906   3.278   4.488
   20ARG     HE  314   2.818   3.323   4.502
   20ARG     CZ  315   3.009   3.326   4.559
   20ARG    NH1  316   3.131   3.269   4.546
   20ARG   HH11  317   3.144   3.192   4.484
   20ARG   HH12  318   3.208   3.304   4.599
   20ARG    NH2  319   2.992   3.429   4.642
   20ARG   HH21  320   2.902   3.471   4.651
   20ARG   HH22  321   3.069   3.464   4.695
   20ARG      C  322   2.758   3.091   4.226
   20ARG      O  323   2.708   3.154   4.266
   21ARG      N  324   2.701   2.842   4.246
   21ARG     HN  325   2.720   2.796   4.159
   21ARG     CA  326   2.665   2.772   4.316
   21ARG     HA  327   2.572   2.795   4.287
   21ARG     CB  328   2.801   2.745   4.380
   21ARG    HB1  329   2.864   2.821   4.366
   21ARG    HB2  330   2.842   2.661   4.345
   21ARG     CG  331   2.758   2.732   4.530
   21ARG    HG1  332   2.837   2.750   4.588
   21ARG    HG2  333   2.724   2.639   4.546
   21ARG     CD  334   2.646   2.833   4.564
   21ARG    HD1  335   2.609   2.869   4.478
   21ARG    HD2  336   2.687   2.908   4.617
   21ARG     NE  337   2.527   2.791   4.642
   21ARG     HE  338   2.512   2.694   4.656
   21ARG     CZ  339   2.439   2.877   4.695
   21ARG    NH1  340   2.460   3.009   4.678
   21ARG   HH11  341   2.540   3.041   4.627
   21ARG   HH12  342   2.396   3.075   4.717
   21ARG    NH2  343   2.332   2.833   4.764
   21ARG   HH21  344   2.318   2.735   4.776
   21ARG   HH22  345   2.268   2.898   4.803
   21ARG      C  346   2.666   2.688   4.376
   21ARG    OT1  347   2.777   2.610   4.371
   21ARG    OT2  348   2.556   2.665   4.453
   5.74866   5.74866   5.74866
